<event>
 7    1  0.2648915E-009  0.7976775E+02  0.7561462E-02  0.1329712E+00
          2   -1    0    0  501    0  0.00000000000E+00  0.00000000000E+00  0.16531121566E+03  0.16531121566E+03  0.00000000000E+00 0. -1.
         -2   -1    0    0    0  501 -0.00000000000E+00 -0.00000000000E+00 -0.86025779466E+02  0.86025779466E+02  0.00000000000E+00 0.  1.
         25    2    1    2    0    0 -0.14668572302E+02 -0.16810364806E+02  0.89132488623E+02  0.15520849060E+03  0.12508924673E+03 0.  0.
          5    1    3    3  502    0  0.22930032636E+02 -0.35112058285E+02  0.10273007693E+03  0.11103866057E+03  0.41800000000E+01 0. -1.
         -5    1    3    3    0  502 -0.37598604938E+02  0.18301693479E+02 -0.13597588309E+02  0.44169830035E+02  0.41800000000E+01 0. -1.
        -11    1    1    2    0    0 -0.48404621183E+00 -0.28030613910E+02  0.24832658761E+02  0.37451442670E+02  0.00000000000E+00 0. -1.
         11    1    1    2    0    0  0.15152618514E+02  0.44840978716E+02 -0.34679711189E+02  0.58677061857E+02  0.00000000000E+00 0.  1.
</event>
<event>
 7    1  0.2648915E-009  0.1167397E+03  0.7561462E-02  0.1248574E+00
         -1   -1    0    0    0  501 -0.00000000000E+00  0.00000000000E+00  0.22795655059E+03  0.22795655059E+03  0.00000000000E+00 0.  1.
          1   -1    0    0  501    0  0.00000000000E+00 -0.00000000000E+00 -0.68393856776E+02  0.68393856776E+02  0.00000000000E+00 0. -1.
         25    2    1    2    0    0  0.34951837568E+02 -0.50180429148E+02  0.79734329892E+02  0.16045615572E+03  0.12509559595E+03 0.  0.
          5    1    3    3  502    0 -0.40625451533E+02  0.51047647192E+01  0.43713602494E+02  0.60040297952E+02  0.41800000000E+01 0. -1.
         -5    1    3    3    0  502  0.75577289101E+02 -0.55285193867E+02  0.36020727398E+02  0.10041585777E+03  0.41800000000E+01 0. -1.
        -11    1    1    2    0    0 -0.55724301122E+02  0.53853089929E+02  0.32415914163E+02  0.84000860243E+02  0.00000000000E+00 0. -1.
         11    1    1    2    0    0  0.20772463554E+02 -0.36726607816E+01  0.47412449755E+02  0.51893391401E+02  0.00000000000E+00 0.  1.
</event>
<event>
 7    1  0.2648915E-009  0.1696396E+03  0.7561462E-02  0.1178224E+00
          1   -1    0    0  501    0  0.00000000000E+00  0.00000000000E+00  0.25945364022E+03  0.25945364022E+03  0.00000000000E+00 0. -1.
         -1   -1    0    0    0  501 -0.00000000000E+00 -0.00000000000E+00 -0.20001818265E+03  0.20001818265E+03  0.00000000000E+00 0.  1.
         25    2    1    2    0    0  0.72877916385E+02  0.13599112776E+03  0.15897375249E+03  0.25441093891E+03  0.12508994495E+03 0.  0.
          5    1    3    3  502    0  0.10787922132E+02  0.17983294187E+00  0.88463451354E+02  0.89216961556E+02  0.41800000000E+01 0.  1.
         -5    1    3    3    0  502  0.62089994253E+02  0.13581129482E+03  0.70510301135E+02  0.16519397735E+03  0.41800000000E+01 0.  1.
        -11    1    1    2    0    0 -0.88088209302E+02 -0.75726312852E+02 -0.54557643434E+02  0.12833761543E+03  0.00000000000E+00 0.  1.
         11    1    1    2    0    0  0.15210292917E+02 -0.60264814909E+02 -0.44980651488E+02  0.76723268536E+02  0.00000000000E+00 0. -1.
</event>
<event>
 7    1  0.2648915E-009  0.1039233E+03  0.7561462E-02  0.1272256E+00
          1   -1    0    0  501    0  0.00000000000E+00  0.00000000000E+00  0.36133492184E+03  0.36133492184E+03  0.00000000000E+00 0. -1.
         -1   -1    0    0    0  501 -0.00000000000E+00 -0.00000000000E+00 -0.48230444374E+02  0.48230444374E+02  0.00000000000E+00 0.  1.
         25    2    1    2    0    0 -0.74077968648E+02  0.15730089121E+02  0.16848434357E+03  0.22309006523E+03  0.12508885655E+03 0.  0.
          5    1    3    3  502    0 -0.54767815586E+02  0.46050060442E+02  0.26263581776E+02  0.76337211231E+02  0.41800000000E+01 0.  1.
         -5    1    3    3    0  502 -0.19310153062E+02 -0.30319971321E+02  0.14222076179E+03  0.14675285400E+03  0.41800000000E+01 0.  1.
        -11    1    1    2    0    0  0.20042908374E+02  0.25196283608E+02  0.68266148812E+01  0.32911602126E+02  0.00000000000E+00 0.  1.
         11    1    1    2    0    0  0.54035060274E+02 -0.40926372730E+02  0.13779351902E+03  0.15356369886E+03  0.00000000000E+00 0. -1.
</event>
<event>
 7    1  0.2648915E-009  0.1193452E+03  0.7561462E-02  0.1244181E+00
          2   -1    0    0  501    0  0.00000000000E+00  0.00000000000E+00  0.81003044099E+02  0.81003044099E+02  0.00000000000E+00 0. -1.
         -2   -1    0    0    0  501 -0.00000000000E+00 -0.00000000000E+00 -0.22940799097E+03  0.22940799097E+03  0.00000000000E+00 0.  1.
         25    2    1    2    0    0  0.67062867729E+02 -0.47153244371E+02 -0.87735304936E+02  0.17339295464E+03  0.12508707489E+03 0.  0.
          5    1    3    3  502    0  0.68209015912E+02 -0.68596101341E+02 -0.15677442551E+02  0.98087458810E+02  0.41800000000E+01 0. -1.
         -5    1    3    3    0  502 -0.11461481827E+01  0.21442856970E+02 -0.72057862384E+02  0.75305495829E+02  0.41800000000E+01 0. -1.
        -11    1    1    2    0    0 -0.32126031996E+01  0.55500822937E+02 -0.42888540815E+02  0.70214593207E+02  0.00000000000E+00 0.  1.
         11    1    1    2    0    0 -0.63850264530E+02 -0.83475785656E+01 -0.17781101124E+02  0.66803487227E+02  0.00000000000E+00 0. -1.
</event>
<event>
 7    1  0.2648915E-009  0.1210479E+03  0.7561462E-02  0.1241378E+00
          2   -1    0    0  501    0  0.00000000000E+00  0.00000000000E+00  0.45251589332E+03  0.45251589332E+03  0.00000000000E+00 0. -1.
         -2   -1    0    0    0  501 -0.00000000000E+00 -0.00000000000E+00 -0.37086585951E+02  0.37086585951E+02  0.00000000000E+00 0.  1.
         25    2    1    2    0    0  0.32678851219E+02 -0.63265523918E+02  0.21724340779E+03  0.26059858881E+03  0.12508594017E+03 0.  0.
          5    1    3    3  502    0  0.77154252511E+02 -0.50469560958E+02  0.17478485650E+03  0.19765417710E+03  0.41800000000E+01 0. -1.
         -5    1    3    3    0  502 -0.44475401292E+02 -0.12795962961E+02  0.42458551292E+02  0.62944411713E+02  0.41800000000E+01 0. -1.
        -11    1    1    2    0    0 -0.42712865873E+02  0.75966916917E+02  0.11518896216E+03  0.14444327046E+03  0.00000000000E+00 0.  1.
         11    1    1    2    0    0  0.10034014654E+02 -0.12701392998E+02  0.82996937417E+02  0.84560620000E+02  0.00000000000E+00 0. -1.
</event>
<event>
 7    1  0.2648915E-009  0.2094103E+03  0.7561462E-02  0.1142034E+00
          2   -1    0    0  501    0  0.00000000000E+00  0.00000000000E+00  0.32971957788E+03  0.32971957788E+03  0.00000000000E+00 0. -1.
         -2   -1    0    0    0  501 -0.00000000000E+00 -0.00000000000E+00 -0.14204395407E+03  0.14204395407E+03  0.00000000000E+00 0.  1.
         25    2    1    2    0    0  0.16543653674E+03 -0.75381213253E+02  0.52419713718E+02  0.22681310261E+03  0.12507910349E+03 0.  0.
          5    1    3    3  502    0  0.31102072302E+02 -0.80126636491E+02  0.24351485099E+02  0.89432007712E+02  0.41800000000E+01 0. -1.
         -5    1    3    3    0  502  0.13433446443E+03  0.47454232379E+01  0.28068228618E+02  0.13738109489E+03  0.41800000000E+01 0. -1.
        -11    1    1    2    0    0 -0.60244296213E+02  0.70841844735E+02  0.92939055403E+02  0.13147475123E+03  0.00000000000E+00 0. -1.
         11    1    1    2    0    0 -0.10519224052E+03  0.45393685184E+01  0.42316854687E+02  0.11347567811E+03  0.00000000000E+00 0.  1.
</event>
<event>
 7    1  0.2648915E-009  0.1272215E+03  0.7561462E-02  0.1231638E+00
          2   -1    0    0  501    0  0.00000000000E+00  0.00000000000E+00  0.10857432499E+04  0.10857432499E+04  0.00000000000E+00 0. -1.
         -2   -1    0    0    0  501 -0.00000000000E+00 -0.00000000000E+00 -0.23618707718E+02  0.23618707718E+02  0.00000000000E+00 0.  1.
         25    2    1    2    0    0 -0.87120000422E+02 -0.54449770372E+02  0.79614470974E+03  0.81243360679E+03  0.12508914672E+03 0.  0.
          5    1    3    3  502    0 -0.64679008296E+02 -0.41024934731E+00  0.14714025399E+03  0.16078329877E+03  0.41800000000E+01 0.  1.
         -5    1    3    3    0  502 -0.22440992126E+02 -0.54039521025E+02  0.64900445575E+03  0.65165030802E+03  0.41800000000E+01 0.  1.
        -11    1    1    2    0    0  0.44605015001E+02  0.72221008094E+02  0.15414023368E+03  0.17596787494E+03  0.00000000000E+00 0. -1.
         11    1    1    2    0    0  0.42514985421E+02 -0.17771237722E+02  0.11183959878E+03  0.12096047590E+03  0.00000000000E+00 0.  1.
</event>
<event>
 7    1  0.2648915E-009  0.9241523E+02  0.7561462E-02  0.1297106E+00
          1   -1    0    0  501    0  0.00000000000E+00  0.00000000000E+00  0.43386895030E+02  0.43386895030E+02  0.00000000000E+00 0. -1.
         -1   -1    0    0    0  501 -0.00000000000E+00 -0.00000000000E+00 -0.30784294490E+03  0.30784294490E+03  0.00000000000E+00 0.  1.
         25    2    1    2    0    0 -0.15396693640E+02 -0.34815490327E+02 -0.16492394028E+03  0.21046698043E+03  0.12508903722E+03 0.  0.
          5    1    3    3  502    0  0.51100717368E+02 -0.30001612284E+02 -0.50492460312E+02  0.77963715942E+02  0.41800000000E+01 0. -1.
         -5    1    3    3    0  502 -0.66497411008E+02 -0.48138780426E+01 -0.11443147997E+03  0.13250326449E+03  0.41800000000E+01 0. -1.
        -11    1    1    2    0    0  0.30363381630E+02  0.15213700420E+02 -0.10913479993E+03  0.11429696487E+03  0.00000000000E+00 0.  1.
         11    1    1    2    0    0 -0.14966687990E+02  0.19601789907E+02  0.96026903309E+01  0.26465894629E+02  0.00000000000E+00 0. -1.
</event>
<event>
 7    1  0.2648915E-009  0.5368230E+02  0.7561462E-02  0.1426435E+00
          1   -1    0    0  501    0  0.00000000000E+00  0.00000000000E+00  0.85229302592E+03  0.85229302592E+03  0.00000000000E+00 0. -1.
         -1   -1    0    0    0  501 -0.00000000000E+00 -0.00000000000E+00 -0.14274765949E+02  0.14274765949E+02  0.00000000000E+00 0.  1.
         25    2    1    2    0    0 -0.78417732853E+01  0.68554025321E+01  0.49746716269E+03  0.51306001909E+03  0.12509402577E+03 0.  0.
          5    1    3    3  502    0 -0.49775540479E+01  0.93881290136E+01 -0.35908792578E+01  0.11969955076E+02  0.41800000000E+01 0. -1.
         -5    1    3    3    0  502 -0.28642192374E+01 -0.25327264814E+01  0.50105804194E+03  0.50109006401E+03  0.41800000000E+01 0. -1.
        -11    1    1    2    0    0  0.20660062672E+02  0.38204744644E+02  0.21848930336E+03  0.22276448636E+03  0.00000000000E+00 0. -1.
         11    1    1    2    0    0 -0.12818289387E+02 -0.45060147176E+02  0.12206179393E+03  0.13074328642E+03  0.00000000000E+00 0.  1.
</event>
<event>
 7    1  0.2648915E-009  0.1216650E+03  0.7561462E-02  0.1240375E+00
          1   -1    0    0  501    0  0.00000000000E+00  0.00000000000E+00  0.25304937268E+03  0.25304937268E+03  0.00000000000E+00 0. -1.
         -1   -1    0    0    0  501 -0.00000000000E+00 -0.00000000000E+00 -0.11002922552E+03  0.11002922552E+03  0.00000000000E+00 0.  1.
         25    2    1    2    0    0 -0.10675796606E+03 -0.25373193797E+02  0.14915790462E+03  0.22346434398E+03  0.12508864952E+03 0.  0.
          5    1    3    3  502    0 -0.40582044993E+02  0.26292991031E+02 -0.40569383470E+01  0.48704772887E+02  0.41800000000E+01 0. -1.
         -5    1    3    3    0  502 -0.66175921062E+02 -0.51666184828E+02  0.15321484297E+03  0.17475957109E+03  0.41800000000E+01 0. -1.
        -11    1    1    2    0    0  0.30164022822E+02  0.38204597659E+00  0.37388417325E+02  0.48040690899E+02  0.00000000000E+00 0. -1.
         11    1    1    2    0    0  0.76593943233E+02  0.24991147820E+02 -0.43526174776E+02  0.91573563325E+02  0.00000000000E+00 0.  1.
</event>
<event>
 7    1  0.2648915E-009  0.1285738E+03  0.7561462E-02  0.1229587E+00
         -1   -1    0    0    0  501 -0.00000000000E+00  0.00000000000E+00  0.39671528574E+03  0.39671528574E+03  0.00000000000E+00 0.  1.
          1   -1    0    0  501    0  0.00000000000E+00 -0.00000000000E+00 -0.51465367712E+02  0.51465367712E+02  0.00000000000E+00 0. -1.
         25    2    1    2    0    0 -0.54697251196E+02  0.79069997395E+02  0.21441330673E+03  0.26620296065E+03  0.12508835431E+03 0.  0.
          5    1    3    3  502    0  0.36513327834E+02  0.90696728511E-01  0.43403584815E+02  0.56873323362E+02  0.41800000000E+01 0.  1.
         -5    1    3    3    0  502 -0.91210579031E+02  0.78979300666E+02  0.17100972191E+03  0.20932963729E+03  0.41800000000E+01 0.  1.
        -11    1    1    2    0    0  0.27704799348E+02 -0.18376243884E+02 -0.21603167022E+01  0.33315300005E+02  0.00000000000E+00 0. -1.
         11    1    1    2    0    0  0.26992451849E+02 -0.60693753511E+02  0.13299692800E+03  0.14866239279E+03  0.00000000000E+00 0.  1.
</event>
<event>
 7    1  0.2648915E-009  0.1021706E+03  0.7561462E-02  0.1275796E+00
          2   -1    0    0  501    0  0.00000000000E+00  0.00000000000E+00  0.27195036848E+03  0.27195036848E+03  0.00000000000E+00 0. -1.
         -2   -1    0    0    0  501 -0.00000000000E+00 -0.00000000000E+00 -0.44292624428E+02  0.44292624428E+02  0.00000000000E+00 0.  1.
         25    2    1    2    0    0  0.18539269502E+02 -0.68290336524E+01  0.11965763784E+03  0.17422735616E+03  0.12508749389E+03 0.  0.
          5    1    3    3  502    0 -0.53353160004E+02  0.43005697364E+01  0.47709623549E+02  0.71824335442E+02  0.41800000000E+01 0. -1.
         -5    1    3    3    0  502  0.71892429506E+02 -0.11129603389E+02  0.71948014293E+02  0.10240302072E+03  0.41800000000E+01 0. -1.
        -11    1    1    2    0    0 -0.47450886152E+02  0.10618351368E+02  0.10089948202E+03  0.11200464926E+03  0.00000000000E+00 0. -1.
         11    1    1    2    0    0  0.28911616650E+02 -0.37893177157E+01  0.71006241816E+01  0.30010987486E+02  0.00000000000E+00 0.  1.
</event>
<event>
 7    1  0.2648915E-009  0.2136692E+03  0.7561462E-02  0.1138693E+00
         -2   -1    0    0    0  501 -0.00000000000E+00  0.00000000000E+00  0.11041902530E+03  0.11041902530E+03  0.00000000000E+00 0.  1.
          2   -1    0    0  501    0  0.00000000000E+00 -0.00000000000E+00 -0.53989311237E+03  0.53989311237E+03  0.00000000000E+00 0. -1.
         25    2    1    2    0    0  0.15143897097E+03 -0.12355634688E+03 -0.35047185306E+03  0.42033101815E+03  0.12509081602E+03 0.  0.
          5    1    3    3  502    0  0.16534863154E+03 -0.13457292940E+03 -0.33023956696E+03  0.39309755439E+03  0.41800000000E+01 0. -1.
         -5    1    3    3    0  502 -0.13909660571E+02  0.11016582524E+02 -0.20232286095E+02  0.27233463760E+02  0.41800000000E+01 0. -1.
        -11    1    1    2    0    0 -0.11799105566E+03  0.10295985699E+03 -0.18278773265E+02  0.15766018812E+03  0.00000000000E+00 0.  1.
         11    1    1    2    0    0 -0.33447915310E+02  0.20596489892E+02 -0.60723460744E+02  0.72320931404E+02  0.00000000000E+00 0. -1.
</event>
<event>
 7    1  0.2648915E-009  0.1551969E+03  0.7561462E-02  0.1194229E+00
          1   -1    0    0  501    0  0.00000000000E+00  0.00000000000E+00  0.80571222940E+03  0.80571222940E+03  0.00000000000E+00 0. -1.
         -1   -1    0    0    0  501 -0.00000000000E+00 -0.00000000000E+00 -0.50165417061E+02  0.50165417061E+02  0.00000000000E+00 0.  1.
         25    2    1    2    0    0  0.99092876557E+02  0.55951851654E+02  0.12965821314E+03  0.21309303817E+03  0.12508949914E+03 0.  0.
          5    1    3    3  502    0  0.10235344356E+03  0.85931975777E+02  0.82983821402E+02  0.15736682904E+03  0.41800000000E+01 0. -1.
         -5    1    3    3    0  502 -0.32605669998E+01 -0.29980124123E+02  0.46674391734E+02  0.55726209124E+02  0.41800000000E+01 0. -1.
        -11    1    1    2    0    0  0.14946140636E+02 -0.23188310553E+02  0.13060019488E+03  0.13348219270E+03  0.00000000000E+00 0.  1.
         11    1    1    2    0    0 -0.11403901719E+03 -0.32763541101E+02  0.49528840432E+03  0.50930241559E+03  0.00000000000E+00 0. -1.
</event>
<event>
 7    1  0.2648915E-009  0.1978381E+03  0.7561462E-02  0.1151576E+00
          2   -1    0    0  501    0  0.00000000000E+00  0.00000000000E+00  0.57949834125E+03  0.57949834125E+03  0.00000000000E+00 0. -1.
         -2   -1    0    0    0  501 -0.00000000000E+00 -0.00000000000E+00 -0.95311866891E+02  0.95311866891E+02  0.00000000000E+00 0.  1.
         25    2    1    2    0    0  0.15132968163E+03 -0.10691203094E+03  0.38729677134E+03  0.44718783735E+03  0.12508923970E+03 0.  0.
          5    1    3    3  502    0  0.10086113194E+03 -0.98452727356E+02  0.15609816456E+03  0.21035687970E+03  0.41800000000E+01 0.  1.
         -5    1    3    3    0  502  0.50468549685E+02 -0.84593035826E+01  0.23119860678E+03  0.23683095765E+03  0.41800000000E+01 0.  1.
        -11    1    1    2    0    0 -0.15132506634E+03  0.70550201347E+02  0.64703878468E+02  0.17906199625E+03  0.00000000000E+00 0.  1.
         11    1    1    2    0    0 -0.46152866892E-02  0.36361829591E+02  0.32185824551E+02  0.48560374531E+02  0.00000000000E+00 0. -1.
</event>
<event>
 7    1  0.2648915E-009  0.1061293E+03  0.7561462E-02  0.1267910E+00
         -2   -1    0    0    0  501 -0.00000000000E+00  0.00000000000E+00  0.88703725041E+02  0.88703725041E+02  0.00000000000E+00 0.  1.
          2   -1    0    0  501    0  0.00000000000E+00 -0.00000000000E+00 -0.16885254491E+03  0.16885254491E+03  0.00000000000E+00 0. -1.
         25    2    1    2    0    0  0.54944617372E+02  0.12283505664E+02 -0.43542073226E+02  0.14392251008E+03  0.12509189133E+03 0.  0.
          5    1    3    3  502    0  0.68485594494E+01  0.61232321763E+02  0.14244474214E+01  0.61772173715E+02  0.41800000000E+01 0.  1.
         -5    1    3    3    0  502  0.48096057923E+02 -0.48948816099E+02 -0.44966520647E+02  0.82150336362E+02  0.41800000000E+01 0.  1.
        -11    1    1    2    0    0 -0.28047184008E+01  0.20152201822E+02 -0.47128778236E+02  0.51333219475E+02  0.00000000000E+00 0. -1.
         11    1    1    2    0    0 -0.52139898971E+02 -0.32435707485E+02  0.10522031596E+02  0.62300540397E+02  0.00000000000E+00 0.  1.
</event>
<event>
 7    1  0.2648915E-009  0.8565403E+02  0.7561462E-02  0.1313731E+00
          2   -1    0    0  501    0  0.00000000000E+00  0.00000000000E+00  0.78357089488E+02  0.78357089488E+02  0.00000000000E+00 0. -1.
         -2   -1    0    0    0  501 -0.00000000000E+00 -0.00000000000E+00 -0.17910981551E+03  0.17910981551E+03  0.00000000000E+00 0.  1.
         25    2    1    2    0    0 -0.42416233058E+02 -0.11832258197E+02 -0.81683775048E+02  0.15575323796E+03  0.12509073853E+03 0.  0.
          5    1    3    3  502    0 -0.13436324984E+02 -0.33175613533E+02  0.24487782273E+02  0.43569255709E+02  0.41800000000E+01 0. -1.
         -5    1    3    3    0  502 -0.28979908074E+02  0.21343355336E+02 -0.10617155732E+03  0.11218398225E+03  0.41800000000E+01 0. -1.
        -11    1    1    2    0    0 -0.13388302059E+02  0.35862290708E+02 -0.87600780305E+00  0.38289919255E+02  0.00000000000E+00 0. -1.
         11    1    1    2    0    0  0.55804535117E+02 -0.24030032511E+02 -0.18192943173E+02  0.63423747788E+02  0.00000000000E+00 0.  1.
</event>
<event>
 7    1  0.2648915E-009  0.1426318E+03  0.7561462E-02  0.1209831E+00
         -1   -1    0    0    0  501 -0.00000000000E+00  0.00000000000E+00  0.67205011450E+02  0.67205011450E+02  0.00000000000E+00 0.  1.
          1   -1    0    0  501    0  0.00000000000E+00 -0.00000000000E+00 -0.39572759862E+03  0.39572759862E+03  0.00000000000E+00 0. -1.
         25    2    1    2    0    0  0.26189996801E+02  0.11944607791E+03 -0.17641210324E+03  0.24843771744E+03  0.12508712090E+03 0.  0.
          5    1    3    3  502    0 -0.29047478740E+02  0.93913552459E+02 -0.55386238254E+02  0.11290978321E+03  0.41800000000E+01 0.  1.
         -5    1    3    3    0  502  0.55237475541E+02  0.25532525449E+02 -0.12102586499E+03  0.13552793423E+03  0.41800000000E+01 0.  1.
        -11    1    1    2    0    0 -0.52689670843E+01 -0.87683581529E+02 -0.40778387077E+02  0.96845492081E+02  0.00000000000E+00 0.  1.
         11    1    1    2    0    0 -0.20921029717E+02 -0.31762496378E+02 -0.11133209685E+03  0.11764940055E+03  0.00000000000E+00 0. -1.
</event>
<event>
 7    1  0.3119069E-009  0.8886455E+02  0.7561462E-02  0.1305625E+00
          1   -1    0    0  501    0  0.00000000000E+00  0.00000000000E+00  0.51340064479E+03  0.51340064479E+03  0.00000000000E+00 0. -1.
         -1   -1    0    0    0  501 -0.00000000000E+00 -0.00000000000E+00 -0.30596740694E+02  0.30596740694E+02  0.00000000000E+00 0.  1.
         25    2    1    2    0    0  0.42807599068E+02  0.14106995030E+02  0.17585839361E+03  0.22046624202E+03  0.12509073276E+03 0.  0.
          5    1    3    3  502    0 -0.18334101822E+02  0.36803484544E+02  0.10470910564E+02  0.42635057550E+02  0.41800000000E+01 0.  1.
         -5    1    3    3    0  502  0.61141700891E+02 -0.22696489515E+02  0.16538748304E+03  0.17783118447E+03  0.41800000000E+01 0.  1.
        -11    1    1    2    0    0  0.39964473907E+01  0.15272462485E+02  0.49840545659E+01  0.16554772787E+02  0.00000000000E+00 0.  1.
         11    1    1    2    0    0 -0.46804046459E+02 -0.29379457515E+02  0.30196145592E+03  0.30697637067E+03  0.00000000000E+00 0. -1.
</event>
<event>
 7    1  0.2648915E-009  0.1212660E+03  0.7561462E-02  0.1241023E+00
         -1   -1    0    0    0  501 -0.00000000000E+00  0.00000000000E+00  0.76415869194E+03  0.76415869194E+03  0.00000000000E+00 0.  1.
          1   -1    0    0  501    0  0.00000000000E+00 -0.00000000000E+00 -0.25293658286E+02  0.25293658286E+02  0.00000000000E+00 0. -1.
         25    2    1    2    0    0  0.14603406227E+02  0.60329230495E+02  0.52682354199E+03  0.54501689205E+03  0.12508993845E+03 0.  0.
          5    1    3    3  502    0  0.20733704171E+02  0.88953627559E+02  0.48647384754E+03  0.49499182931E+03  0.41800000000E+01 0. -1.
         -5    1    3    3    0  502 -0.61302979434E+01 -0.28624397064E+02  0.40349694453E+02  0.50025062744E+02  0.41800000000E+01 0. -1.
        -11    1    1    2    0    0 -0.49051155386E+02 -0.70249987910E+02  0.15333716848E+03  0.17565125642E+03  0.00000000000E+00 0.  1.
         11    1    1    2    0    0  0.34447749158E+02  0.99207574159E+01  0.58704323186E+02  0.68784201751E+02  0.00000000000E+00 0. -1.
</event>
<event>
 7    1  0.2648915E-009  0.8850792E+02  0.7561462E-02  0.1306506E+00
          2   -1    0    0  501    0  0.00000000000E+00  0.00000000000E+00  0.13944454693E+03  0.13944454693E+03  0.00000000000E+00 0. -1.
         -2   -1    0    0    0  501 -0.00000000000E+00 -0.00000000000E+00 -0.97957181300E+02  0.97957181300E+02  0.00000000000E+00 0.  1.
         25    2    1    2    0    0 -0.33760881038E+02 -0.17077128486E+02  0.44912762652E+02  0.13818851163E+03  0.12508990004E+03 0.  0.
          5    1    3    3  502    0  0.28944419491E+02  0.35561543386E+02  0.29759814364E+02  0.54822638924E+02  0.41800000000E+01 0.  1.
         -5    1    3    3    0  502 -0.62705300529E+02 -0.52638671871E+02  0.15152948289E+02  0.83365872710E+02  0.41800000000E+01 0.  1.
        -11    1    1    2    0    0  0.37641711089E+02  0.71190450681E+01 -0.43368254193E+02  0.57865228662E+02  0.00000000000E+00 0.  1.
         11    1    1    2    0    0 -0.38808300517E+01  0.99580834174E+01  0.39942857170E+02  0.41347987933E+02  0.00000000000E+00 0. -1.
</event>
<event>
 7    1  0.2648915E-009  0.1105665E+03  0.7561462E-02  0.1259524E+00
          1   -1    0    0  501    0  0.00000000000E+00  0.00000000000E+00  0.19511557878E+03  0.19511557878E+03  0.00000000000E+00 0. -1.
         -1   -1    0    0    0  501 -0.00000000000E+00 -0.00000000000E+00 -0.76868544369E+02  0.76868544369E+02  0.00000000000E+00 0.  1.
         25    2    1    2    0    0 -0.34592164075E+02 -0.36982782873E+02  0.96734196370E+02  0.16603876502E+03  0.12508805977E+03 0.  0.
          5    1    3    3  502    0 -0.16760536545E+02 -0.75254215745E+02  0.22309494011E+02  0.80369761078E+02  0.41800000000E+01 0. -1.
         -5    1    3    3    0  502 -0.17831627530E+02  0.38271432873E+02  0.74424702359E+02  0.85669003938E+02  0.41800000000E+01 0. -1.
        -11    1    1    2    0    0  0.13689425367E+02 -0.29113192683E+02  0.17220723998E+02  0.36490158812E+02  0.00000000000E+00 0.  1.
         11    1    1    2    0    0  0.20902738708E+02  0.66095975556E+02  0.42921140456E+01  0.69455199324E+02  0.00000000000E+00 0. -1.
</event>
<event>
 7    1  0.2648915E-009  0.1995686E+03  0.7561462E-02  0.1150104E+00
          1   -1    0    0  501    0  0.00000000000E+00  0.00000000000E+00  0.53380734466E+03  0.53380734466E+03  0.00000000000E+00 0. -1.
         -1   -1    0    0    0  501 -0.00000000000E+00 -0.00000000000E+00 -0.77959475333E+02  0.77959475333E+02  0.00000000000E+00 0.  1.
         25    2    1    2    0    0 -0.56717197544E+02  0.15714528117E+03  0.29895053698E+03  0.36459822046E+03  0.12509579893E+03 0.  0.
          5    1    3    3  502    0 -0.34737432422E+02 -0.12644720760E+02  0.60430188086E+02  0.70963780948E+02  0.41800000000E+01 0. -1.
         -5    1    3    3    0  502 -0.21979765122E+02  0.16979000193E+03  0.23852034890E+03  0.29363443951E+03  0.41800000000E+01 0. -1.
        -11    1    1    2    0    0  0.79586140175E+02 -0.14337222994E+03  0.12986080794E+03  0.20917308495E+03  0.00000000000E+00 0.  1.
         11    1    1    2    0    0 -0.22868942630E+02 -0.13773051228E+02  0.27036524396E+02  0.37995514585E+02  0.00000000000E+00 0. -1.
</event>
<event>
 7    1  0.2648915E-009  0.1465602E+03  0.7561462E-02  0.1204765E+00
          1   -1    0    0  501    0  0.00000000000E+00  0.00000000000E+00  0.34159972953E+02  0.34159972953E+02  0.00000000000E+00 0. -1.
         -1   -1    0    0    0  501 -0.00000000000E+00 -0.00000000000E+00 -0.92643340382E+03  0.92643340382E+03  0.00000000000E+00 0.  1.
         25    2    1    2    0    0 -0.13512013614E+02  0.12559478887E+03 -0.62176288867E+03  0.64667904312E+03  0.12509224427E+03 0.  0.
          5    1    3    3  502    0  0.13495931973E+02  0.10072107257E+03 -0.58765150254E+03  0.59638799073E+03  0.41800000000E+01 0. -1.
         -5    1    3    3    0  502 -0.27007945587E+02  0.24873716294E+02 -0.34111386127E+02  0.50291052392E+02  0.41800000000E+01 0. -1.
        -11    1    1    2    0    0  0.51678911796E+02 -0.69370203690E+02 -0.18854863557E+03  0.20744522906E+03  0.00000000000E+00 0.  1.
         11    1    1    2    0    0 -0.38166898182E+02 -0.56224585180E+02 -0.81961906626E+02  0.10646910460E+03  0.00000000000E+00 0. -1.
</event>
<event>
 7    1  0.2648915E-009  0.3048190E+03  0.7561462E-02  0.1082856E+00
         -2   -1    0    0    0  501 -0.00000000000E+00  0.00000000000E+00  0.48440264100E+03  0.48440264100E+03  0.00000000000E+00 0.  1.
          2   -1    0    0  501    0  0.00000000000E+00 -0.00000000000E+00 -0.20845833488E+03  0.20845833488E+03  0.00000000000E+00 0. -1.
         25    2    1    2    0    0  0.29171917886E+03  0.63302789435E+02  0.14932231625E+03  0.35644245343E+03  0.12508695382E+03 0.  0.
          5    1    3    3  502    0  0.24128750644E+03  0.49057450994E+02  0.61070875502E+02  0.25371917250E+03  0.41800000000E+01 0. -1.
         -5    1    3    3    0  502  0.50431672416E+02  0.14245338441E+02  0.88251440751E+02  0.10272328093E+03  0.41800000000E+01 0. -1.
        -11    1    1    2    0    0 -0.26213888890E+03 -0.83352935218E+02  0.11984909718E+03  0.30004718792E+03  0.00000000000E+00 0.  1.
         11    1    1    2    0    0 -0.29580289959E+02  0.20050145783E+02  0.67728926782E+01  0.36371334526E+02  0.00000000000E+00 0. -1.
</event>
<event>
 7    1  0.2648915E-009  0.1181096E+03  0.7561462E-02  0.1246249E+00
          2   -1    0    0  501    0  0.00000000000E+00  0.00000000000E+00  0.43154482607E+03  0.43154482607E+03  0.00000000000E+00 0. -1.
         -2   -1    0    0    0  501 -0.00000000000E+00 -0.00000000000E+00 -0.39762929592E+02  0.39762929592E+02  0.00000000000E+00 0.  1.
         25    2    1    2    0    0  0.27579407011E+02 -0.60964349018E+02  0.16420238924E+03  0.21699418587E+03  0.12508707578E+03 0.  0.
          5    1    3    3  502    0  0.21090347388E+02  0.34217358259E+02  0.22898724933E+02  0.46448405384E+02  0.41800000000E+01 0.  1.
         -5    1    3    3    0  502  0.64890596222E+01 -0.95181707277E+02  0.14130366430E+03  0.17054578048E+03  0.41800000000E+01 0.  1.
        -11    1    1    2    0    0 -0.48156050224E+02  0.15798875343E+02  0.17421105754E+03  0.18143346496E+03  0.00000000000E+00 0. -1.
         11    1    1    2    0    0  0.20576643213E+02  0.45165473675E+02  0.53368449701E+02  0.72880104841E+02  0.00000000000E+00 0.  1.
</event>
<event>
 7    1  0.2648915E-009  0.1343917E+03  0.7561462E-02  0.1221081E+00
          3   -1    0    0  501    0  0.00000000000E+00  0.00000000000E+00  0.28995669355E+02  0.28995669355E+02  0.00000000000E+00 0. -1.
         -3   -1    0    0    0  501 -0.00000000000E+00 -0.00000000000E+00 -0.72961052211E+03  0.72961052211E+03  0.00000000000E+00 0.  1.
         25    2    1    2    0    0  0.88577905320E+02  0.26046365537E+02 -0.46136133365E+03  0.48685369607E+03  0.12509109766E+03 0.  0.
          5    1    3    3  502    0  0.57621541680E+02  0.69838351227E+02 -0.19391814545E+03  0.21405456525E+03  0.41800000000E+01 0.  1.
         -5    1    3    3    0  502  0.30956363641E+02 -0.43791985690E+02 -0.26744318820E+03  0.27279913082E+03  0.41800000000E+01 0.  1.
        -11    1    1    2    0    0 -0.76829544346E+02  0.17881608175E+02 -0.11512711880E+03  0.13955925007E+03  0.00000000000E+00 0.  1.
         11    1    1    2    0    0 -0.11748360975E+02 -0.43927973712E+02 -0.12412640031E+03  0.13219324534E+03  0.00000000000E+00 0. -1.
</event>
<event>
 7    1  0.2648915E-009  0.2584545E+03  0.7561462E-02  0.1108075E+00
          1   -1    0    0  501    0  0.00000000000E+00  0.00000000000E+00  0.21888446216E+04  0.21888446216E+04  0.00000000000E+00 0. -1.
         -1   -1    0    0    0  501 -0.00000000000E+00 -0.00000000000E+00 -0.31804477838E+02  0.31804477838E+02  0.00000000000E+00 0.  1.
         25    2    1    2    0    0 -0.23731910593E+03  0.31611156076E+02  0.10314376571E+04  0.10662227436E+04  0.12509066849E+03 0.  0.
          5    1    3    3  502    0 -0.23655183356E+03  0.56491047529E+02  0.89469911893E+03  0.92717419843E+03  0.41800000000E+01 0. -1.
         -5    1    3    3    0  502 -0.76727237426E+00 -0.24879891453E+02  0.13673853816E+03  0.13904854520E+03  0.41800000000E+01 0. -1.
        -11    1    1    2    0    0  0.85152201869E+02 -0.43833865023E+02  0.30288852325E+03  0.31766926625E+03  0.00000000000E+00 0.  1.
         11    1    1    2    0    0  0.15216690407E+03  0.12222708947E+02  0.82271396339E+03  0.83675708952E+03  0.00000000000E+00 0. -1.
</event>
<event>
 7    1  0.2648915E-009  0.2442216E+03  0.7561462E-02  0.1117012E+00
          1   -1    0    0  501    0  0.00000000000E+00  0.00000000000E+00  0.72507703237E+02  0.72507703237E+02  0.00000000000E+00 0. -1.
         -1   -1    0    0    0  501 -0.00000000000E+00 -0.00000000000E+00 -0.91256666927E+03  0.91256666927E+03  0.00000000000E+00 0.  1.
         25    2    1    2    0    0 -0.13000889655E+02 -0.23212065715E+03 -0.47629741470E+03  0.54456954210E+03  0.12509091224E+03 0.  0.
          5    1    3    3  502    0 -0.30029073434E+02 -0.22047496795E+03 -0.33805594189E+03  0.40473478847E+03  0.41800000000E+01 0. -1.
         -5    1    3    3    0  502  0.17028183779E+02 -0.11645689196E+02 -0.13824147280E+03  0.13983475363E+03  0.41800000000E+01 0. -1.
        -11    1    1    2    0    0  0.27764279573E+02  0.25501603291E+02 -0.32323158516E+02  0.49658569926E+02  0.00000000000E+00 0. -1.
         11    1    1    2    0    0 -0.14763389918E+02  0.20661905386E+03 -0.33143839282E+03  0.39084626048E+03  0.00000000000E+00 0.  1.
</event>
<event>
 7    1  0.2648915E-009  0.1051039E+03  0.7561462E-02  0.1269915E+00
          3   -1    0    0  501    0  0.00000000000E+00  0.00000000000E+00  0.83138194867E+02  0.83138194867E+02  0.00000000000E+00 0. -1.
         -3   -1    0    0    0  501 -0.00000000000E+00 -0.00000000000E+00 -0.21071396551E+03  0.21071396551E+03  0.00000000000E+00 0.  1.
         25    2    1    2    0    0  0.46540238887E+02  0.37333362623E+02 -0.12222201483E+03  0.18478653648E+03  0.12509224339E+03 0.  0.
          5    1    3    3  502    0  0.36427419831E+02  0.64165121673E+02 -0.13438084379E+03  0.15336167491E+03  0.41800000000E+01 0.  1.
         -5    1    3    3    0  502  0.10112819056E+02 -0.26831759050E+02  0.12158828961E+02  0.31424861570E+02  0.41800000000E+01 0.  1.
        -11    1    1    2    0    0 -0.22265171247E+01  0.28161924456E+02  0.68060991142E+01  0.29058120255E+02  0.00000000000E+00 0. -1.
         11    1    1    2    0    0 -0.44313721763E+02 -0.65495287080E+02 -0.12159854926E+02  0.80007503635E+02  0.00000000000E+00 0.  1.
</event>
<event>
 7    1  0.2648915E-009  0.2621110E+03  0.7561462E-02  0.1105882E+00
          2   -1    0    0  501    0  0.00000000000E+00  0.00000000000E+00  0.93608747994E+03  0.93608747994E+03  0.00000000000E+00 0.  1.
         -2   -1    0    0    0  501 -0.00000000000E+00 -0.00000000000E+00 -0.75526010871E+02  0.75526010871E+02  0.00000000000E+00 0. -1.
         25    2    1    2    0    0  0.11364796357E+03  0.21147342735E+03  0.37808710642E+03  0.46500902634E+03  0.12508662772E+03 0.  0.
          5    1    3    3  502    0 -0.24696948285E+02  0.29079750664E+02  0.31652283652E+02  0.49748473481E+02  0.41800000000E+01 0.  1.
         -5    1    3    3    0  502  0.13834491186E+03  0.18239367669E+03  0.34643482277E+03  0.41526055286E+03  0.41800000000E+01 0.  1.
        -11    1    1    2    0    0 -0.28881801686E+00 -0.92666434719E+02  0.17702872340E+03  0.19981571622E+03  0.00000000000E+00 0.  1.
         11    1    1    2    0    0 -0.11335914555E+03 -0.11880699263E+03  0.30544563925E+03  0.34678874825E+03  0.00000000000E+00 0. -1.
</event>
<event>
 7    1  0.2648915E-009  0.2328289E+03  0.7561462E-02  0.1124664E+00
          1   -1    0    0  501    0  0.00000000000E+00  0.00000000000E+00  0.52096958243E+03  0.52096958243E+03  0.00000000000E+00 0. -1.
         -1   -1    0    0    0  501 -0.00000000000E+00 -0.00000000000E+00 -0.10476346004E+03  0.10476346004E+03  0.00000000000E+00 0.  1.
         25    2    1    2    0    0  0.12007214514E+03  0.16779834151E+03  0.20896947532E+03  0.31920054008E+03  0.12508852752E+03 0.  0.
          5    1    3    3  502    0  0.11846747488E+03  0.60801090678E+02  0.10151199059E+03  0.16749170685E+03  0.41800000000E+01 0.  1.
         -5    1    3    3    0  502  0.16046702589E+01  0.10699725083E+03  0.10745748473E+03  0.15170883322E+03  0.41800000000E+01 0.  1.
        -11    1    1    2    0    0 -0.92631518396E+02 -0.51776840540E+02  0.10802799417E+03  0.15143145955E+03  0.00000000000E+00 0.  1.
         11    1    1    2    0    0 -0.27440626742E+02 -0.11602150097E+03  0.99208652893E+02  0.15510104285E+03  0.00000000000E+00 0. -1.
</event>
<event>
 7    1  0.2648915E-009  0.1012890E+03  0.7561462E-02  0.1277609E+00
         -2   -1    0    0    0  501 -0.00000000000E+00  0.00000000000E+00  0.92909342218E+02  0.92909342218E+02  0.00000000000E+00 0. -1.
          2   -1    0    0  501    0  0.00000000000E+00 -0.00000000000E+00 -0.19899151871E+03  0.19899151871E+03  0.00000000000E+00 0.  1.
         25    2    1    2    0    0  0.49422837479E+02 -0.65344260652E+02 -0.65532392071E+02  0.16326560823E+03  0.12509466478E+03 0.  0.
          5    1    3    3  502    0 -0.49523397655E+01 -0.27578875788E+02  0.33623014414E+02  0.43967028068E+02  0.41800000000E+01 0. -1.
         -5    1    3    3    0  502  0.54375177244E+02 -0.37765384864E+02 -0.99155406485E+02  0.11929858017E+03  0.41800000000E+01 0. -1.
        -11    1    1    2    0    0  0.14135001524E+02  0.34464329529E+02 -0.44292161924E+02  0.57873861854E+02  0.00000000000E+00 0.  1.
         11    1    1    2    0    0 -0.63557839003E+02  0.30879931123E+02  0.37423774997E+01  0.70761390844E+02  0.00000000000E+00 0. -1.
</event>
<event>
 7    1  0.2648915E-009  0.1100907E+03  0.7561462E-02  0.1260402E+00
         -1   -1    0    0    0  501 -0.00000000000E+00  0.00000000000E+00  0.18698338583E+02  0.18698338583E+02  0.00000000000E+00 0.  1.
          1   -1    0    0  501    0  0.00000000000E+00 -0.00000000000E+00 -0.10786562027E+04  0.10786562027E+04  0.00000000000E+00 0. -1.
         25    2    1    2    0    0  0.77864139627E+02  0.47594827007E+02 -0.60906278084E+03  0.62843735489E+03  0.12509175117E+03 0.  0.
          5    1    3    3  502    0  0.69018974625E+02  0.27560919973E+02 -0.59962431505E+03  0.60422679084E+03  0.41800000000E+01 0.  1.
         -5    1    3    3    0  502  0.88451650020E+01  0.20033907034E+02 -0.94384657902E+01  0.24210564046E+02  0.41800000000E+01 0.  1.
        -11    1    1    2    0    0 -0.77005356621E+02 -0.11663133546E+01 -0.34146334516E+03  0.35004057096E+03  0.00000000000E+00 0. -1.
         11    1    1    2    0    0 -0.85878300606E+00 -0.46428513652E+02 -0.10943173807E+03  0.11887661539E+03  0.00000000000E+00 0.  1.
</event>
<event>
 7    1  0.2648915E-009  0.1213402E+03  0.7561462E-02  0.1240902E+00
          2   -1    0    0  501    0  0.00000000000E+00  0.00000000000E+00  0.49258128833E+03  0.49258128833E+03  0.00000000000E+00 0. -1.
         -2   -1    0    0    0  501 -0.00000000000E+00 -0.00000000000E+00 -0.48051678555E+02  0.48051678555E+02  0.00000000000E+00 0.  1.
         25    2    1    2    0    0 -0.83843740056E+02 -0.55128788266E+02  0.31602212125E+03  0.35438301452E+03  0.12509350030E+03 0.  0.
          5    1    3    3  502    0 -0.52632239399E+01 -0.24513714096E+02  0.23820196067E+03  0.23955431570E+03  0.41800000000E+01 0. -1.
         -5    1    3    3    0  502 -0.78580516116E+02 -0.30615074170E+02  0.77820160589E+02  0.11482869882E+03  0.41800000000E+01 0. -1.
        -11    1    1    2    0    0 -0.12134096924E+02  0.31822768124E+02  0.19884210738E+02  0.39437377143E+02  0.00000000000E+00 0. -1.
         11    1    1    2    0    0  0.95977836981E+02  0.23306020142E+02  0.10862327778E+03  0.14681257522E+03  0.00000000000E+00 0.  1.
</event>
<event>
 7    1  0.2648915E-009  0.1119046E+03  0.7561462E-02  0.1257083E+00
          3   -1    0    0  501    0  0.00000000000E+00  0.00000000000E+00  0.15574849635E+03  0.15574849635E+03  0.00000000000E+00 0. -1.
         -3   -1    0    0    0  501 -0.00000000000E+00 -0.00000000000E+00 -0.11012212641E+03  0.11012212641E+03  0.00000000000E+00 0.  1.
         25    2    1    2    0    0 -0.24582074495E+02 -0.29993102846E+02  0.89769814920E+02  0.15877899195E+03  0.12509310137E+03 0.  0.
          5    1    3    3  502    0  0.37889419519E+02 -0.51384017572E+02  0.53021045399E+02  0.83094097435E+02  0.41800000000E+01 0.  1.
         -5    1    3    3    0  502 -0.62471494014E+02  0.21390914726E+02  0.36748769522E+02  0.75684894520E+02  0.41800000000E+01 0.  1.
        -11    1    1    2    0    0  0.14093826993E+02 -0.29797054748E+02 -0.30425786060E+02  0.44857874318E+02  0.00000000000E+00 0.  1.
         11    1    1    2    0    0  0.10488247502E+02  0.59790157594E+02 -0.13717658918E+02  0.62233756491E+02  0.00000000000E+00 0. -1.
</event>
<event>
 7    1  0.2648915E-009  0.1182404E+03  0.7561462E-02  0.1246028E+00
         -2   -1    0    0    0  501 -0.00000000000E+00  0.00000000000E+00  0.36099115692E+03  0.36099115692E+03  0.00000000000E+00 0.  1.
          2   -1    0    0  501    0  0.00000000000E+00 -0.00000000000E+00 -0.72398604114E+02  0.72398604114E+02  0.00000000000E+00 0. -1.
         25    2    1    2    0    0  0.95872220947E+02 -0.79799741661E+01  0.24954453435E+03  0.29525599798E+03  0.12509383271E+03 0.  0.
          5    1    3    3  502    0  0.20898831772E+02 -0.49402316002E+02  0.16991393113E+03  0.17822897180E+03  0.41800000000E+01 0. -1.
         -5    1    3    3    0  502  0.74973389175E+02  0.41422341836E+02  0.79630603217E+02  0.11702702618E+03  0.41800000000E+01 0. -1.
        -11    1    1    2    0    0 -0.18390946352E+02 -0.31007626689E+01  0.55155911655E+02  0.58223845865E+02  0.00000000000E+00 0.  1.
         11    1    1    2    0    0 -0.77481274595E+02  0.11080736835E+02 -0.16107893200E+02  0.79909917188E+02  0.00000000000E+00 0. -1.
</event>
<event>
 7    1  0.2648915E-009  0.1176526E+03  0.7561462E-02  0.1247021E+00
         -1   -1    0    0    0  501 -0.00000000000E+00  0.00000000000E+00  0.57677879937E+02  0.57677879937E+02  0.00000000000E+00 0. -1.
          1   -1    0    0  501    0  0.00000000000E+00 -0.00000000000E+00 -0.35649723172E+03  0.35649723172E+03  0.00000000000E+00 0.  1.
         25    2    1    2    0    0  0.11190294447E+02 -0.47999890905E+02 -0.27684437491E+03  0.30776701087E+03  0.12509401600E+03 0.  0.
          5    1    3    3  502    0 -0.55479176733E+02 -0.36650752157E+02 -0.13220841816E+03  0.14804646202E+03  0.41800000000E+01 0.  1.
         -5    1    3    3    0  502  0.66669471180E+02 -0.11349138749E+02 -0.14463595675E+03  0.15972054884E+03  0.41800000000E+01 0.  1.
        -11    1    1    2    0    0 -0.49806823751E+02  0.31487998009E+02  0.17663639699E+00  0.58925757621E+02  0.00000000000E+00 0. -1.
         11    1    1    2    0    0  0.38616529304E+02  0.16511892896E+02 -0.22151613268E+02  0.47482343170E+02  0.00000000000E+00 0.  1.
</event>
<event>
 7    1  0.2648915E-009  0.1396647E+03  0.7561462E-02  0.1213781E+00
          2   -1    0    0  501    0  0.00000000000E+00  0.00000000000E+00  0.42163322885E+02  0.42163322885E+02  0.00000000000E+00 0. -1.
         -2   -1    0    0    0  501 -0.00000000000E+00 -0.00000000000E+00 -0.63837495541E+03  0.63837495541E+03  0.00000000000E+00 0.  1.
         25    2    1    2    0    0 -0.74625281987E+02 -0.62392639913E+02 -0.16392965985E+03  0.22799760560E+03  0.12509276778E+03 0.  0.
          5    1    3    3  502    0 -0.76747080560E+02 -0.95855536561E+02 -0.14170979820E+03  0.18755675826E+03  0.41800000000E+01 0. -1.
         -5    1    3    3    0  502  0.21217985734E+01  0.33462896648E+02 -0.22219861649E+02  0.40440847332E+02  0.41800000000E+01 0. -1.
        -11    1    1    2    0    0  0.41934549831E+02 -0.10115757986E+02 -0.75074517441E+02  0.86585323226E+02  0.00000000000E+00 0. -1.
         11    1    1    2    0    0  0.32690732156E+02  0.72508397899E+02 -0.35720745523E+03  0.36595534947E+03  0.00000000000E+00 0.  1.
</event>
<event>
 7    1  0.2648915E-009  0.1212357E+03  0.7561462E-02  0.1241072E+00
         -2   -1    0    0    0  501 -0.00000000000E+00  0.00000000000E+00  0.14720420906E+02  0.14720420906E+02  0.00000000000E+00 0.  1.
          2   -1    0    0  501    0  0.00000000000E+00 -0.00000000000E+00 -0.16221295293E+04  0.16221295293E+04  0.00000000000E+00 0. -1.
         25    2    1    2    0    0  0.10410338341E+03  0.14092695368E+02 -0.10183910598E+04  0.10314087096E+04  0.12508979593E+03 0.  0.
          5    1    3    3  502    0  0.81915389869E+02  0.52385243669E+01 -0.99263380874E+03  0.99603058381E+03  0.41800000000E+01 0.  1.
         -5    1    3    3    0  502  0.22187993542E+02  0.88541710015E+01 -0.25757251050E+02  0.35378125772E+02  0.41800000000E+01 0.  1.
        -11    1    1    2    0    0 -0.61420757620E+02  0.35226756292E+02 -0.37794646210E+03  0.38452173155E+03  0.00000000000E+00 0. -1.
         11    1    1    2    0    0 -0.42682625790E+02 -0.49319451660E+02 -0.21107158653E+03  0.22091950909E+03  0.00000000000E+00 0.  1.
</event>
<event>
 7    1  0.2648915E-009  0.1076254E+03  0.7561462E-02  0.1265031E+00
         -1   -1    0    0    0  501 -0.00000000000E+00  0.00000000000E+00  0.12451702464E+03  0.12451702464E+03  0.00000000000E+00 0.  1.
          1   -1    0    0  501    0  0.00000000000E+00 -0.00000000000E+00 -0.11229476894E+03  0.11229476894E+03  0.00000000000E+00 0. -1.
         25    2    1    2    0    0 -0.38888299343E+02 -0.32867042913E+02  0.17495007822E+02  0.13618276189E+03  0.12508847670E+03 0.  0.
          5    1    3    3  502    0 -0.49014723571E+02 -0.64742629812E+02 -0.22024976407E+02  0.84241457891E+02  0.41800000000E+01 0. -1.
         -5    1    3    3    0  502  0.10126424228E+02  0.31875586900E+02  0.39519984229E+02  0.51941304001E+02  0.41800000000E+01 0. -1.
        -11    1    1    2    0    0 -0.12234119743E+02  0.45878492880E+02  0.10918087142E+01  0.47494229556E+02  0.00000000000E+00 0.  1.
         11    1    1    2    0    0  0.51122419087E+02 -0.13011449968E+02 -0.63645608383E+01  0.53134802137E+02  0.00000000000E+00 0. -1.
</event>
<event>
 7    1  0.2648915E-009  0.1166766E+03  0.7561462E-02  0.1248683E+00
          2   -1    0    0  501    0  0.00000000000E+00  0.00000000000E+00  0.35405222338E+03  0.35405222338E+03  0.00000000000E+00 0.  1.
         -2   -1    0    0    0  501 -0.00000000000E+00 -0.00000000000E+00 -0.61998509991E+02  0.61998509991E+02  0.00000000000E+00 0. -1.
         25    2    1    2    0    0  0.99489679485E+02 -0.89840241507E+00  0.14032340838E+03  0.21269168877E+03  0.12509233422E+03 0.  0.
          5    1    3    3  502    0  0.58379142614E+02 -0.16603951107E+02  0.15467847200E+03  0.16621286829E+03  0.41800000000E+01 0. -1.
         -5    1    3    3    0  502  0.41110536871E+02  0.15705548692E+02 -0.14355063618E+02  0.46478820478E+02  0.41800000000E+01 0. -1.
        -11    1    1    2    0    0 -0.78425764411E+02 -0.35631579478E+02  0.12992522896E+03  0.15588705879E+03  0.00000000000E+00 0.  1.
         11    1    1    2    0    0 -0.21063915074E+02  0.36529981893E+02  0.21805076050E+02  0.47471985812E+02  0.00000000000E+00 0. -1.
</event>
<event>
 7    1  0.2648915E-009  0.1174474E+03  0.7561462E-02  0.1247368E+00
          2   -1    0    0  501    0  0.00000000000E+00  0.00000000000E+00  0.36206940929E+03  0.36206940929E+03  0.00000000000E+00 0. -1.
         -2   -1    0    0    0  501 -0.00000000000E+00 -0.00000000000E+00 -0.42551080282E+02  0.42551080282E+02  0.00000000000E+00 0.  1.
         25    2    1    2    0    0 -0.26225677590E+02 -0.41580302210E+02  0.11994146379E+03  0.18013911499E+03  0.12508972106E+03 0.  0.
          5    1    3    3  502    0  0.47043241486E+02 -0.34414996216E+02  0.37029624181E+02  0.69181818429E+02  0.41800000000E+01 0.  1.
         -5    1    3    3    0  502 -0.73268919076E+02 -0.71653059933E+01  0.82911839612E+02  0.11095729656E+03  0.41800000000E+01 0.  1.
        -11    1    1    2    0    0  0.59960032198E+02  0.30060699342E+02  0.13349025177E+03  0.14939376970E+03  0.00000000000E+00 0.  1.
         11    1    1    2    0    0 -0.33734354607E+02  0.11519602868E+02  0.66086613443E+02  0.75087604885E+02  0.00000000000E+00 0. -1.
</event>
<event>
 7    1  0.2648915E-009  0.9586288E+02  0.7561462E-02  0.1289244E+00
         -2   -1    0    0    0  501 -0.00000000000E+00  0.00000000000E+00  0.10393182025E+03  0.10393182025E+03  0.00000000000E+00 0. -1.
          2   -1    0    0  501    0  0.00000000000E+00 -0.00000000000E+00 -0.12606072291E+03  0.12606072291E+03  0.00000000000E+00 0.  1.
         25    2    1    2    0    0  0.83310717248E+01 -0.13284529743E+01  0.23092601825E+02  0.12748157867E+03  0.12508842111E+03 0.  0.
          5    1    3    3  502    0 -0.43707986453E+02  0.35854886120E+02  0.27949816175E+02  0.63203050264E+02  0.41800000000E+01 0. -1.
         -5    1    3    3    0  502  0.52039058178E+02 -0.37183339094E+02 -0.48572143504E+01  0.64278528402E+02  0.41800000000E+01 0. -1.
        -11    1    1    2    0    0  0.15759938014E+02 -0.28520898165E+02 -0.54084245329E+02  0.63142084786E+02  0.00000000000E+00 0.  1.
         11    1    1    2    0    0 -0.24091009738E+02  0.29849351139E+02  0.88627408449E+01  0.39368879701E+02  0.00000000000E+00 0. -1.
</event>
<event>
 7    1  0.2648915E-009  0.5761947E+02  0.7561462E-02  0.1408102E+00
          1   -1    0    0  501    0  0.00000000000E+00  0.00000000000E+00  0.34909979900E+03  0.34909979900E+03  0.00000000000E+00 0. -1.
         -1   -1    0    0    0  501 -0.00000000000E+00 -0.00000000000E+00 -0.36556399379E+02  0.36556399379E+02  0.00000000000E+00 0.  1.
         25    2    1    2    0    0 -0.24766585952E+02  0.10252930178E+02  0.14129425646E+03  0.19060401508E+03  0.12508923735E+03 0.  0.
          5    1    3    3  502    0 -0.99698894585E+01  0.43084964136E+01  0.16296269357E+03  0.16337770268E+03  0.41800000000E+01 0.  1.
         -5    1    3    3    0  502 -0.14796696494E+02  0.59444337641E+01 -0.21668437116E+02  0.27226312401E+02  0.41800000000E+01 0.  1.
        -11    1    1    2    0    0 -0.15417552755E+02 -0.36156784762E+02  0.43389343941E+02  0.58546128693E+02  0.00000000000E+00 0.  1.
         11    1    1    2    0    0  0.40184138707E+02  0.25903854584E+02  0.12785979923E+03  0.13650605461E+03  0.00000000000E+00 0. -1.
</event>
<event>
 7    1  0.2737349E-009  0.1187508E+03  0.7561462E-02  0.1245172E+00
          2   -1    0    0  501    0  0.00000000000E+00  0.00000000000E+00  0.36813268418E+03  0.36813268418E+03  0.00000000000E+00 0. -1.
         -2   -1    0    0    0  501 -0.00000000000E+00 -0.00000000000E+00 -0.47895689464E+02  0.47895689464E+02  0.00000000000E+00 0.  1.
         25    2    1    2    0    0  0.67388256620E+02  0.30644792395E+02  0.20486356733E+03  0.25119184285E+03  0.12509188730E+03 0.  0.
          5    1    3    3  502    0  0.73907811098E+00 -0.36655229070E+02  0.16723358799E+02  0.40512901453E+02  0.41800000000E+01 0.  1.
         -5    1    3    3    0  502  0.66649178509E+02  0.67300021465E+02  0.18814020853E+03  0.21067894140E+03  0.41800000000E+01 0.  1.
        -11    1    1    2    0    0 -0.67680106080E+02 -0.51430464051E+02  0.55653798599E+02  0.10160233605E+03  0.00000000000E+00 0.  1.
         11    1    1    2    0    0  0.29184945982E+00  0.20785671656E+02  0.59719628795E+02  0.63234194751E+02  0.00000000000E+00 0. -1.
</event>
<event>
 7    1  0.2648915E-009  0.1215794E+03  0.7561462E-02  0.1240514E+00
          2   -1    0    0  501    0  0.00000000000E+00  0.00000000000E+00  0.62580789840E+03  0.62580789840E+03  0.00000000000E+00 0. -1.
         -2   -1    0    0    0  501 -0.00000000000E+00 -0.00000000000E+00 -0.28663369770E+02  0.28663369770E+02  0.00000000000E+00 0.  1.
         25    2    1    2    0    0  0.76701218631E+02  0.18922900096E+02  0.35953880405E+03  0.38879103904E+03  0.12509663199E+03 0.  0.
          5    1    3    3  502    0  0.10272404752E+03  0.30248517977E+01  0.33173040878E+03  0.34730953942E+03  0.41800000000E+01 0. -1.
         -5    1    3    3    0  502 -0.26022828890E+02  0.15898048298E+02  0.27808395273E+02  0.41481499620E+02  0.41800000000E+01 0. -1.
        -11    1    1    2    0    0  0.14668448934E+02 -0.99313955456E+01  0.10201741217E+02  0.20441906356E+02  0.00000000000E+00 0.  1.
         11    1    1    2    0    0 -0.91369667565E+02 -0.89915045505E+01  0.22740398337E+03  0.24523832277E+03  0.00000000000E+00 0. -1.
</event>
<event>
 7    1  0.2648915E-009  0.9238387E+02  0.7561462E-02  0.1297179E+00
         -1   -1    0    0    0  501 -0.00000000000E+00  0.00000000000E+00  0.87354253042E+02  0.87354253042E+02  0.00000000000E+00 0.  1.
          1   -1    0    0  501    0  0.00000000000E+00 -0.00000000000E+00 -0.26152507460E+03  0.26152507460E+03  0.00000000000E+00 0. -1.
         25    2    1    2    0    0  0.17750615211E+02 -0.35739120191E+02  0.17791887631E+02  0.13250148348E+03  0.12509085820E+03 0.  0.
          5    1    3    3  502    0 -0.91029885482E+00  0.40129398451E+02  0.33797400204E+02  0.52639661137E+02  0.41800000000E+01 0.  1.
         -5    1    3    3    0  502  0.18660914066E+02 -0.75868518642E+02 -0.16005512573E+02  0.79861822339E+02  0.41800000000E+01 0.  1.
        -11    1    1    2    0    0 -0.36636511532E+02  0.21134892494E+02 -0.18734685408E+03  0.19206186866E+03  0.00000000000E+00 0. -1.
         11    1    1    2    0    0  0.18885896320E+02  0.14604227697E+02 -0.46158551054E+01  0.24315975506E+02  0.00000000000E+00 0.  1.
</event>
<event>
 7    1  0.2648915E-009  0.9597388E+02  0.7561462E-02  0.1288998E+00
          2   -1    0    0  501    0  0.00000000000E+00  0.00000000000E+00  0.47231736232E+03  0.47231736232E+03  0.00000000000E+00 0. -1.
         -2   -1    0    0    0  501 -0.00000000000E+00 -0.00000000000E+00 -0.31480581379E+02  0.31480581379E+02  0.00000000000E+00 0.  1.
         25    2    1    2    0    0  0.48640823946E+02  0.19691306370E+02  0.32076541285E+03  0.34826761260E+03  0.12508478168E+03 0.  0.
          5    1    3    3  502    0  0.64672442526E+02  0.32217431748E+02  0.85207076354E+02  0.11179537554E+03  0.41800000000E+01 0.  1.
         -5    1    3    3    0  502 -0.16031618580E+02 -0.12526125378E+02  0.23555833649E+03  0.23647223706E+03  0.41800000000E+01 0.  1.
        -11    1    1    2    0    0 -0.50123358513E+02 -0.48624284682E+02  0.82539683994E+02  0.10811785959E+03  0.00000000000E+00 0.  1.
         11    1    1    2    0    0  0.14825345671E+01  0.28932978312E+02  0.37531684105E+02  0.47412471508E+02  0.00000000000E+00 0. -1.
</event>
<event>
 7    1  0.2648915E-009  0.2795776E+03  0.7561462E-02  0.1095920E+00
         -4   -1    0    0    0  501 -0.00000000000E+00  0.00000000000E+00  0.20895386922E+04  0.20895386922E+04  0.00000000000E+00 0.  1.
          4   -1    0    0  501    0  0.00000000000E+00 -0.00000000000E+00 -0.50253261566E+02  0.50253261566E+02  0.00000000000E+00 0. -1.
         25    2    1    2    0    0  0.27583577236E+02 -0.25743972521E+03  0.50491060618E+03  0.58104828017E+03  0.12508524215E+03 0.  0.
          5    1    3    3  502    0  0.46122715562E+02 -0.26152623788E+03  0.48648810537E+03  0.55426656679E+03  0.41800000000E+01 0.  1.
         -5    1    3    3    0  502 -0.18539138325E+02  0.40865126680E+01  0.18422500808E+02  0.26781713381E+02  0.41800000000E+01 0.  1.
        -11    1    1    2    0    0 -0.60869455084E+02  0.16445679212E+03  0.93926354488E+03  0.95549313644E+03  0.00000000000E+00 0.  1.
         11    1    1    2    0    0  0.33285877847E+02  0.92982933088E+02  0.59511127957E+03  0.60325053716E+03  0.00000000000E+00 0. -1.
</event>
<event>
 7    1  0.2648915E-009  0.1141358E+03  0.7561462E-02  0.1253097E+00
          4   -1    0    0  501    0  0.00000000000E+00  0.00000000000E+00  0.79768589961E+02  0.79768589961E+02  0.00000000000E+00 0. -1.
         -4   -1    0    0    0  501 -0.00000000000E+00 -0.00000000000E+00 -0.37731386795E+03  0.37731386795E+03  0.00000000000E+00 0.  1.
         25    2    1    2    0    0 -0.45233237047E+02 -0.95334647570E+01  0.93445267587E+01  0.13367981643E+03  0.12508413351E+03 0.  0.
          5    1    3    3  502    0 -0.31028819659E+01  0.53161286367E+02  0.20493050321E+02  0.57211779872E+02  0.41800000000E+01 0. -1.
         -5    1    3    3    0  502 -0.42130355081E+02 -0.62694751124E+02 -0.11148523562E+02  0.76468036560E+02  0.41800000000E+01 0. -1.
        -11    1    1    2    0    0  0.27931523653E+02  0.48837848564E+02 -0.13552709169E+03  0.14674092152E+03  0.00000000000E+00 0. -1.
         11    1    1    2    0    0  0.17301713394E+02 -0.39304383807E+02 -0.17136271305E+03  0.17666171995E+03  0.00000000000E+00 0.  1.
</event>
<event>
 7    1  0.2648915E-009  0.1031422E+03  0.7561462E-02  0.1273824E+00
          2   -1    0    0  501    0  0.00000000000E+00  0.00000000000E+00  0.27963650989E+03  0.27963650989E+03  0.00000000000E+00 0. -1.
         -2   -1    0    0    0  501 -0.00000000000E+00 -0.00000000000E+00 -0.59817735960E+02  0.59817735960E+02  0.00000000000E+00 0.  1.
         25    2    1    2    0    0  0.39598650703E+02 -0.81069017441E+01  0.20279196483E+03  0.24167311171E+03  0.12509011524E+03 0.  0.
          5    1    3    3  502    0  0.71747889349E+02  0.25401831012E+02  0.80833009069E+02  0.11110562722E+03  0.41800000000E+01 0.  1.
         -5    1    3    3    0  502 -0.32149238646E+02 -0.33508732756E+02  0.12195895576E+03  0.13056748449E+03  0.41800000000E+01 0.  1.
        -11    1    1    2    0    0  0.15293581130E+02 -0.17175931766E+02  0.28130144236E+02  0.36334711648E+02  0.00000000000E+00 0. -1.
         11    1    1    2    0    0 -0.54892231833E+02  0.25282833510E+02 -0.11103335134E+02  0.61446422492E+02  0.00000000000E+00 0.  1.
</event>
<event>
 7    1  0.2648915E-009  0.1435027E+03  0.7561462E-02  0.1208692E+00
          2   -1    0    0  501    0  0.00000000000E+00  0.00000000000E+00  0.87328966777E+03  0.87328966777E+03  0.00000000000E+00 0.  1.
         -2   -1    0    0    0  501 -0.00000000000E+00 -0.00000000000E+00 -0.30769320362E+02  0.30769320362E+02  0.00000000000E+00 0. -1.
         25    2    1    2    0    0  0.37143446053E+02  0.11703441598E+03  0.48583249590E+03  0.51648535764E+03  0.12508885033E+03 0.  0.
          5    1    3    3  502    0  0.43810950048E+02  0.44607391346E+02  0.68486370695E+02  0.92828196566E+02  0.41800000000E+01 0.  1.
         -5    1    3    3    0  502 -0.66675039947E+01  0.72427024630E+02  0.41734612520E+03  0.42365716107E+03  0.41800000000E+01 0.  1.
        -11    1    1    2    0    0  0.14862848220E+02 -0.93030334061E+02  0.22941475751E+03  0.24800539969E+03  0.00000000000E+00 0.  1.
         11    1    1    2    0    0 -0.52006294273E+02 -0.24004081915E+02  0.12727309400E+03  0.13956823080E+03  0.00000000000E+00 0. -1.
</event>
<event>
 7    1  0.2648915E-009  0.1017588E+03  0.7561462E-02  0.1276640E+00
         -2   -1    0    0    0  501 -0.00000000000E+00  0.00000000000E+00  0.18751228727E+03  0.18751228727E+03  0.00000000000E+00 0.  1.
          2   -1    0    0  501    0  0.00000000000E+00 -0.00000000000E+00 -0.97626019763E+02  0.97626019763E+02  0.00000000000E+00 0. -1.
         25    2    1    2    0    0  0.62823086477E+02  0.15176072814E+02 -0.22761136908E+01  0.14081878654E+03  0.12509075332E+03 0.  0.
          5    1    3    3  502    0 -0.21951951242E+02  0.15070331014E+02  0.38225660426E+02  0.46772604751E+02  0.41800000000E+01 0.  1.
         -5    1    3    3    0  502  0.84775037720E+02  0.10574180039E+00 -0.40501774116E+02  0.94046181785E+02  0.41800000000E+01 0.  1.
        -11    1    1    2    0    0 -0.14317138534E+01  0.20587736463E+02 -0.74709828867E+01  0.21948127084E+02  0.00000000000E+00 0. -1.
         11    1    1    2    0    0 -0.61391372624E+02 -0.35763809277E+02  0.99633364082E+02  0.12237139341E+03  0.00000000000E+00 0.  1.
</event>
<event>
 7    1  0.2648915E-009  0.1093848E+03  0.7561462E-02  0.1261713E+00
         -4   -1    0    0    0  501 -0.00000000000E+00  0.00000000000E+00  0.79781222203E+03  0.79781222203E+03  0.00000000000E+00 0. -1.
          4   -1    0    0  501    0  0.00000000000E+00 -0.00000000000E+00 -0.17221991323E+02  0.17221991323E+02  0.00000000000E+00 0.  1.
         25    2    1    2    0    0 -0.67332884333E+02 -0.25604232250E+02  0.61085325449E+03  0.62767592140E+03  0.12508425068E+03 0.  0.
          5    1    3    3  502    0  0.16234607928E+02  0.35738557570E+02  0.13554000335E+03  0.14117142735E+03  0.41800000000E+01 0.  1.
         -5    1    3    3    0  502 -0.83567492261E+02 -0.61342789820E+02  0.47531325114E+03  0.48650449405E+03  0.41800000000E+01 0.  1.
        -11    1    1    2    0    0  0.55822930891E+02  0.10908934886E+02  0.98763445479E+02  0.11397114826E+03  0.00000000000E+00 0.  1.
         11    1    1    2    0    0  0.11509953441E+02  0.14695297364E+02  0.70973530739E+02  0.73387143686E+02  0.00000000000E+00 0. -1.
</event>
<event>
 7    1  0.2648915E-009  0.5706238E+02  0.7561462E-02  0.1410590E+00
          3   -1    0    0  501    0  0.00000000000E+00  0.00000000000E+00  0.24046241604E+03  0.24046241604E+03  0.00000000000E+00 0. -1.
         -3   -1    0    0    0  501 -0.00000000000E+00 -0.00000000000E+00 -0.52153398439E+02  0.52153398439E+02  0.00000000000E+00 0.  1.
         25    2    1    2    0    0 -0.28979113372E+02 -0.59388387427E+01  0.10476672026E+03  0.16582380240E+03  0.12508560649E+03 0.  0.
          5    1    3    3  502    0 -0.18937205592E+02  0.21160781981E+02 -0.21729694906E+02  0.36000673471E+02  0.41800000000E+01 0.  1.
         -5    1    3    3    0  502 -0.10041907780E+02 -0.27099620724E+02  0.12649641517E+03  0.12982312893E+03  0.41800000000E+01 0.  1.
        -11    1    1    2    0    0  0.71243144704E+01 -0.20625647417E+02  0.89288387292E+02  0.91916208001E+02  0.00000000000E+00 0. -1.
         11    1    1    2    0    0  0.21854798902E+02  0.26564486160E+02 -0.57460899552E+01  0.34875804073E+02  0.00000000000E+00 0.  1.
</event>
<event>
 7    1  0.2648915E-009  0.1376546E+03  0.7561462E-02  0.1216520E+00
         -2   -1    0    0    0  501 -0.00000000000E+00  0.00000000000E+00  0.12410661776E+02  0.12410661776E+02  0.00000000000E+00 0.  1.
          2   -1    0    0  501    0  0.00000000000E+00 -0.00000000000E+00 -0.17771981220E+04  0.17771981220E+04  0.00000000000E+00 0. -1.
         25    2    1    2    0    0 -0.82718974976E+02  0.18416426296E+02 -0.12816056722E+04  0.12904806406E+04  0.12508233759E+03 0.  0.
          5    1    3    3  502    0 -0.10833412248E+03 -0.13694084592E+02 -0.88027972383E+03  0.88703645620E+03  0.41800000000E+01 0.  1.
         -5    1    3    3    0  502  0.25615147504E+02  0.32110510888E+02 -0.40132594838E+03  0.40344418441E+03  0.41800000000E+01 0.  1.
        -11    1    1    2    0    0  0.10181025532E+03 -0.24483951438E+02 -0.41940712622E+03  0.43228130828E+03  0.00000000000E+00 0.  1.
         11    1    1    2    0    0 -0.19091280348E+02  0.60675251414E+01 -0.63774661804E+02  0.66846834891E+02  0.00000000000E+00 0. -1.
</event>
<event>
 7    1  0.3223221E-009  0.1258151E+03  0.7561462E-02  0.1233801E+00
          1   -1    0    0  501    0  0.00000000000E+00  0.00000000000E+00  0.32741815422E+03  0.32741815422E+03  0.00000000000E+00 0. -1.
         -1   -1    0    0    0  501 -0.00000000000E+00 -0.00000000000E+00 -0.61105149916E+02  0.61105149916E+02  0.00000000000E+00 0.  1.
         25    2    1    2    0    0 -0.14654811374E+02 -0.84313814086E+02  0.10413120641E+03  0.18388686106E+03  0.12508991478E+03 0.  0.
          5    1    3    3  502    0  0.43060615315E+02 -0.82272856970E+02  0.72669543392E+02  0.11798887457E+03  0.41800000000E+01 0. -1.
         -5    1    3    3    0  502 -0.57715426690E+02 -0.20409571165E+01  0.31461663021E+02  0.65897986494E+02  0.41800000000E+01 0. -1.
        -11    1    1    2    0    0  0.30079291374E+02  0.23890920587E+02  0.12775323870E+03  0.13340326029E+03  0.00000000000E+00 0. -1.
         11    1    1    2    0    0 -0.15424480000E+02  0.60422893499E+02  0.34428559191E+02  0.71233182787E+02  0.00000000000E+00 0.  1.
</event>
<event>
 7    1  0.3761443E-009  0.2125532E+03  0.7561462E-02  0.1139560E+00
          2   -1    0    0  501    0  0.00000000000E+00  0.00000000000E+00  0.18435687392E+04  0.18435687392E+04  0.00000000000E+00 0. -1.
         -2   -1    0    0    0  501 -0.00000000000E+00 -0.00000000000E+00 -0.27170047414E+02  0.27170047414E+02  0.00000000000E+00 0.  1.
         25    2    1    2    0    0 -0.19012198235E+03 -0.43240986405E+02  0.98583809373E+03  0.10126898437E+04  0.12509125243E+03 0.  0.
          5    1    3    3  502    0 -0.19347742415E+03 -0.58063321690E+02  0.96810718823E+03  0.98896605770E+03  0.41800000000E+01 0. -1.
         -5    1    3    3    0  502  0.33554418016E+01  0.14822335286E+02  0.17730905507E+02  0.23723786020E+02  0.41800000000E+01 0. -1.
        -11    1    1    2    0    0  0.10975228554E+03  0.60173182449E+02  0.60959710702E+03  0.62231423651E+03  0.00000000000E+00 0. -1.
         11    1    1    2    0    0  0.80369696817E+02 -0.16932196045E+02  0.22096349104E+03  0.23573470640E+03  0.00000000000E+00 0.  1.
</event>
<event>
 7    1  0.2648915E-009  0.1706623E+03  0.7561462E-02  0.1177159E+00
          1   -1    0    0  501    0  0.00000000000E+00  0.00000000000E+00  0.37224059742E+03  0.37224059742E+03  0.00000000000E+00 0. -1.
         -1   -1    0    0    0  501 -0.00000000000E+00 -0.00000000000E+00 -0.85201023267E+02  0.85201023267E+02  0.00000000000E+00 0.  1.
         25    2    1    2    0    0 -0.12523077664E+03  0.39707896265E+02  0.19800728408E+03  0.26854432663E+03  0.12509878646E+03 0.  0.
          5    1    3    3  502    0 -0.11967453680E+03  0.73665587246E+02  0.18300549357E+03  0.23077499123E+03  0.41800000000E+01 0. -1.
         -5    1    3    3    0  502 -0.55562398345E+01 -0.33957690981E+02  0.15001790513E+02  0.37769335398E+02  0.41800000000E+01 0. -1.
        -11    1    1    2    0    0  0.59372310564E+02 -0.71502224956E+02  0.57260910735E+02  0.10916249967E+03  0.00000000000E+00 0.  1.
         11    1    1    2    0    0  0.65858466074E+02  0.31794328691E+02  0.31771379336E+02  0.79734794384E+02  0.00000000000E+00 0. -1.
</event>
<event>
 7    1  0.2648915E-009  0.2502018E+03  0.7561462E-02  0.1113177E+00
         -2   -1    0    0    0  501 -0.00000000000E+00  0.00000000000E+00  0.86191004484E+02  0.86191004484E+02  0.00000000000E+00 0.  1.
          2   -1    0    0  501    0  0.00000000000E+00 -0.00000000000E+00 -0.10998766103E+04  0.10998766103E+04  0.00000000000E+00 0. -1.
         25    2    1    2    0    0 -0.17779833012E+03 -0.16276111130E+03 -0.81938983632E+03  0.86322025526E+03  0.12508429035E+03 0.  0.
          5    1    3    3  502    0 -0.53956530212E+02 -0.77699458951E+02 -0.51629796168E+03  0.52490910709E+03  0.41800000000E+01 0.  1.
         -5    1    3    3    0  502 -0.12384179991E+03 -0.85061652348E+02 -0.30309187464E+03  0.33831114817E+03  0.41800000000E+01 0.  1.
        -11    1    1    2    0    0  0.10623346411E+02 -0.10299799196E+02 -0.22112330107E+01  0.14960979375E+02  0.00000000000E+00 0.  1.
         11    1    1    2    0    0  0.16717498371E+03  0.17306091050E+03 -0.19208453649E+03  0.30788638015E+03  0.00000000000E+00 0. -1.
</event>
<event>
 7    1  0.2648915E-009  0.9176975E+02  0.7561462E-02  0.1298622E+00
         -2   -1    0    0    0  501 -0.00000000000E+00  0.00000000000E+00  0.96256775055E+02  0.96256775055E+02  0.00000000000E+00 0.  1.
          2   -1    0    0  501    0  0.00000000000E+00 -0.00000000000E+00 -0.13715669313E+03  0.13715669313E+03  0.00000000000E+00 0. -1.
         25    2    1    2    0    0  0.14350155683E+02  0.35272200882E+02 -0.28096990035E+02  0.13374127058E+03  0.12508889432E+03 0.  0.
          5    1    3    3  502    0 -0.42923385993E+02  0.10998006821E+02  0.25700008240E+02  0.51393930018E+02  0.41800000000E+01 0. -1.
         -5    1    3    3    0  502  0.57273541677E+02  0.24274194060E+02 -0.53796998276E+02  0.82347340558E+02  0.41800000000E+01 0. -1.
        -11    1    1    2    0    0 -0.41128795451E+02 -0.18569001259E+02  0.24063644477E+02  0.51141417741E+02  0.00000000000E+00 0.  1.
         11    1    1    2    0    0  0.26778639768E+02 -0.16703199623E+02 -0.36866572515E+02  0.48530779867E+02  0.00000000000E+00 0. -1.
</event>
<event>
 7    1  0.2648915E-009  0.9762698E+02  0.7561462E-02  0.1285367E+00
         -1   -1    0    0    0  501 -0.00000000000E+00  0.00000000000E+00  0.17541407873E+03  0.17541407873E+03  0.00000000000E+00 0.  1.
          1   -1    0    0  501    0  0.00000000000E+00 -0.00000000000E+00 -0.11607258029E+03  0.11607258029E+03  0.00000000000E+00 0. -1.
         25    2    1    2    0    0 -0.72585434214E+02 -0.54005050008E+02  0.98941624020E+01  0.15469645620E+03  0.12509160014E+03 0.  0.
          5    1    3    3  502    0 -0.73814666708E+02 -0.60114215724E+02 -0.40651386230E+02  0.10359696692E+03  0.41800000000E+01 0.  1.
         -5    1    3    3    0  502  0.12292324935E+01  0.61091657159E+01  0.50545548632E+02  0.51099489281E+02  0.41800000000E+01 0.  1.
        -11    1    1    2    0    0  0.60352249205E+02  0.34726178100E+02 -0.12523452662E+02  0.70747002029E+02  0.00000000000E+00 0. -1.
         11    1    1    2    0    0  0.12233185009E+02  0.19278871908E+02  0.61970788700E+02  0.66043200782E+02  0.00000000000E+00 0.  1.
</event>
<event>
 7    1  0.2648915E-009  0.1220282E+03  0.7561462E-02  0.1239788E+00
          2   -1    0    0  501    0  0.00000000000E+00  0.00000000000E+00  0.26986109975E+03  0.26986109975E+03  0.00000000000E+00 0. -1.
         -2   -1    0    0    0  501 -0.00000000000E+00 -0.00000000000E+00 -0.10654930874E+03  0.10654930874E+03  0.00000000000E+00 0.  1.
         25    2    1    2    0    0  0.47413390242E+02 -0.36788081696E+02 -0.40573018271E+02  0.14454987029E+03  0.12508837939E+03 0.  0.
          5    1    3    3  502    0 -0.39089095891E+02 -0.27512397929E+02 -0.30534423410E+02  0.56874536221E+02  0.41800000000E+01 0. -1.
         -5    1    3    3    0  502  0.86502486133E+02 -0.92756837667E+01 -0.10038594861E+02  0.87675334065E+02  0.41800000000E+01 0. -1.
        -11    1    1    2    0    0  0.27485454513E+02  0.12871881621E+02  0.41194998486E+02  0.51167992402E+02  0.00000000000E+00 0. -1.
         11    1    1    2    0    0 -0.74898844755E+02  0.23916200075E+02  0.16268981079E+03  0.18069254580E+03  0.00000000000E+00 0.  1.
</event>
<event>
 7    1  0.2648915E-009  0.1087617E+03  0.7561462E-02  0.1262880E+00
         -1   -1    0    0    0  501 -0.00000000000E+00  0.00000000000E+00  0.25333674926E+03  0.25333674926E+03  0.00000000000E+00 0.  1.
          1   -1    0    0  501    0  0.00000000000E+00 -0.00000000000E+00 -0.55264113110E+02  0.55264113110E+02  0.00000000000E+00 0. -1.
         25    2    1    2    0    0  0.26707441043E+02 -0.35382662531E+01  0.59211410127E+02  0.14099223583E+03  0.12508801997E+03 0.  0.
          5    1    3    3  502    0 -0.22729168557E+02 -0.53026725288E+02  0.25088949409E+02  0.63050586678E+02  0.41800000000E+01 0. -1.
         -5    1    3    3    0  502  0.49436609600E+02  0.49488459034E+02  0.34122460719E+02  0.77941649148E+02  0.41800000000E+01 0. -1.
        -11    1    1    2    0    0  0.63853966165E+01 -0.36844603314E+02  0.83611902813E+02  0.91592840197E+02  0.00000000000E+00 0.  1.
         11    1    1    2    0    0 -0.33092837660E+02  0.40382869567E+02  0.55249323211E+02  0.76015786348E+02  0.00000000000E+00 0. -1.
</event>
<event>
 7    1  0.2648915E-009  0.1118912E+03  0.7561462E-02  0.1257107E+00
         -1   -1    0    0    0  501 -0.00000000000E+00  0.00000000000E+00  0.52097173157E+02  0.52097173157E+02  0.00000000000E+00 0.  1.
          1   -1    0    0  501    0  0.00000000000E+00 -0.00000000000E+00 -0.33273877782E+03  0.33273877782E+03  0.00000000000E+00 0. -1.
         25    2    1    2    0    0 -0.38961390165E+01 -0.39155207468E+02 -0.24420603629E+03  0.27718747130E+03  0.12509194985E+03 0.  0.
          5    1    3    3  502    0  0.60168362477E+02 -0.25051233368E+02 -0.11646376867E+03  0.13352557039E+03  0.41800000000E+01 0.  1.
         -5    1    3    3    0  502 -0.64064501494E+02 -0.14103974100E+02 -0.12774226762E+03  0.14366190091E+03  0.41800000000E+01 0.  1.
        -11    1    1    2    0    0  0.24158659229E+02 -0.19269917612E+02 -0.33736399704E+02  0.45750576013E+02  0.00000000000E+00 0. -1.
         11    1    1    2    0    0 -0.20262520212E+02  0.58425125079E+02 -0.26991686711E+01  0.61897903659E+02  0.00000000000E+00 0.  1.
</event>
<event>
 7    1  0.2648915E-009  0.8124863E+02  0.7561462E-02  0.1325545E+00
         -1   -1    0    0    0  501 -0.00000000000E+00  0.00000000000E+00  0.28795870108E+02  0.28795870108E+02  0.00000000000E+00 0.  1.
          1   -1    0    0  501    0  0.00000000000E+00 -0.00000000000E+00 -0.54023490442E+03  0.54023490442E+03  0.00000000000E+00 0. -1.
         25    2    1    2    0    0 -0.53726531389E+02  0.69622144031E+01 -0.21788366991E+03  0.25701507214E+03  0.12509372923E+03 0.  0.
          5    1    3    3  502    0 -0.41346775443E+02  0.26667403406E+02 -0.22652308462E+03  0.23184237428E+03  0.41800000000E+01 0.  1.
         -5    1    3    3    0  502 -0.12379755946E+02 -0.19705189003E+02  0.86394147193E+01  0.25172697861E+02  0.41800000000E+01 0.  1.
        -11    1    1    2    0    0 -0.92904722755E+01 -0.22696222947E+02 -0.22482766190E+02  0.33270199680E+02  0.00000000000E+00 0.  1.
         11    1    1    2    0    0  0.63017003664E+02  0.15734008544E+02 -0.27107259822E+03  0.27874550271E+03  0.00000000000E+00 0. -1.
</event>
<event>
 7    1  0.2648915E-009  0.8585362E+02  0.7561462E-02  0.1313215E+00
         -1   -1    0    0    0  501 -0.00000000000E+00  0.00000000000E+00  0.20510782022E+03  0.20510782022E+03  0.00000000000E+00 0.  1.
          1   -1    0    0  501    0  0.00000000000E+00 -0.00000000000E+00 -0.81115475062E+02  0.81115475062E+02  0.00000000000E+00 0. -1.
         25    2    1    2    0    0  0.22349969926E+02 -0.23536921749E+02  0.13576316340E+03  0.18744466057E+03  0.12510138447E+03 0.  0.
          5    1    3    3  502    0 -0.23500991957E+02 -0.46975325788E+01  0.13553163074E+03  0.13769770792E+03  0.41800000000E+01 0. -1.
         -5    1    3    3    0  502  0.45850961883E+02 -0.18839389170E+02  0.23153265800E+00  0.49746952643E+02  0.41800000000E+01 0. -1.
        -11    1    1    2    0    0 -0.58341655784E+02  0.18995063913E+02 -0.28573760413E+01  0.61422519084E+02  0.00000000000E+00 0. -1.
         11    1    1    2    0    0  0.35991685859E+02  0.45418578360E+01 -0.89134421987E+01  0.37356115636E+02  0.00000000000E+00 0.  1.
</event>
<event>
 7    1  0.2648915E-009  0.9857117E+02  0.7561462E-02  0.1283330E+00
          1   -1    0    0  501    0  0.00000000000E+00  0.00000000000E+00  0.44245953863E+03  0.44245953863E+03  0.00000000000E+00 0. -1.
         -1   -1    0    0    0  501 -0.00000000000E+00 -0.00000000000E+00 -0.45630939917E+02  0.45630939917E+02  0.00000000000E+00 0.  1.
         25    2    1    2    0    0  0.10058708709E+02 -0.86175940399E+02  0.26774654038E+03  0.30799686245E+03  0.12508551903E+03 0.  0.
          5    1    3    3  502    0  0.18358950676E+02 -0.53213868261E+02  0.23142000113E+02  0.61006486658E+02  0.41800000000E+01 0.  1.
         -5    1    3    3    0  502 -0.83002419672E+01 -0.32962072139E+02  0.24460454027E+03  0.24699037580E+03  0.41800000000E+01 0.  1.
        -11    1    1    2    0    0 -0.17940261035E+02 -0.18818009399E+01  0.73459651562E+02  0.75642015761E+02  0.00000000000E+00 0. -1.
         11    1    1    2    0    0  0.78815523265E+01  0.88057741339E+02  0.55622406771E+02  0.10445160033E+03  0.00000000000E+00 0.  1.
</event>
<event>
 7    1  0.2648915E-009  0.6365398E+02  0.7561462E-02  0.1383107E+00
         -2   -1    0    0    0  501 -0.00000000000E+00  0.00000000000E+00  0.38307190966E+02  0.38307190966E+02  0.00000000000E+00 0.  1.
          2   -1    0    0  501    0  0.00000000000E+00 -0.00000000000E+00 -0.32529643677E+03  0.32529643677E+03  0.00000000000E+00 0. -1.
         25    2    1    2    0    0 -0.27161764119E+02  0.75353108766E+01 -0.16875014627E+03  0.21194007839E+03  0.12508973826E+03 0.  0.
          5    1    3    3  502    0  0.27035672799E+02 -0.31302193543E+01 -0.15141182485E+03  0.15389522079E+03  0.41800000000E+01 0. -1.
         -5    1    3    3    0  502 -0.54197436918E+02  0.10665530231E+02 -0.17338321421E+02  0.58044857595E+02  0.41800000000E+01 0. -1.
        -11    1    1    2    0    0  0.21074446916E+02 -0.20907021546E+02 -0.12968497948E+03  0.13303920387E+03  0.00000000000E+00 0. -1.
         11    1    1    2    0    0  0.60873172029E+01  0.13371710669E+02  0.11445879948E+02  0.18624345485E+02  0.00000000000E+00 0.  1.
</event>
<event>
 7    1  0.2648915E-009  0.9477444E+02  0.7561462E-02  0.1291685E+00
          2   -1    0    0  501    0  0.00000000000E+00  0.00000000000E+00  0.25116285420E+03  0.25116285420E+03  0.00000000000E+00 0. -1.
         -2   -1    0    0    0  501 -0.00000000000E+00 -0.00000000000E+00 -0.55962819310E+02  0.55962819310E+02  0.00000000000E+00 0.  1.
         25    2    1    2    0    0 -0.48761972704E+01 -0.29567724226E+02  0.58393565539E+02  0.14126346086E+03  0.12509008458E+03 0.  0.
          5    1    3    3  502    0 -0.19056014408E+02 -0.60470870176E+02  0.78925998679E+02  0.10132444667E+03  0.41800000000E+01 0.  1.
         -5    1    3    3    0  502  0.14179817138E+02  0.30903145950E+02 -0.20532433140E+02  0.39939014188E+02  0.41800000000E+01 0.  1.
        -11    1    1    2    0    0 -0.40088711316E+02  0.23256511804E+02  0.86218308821E+02  0.97885478455E+02  0.00000000000E+00 0. -1.
         11    1    1    2    0    0  0.44964908587E+02  0.63112124220E+01  0.50588160525E+02  0.67976734195E+02  0.00000000000E+00 0.  1.
</event>
<event>
 7    1  0.2648915E-009  0.1391841E+03  0.7561462E-02  0.1214431E+00
          2   -1    0    0  501    0  0.00000000000E+00  0.00000000000E+00  0.54484579628E+03  0.54484579628E+03  0.00000000000E+00 0. -1.
         -2   -1    0    0    0  501 -0.00000000000E+00 -0.00000000000E+00 -0.45767836055E+02  0.45767836055E+02  0.00000000000E+00 0.  1.
         25    2    1    2    0    0 -0.11288654968E+03  0.17803882192E+02  0.29985839898E+03  0.34441524149E+03  0.12508576184E+03 0.  0.
          5    1    3    3  502    0  0.18570811887E+02  0.13266866560E+02  0.84935756851E+01  0.24708258343E+02  0.41800000000E+01 0.  1.
         -5    1    3    3    0  502 -0.13145736157E+03  0.45370156321E+01  0.29136482329E+03  0.31970698315E+03  0.41800000000E+01 0.  1.
        -11    1    1    2    0    0  0.10355942568E+03 -0.30364051262E+02  0.10459249911E+03  0.15028679625E+03  0.00000000000E+00 0.  1.
         11    1    1    2    0    0  0.93271239970E+01  0.12560169070E+02  0.94627062135E+02  0.95911594594E+02  0.00000000000E+00 0. -1.
</event>
<event>
 7    1  0.2648915E-009  0.1152279E+03  0.7561462E-02  0.1251184E+00
         -1   -1    0    0    0  501 -0.00000000000E+00  0.00000000000E+00  0.10642325396E+03  0.10642325396E+03  0.00000000000E+00 0.  1.
          1   -1    0    0  501    0  0.00000000000E+00 -0.00000000000E+00 -0.16217997312E+03  0.16217997312E+03  0.00000000000E+00 0. -1.
         25    2    1    2    0    0 -0.74046217797E+02  0.91659034715E+01 -0.37852136684E+02  0.15048795884E+03  0.12508791048E+03 0.  0.
          5    1    3    3  502    0  0.22678032646E+02 -0.20300282257E+02 -0.38539196948E+02  0.49286273199E+02  0.41800000000E+01 0. -1.
         -5    1    3    3    0  502 -0.96724250443E+02  0.29466185729E+02  0.68706026438E+00  0.10120168564E+03  0.41800000000E+01 0. -1.
        -11    1    1    2    0    0  0.42586074074E+02  0.27136006979E+02 -0.40782168074E+02  0.64908565018E+02  0.00000000000E+00 0. -1.
         11    1    1    2    0    0  0.31460143723E+02 -0.36301910451E+02  0.22877585593E+02  0.53206703225E+02  0.00000000000E+00 0.  1.
</event>
<event>
 7    1  0.2648915E-009  0.1665627E+03  0.7561462E-02  0.1181481E+00
         -2   -1    0    0    0  501 -0.00000000000E+00  0.00000000000E+00  0.30807786951E+03  0.30807786951E+03  0.00000000000E+00 0.  1.
          2   -1    0    0  501    0  0.00000000000E+00 -0.00000000000E+00 -0.10147256203E+03  0.10147256203E+03  0.00000000000E+00 0. -1.
         25    2    1    2    0    0 -0.96738744230E+02  0.91623838959E+02  0.15704675942E+03  0.24096701580E+03  0.12509238808E+03 0.  0.
          5    1    3    3  502    0 -0.19852479092E+01  0.87577982243E+02  0.79932039571E+02  0.11866106157E+03  0.41800000000E+01 0.  1.
         -5    1    3    3    0  502 -0.94753496321E+02  0.40458567158E+01  0.77114719847E+02  0.12230595422E+03  0.41800000000E+01 0.  1.
        -11    1    1    2    0    0  0.39268229086E+02 -0.83733101106E+02  0.59156797067E+02  0.10978502938E+03  0.00000000000E+00 0. -1.
         11    1    1    2    0    0  0.57470515144E+02 -0.78907378537E+01 -0.95982490030E+01  0.58798386361E+02  0.00000000000E+00 0.  1.
</event>
<event>
 7    1  0.2648915E-009  0.9213246E+02  0.7561462E-02  0.1297768E+00
          1   -1    0    0  501    0  0.00000000000E+00  0.00000000000E+00  0.25114419023E+03  0.25114419023E+03  0.00000000000E+00 0.  1.
         -1   -1    0    0    0  501 -0.00000000000E+00 -0.00000000000E+00 -0.62620553652E+02  0.62620553652E+02  0.00000000000E+00 0. -1.
         25    2    1    2    0    0  0.10581622050E+02  0.29650334133E+02  0.17554015260E+03  0.21783235191E+03  0.12508187448E+03 0.  0.
          5    1    3    3  502    0 -0.19003676117E+02 -0.41274567200E+02  0.10034937480E+03  0.11023701296E+03  0.41800000000E+01 0. -1.
         -5    1    3    3    0  502  0.29585298168E+02  0.70924901333E+02  0.75190777802E+02  0.10759533895E+03  0.41800000000E+01 0. -1.
        -11    1    1    2    0    0 -0.28788541471E+02 -0.23858257916E+01  0.42786995679E+02  0.51625568122E+02  0.00000000000E+00 0.  1.
         11    1    1    2    0    0  0.18206919421E+02 -0.27264508342E+02 -0.29803511704E+02  0.44306823851E+02  0.00000000000E+00 0. -1.
</event>
<event>
 7    1  0.2648915E-009  0.1007150E+03  0.7561462E-02  0.1278799E+00
          2   -1    0    0  501    0  0.00000000000E+00  0.00000000000E+00  0.10629529460E+04  0.10629529460E+04  0.00000000000E+00 0. -1.
         -2   -1    0    0    0  501 -0.00000000000E+00 -0.00000000000E+00 -0.17641691196E+02  0.17641691196E+02  0.00000000000E+00 0.  1.
         25    2    1    2    0    0  0.77768876656E+02 -0.43022877401E+01  0.69096327270E+03  0.70650123641E+03  0.12508894824E+03 0.  0.
          5    1    3    3  502    0  0.28861461957E+02  0.92558021056E+01  0.61057313065E+03  0.61133924635E+03  0.41800000000E+01 0.  1.
         -5    1    3    3    0  502  0.48907414700E+02 -0.13558089846E+02  0.80390142053E+02  0.95161990060E+02  0.41800000000E+01 0.  1.
        -11    1    1    2    0    0 -0.20579203817E+02  0.45158001949E+02  0.15007505113E+03  0.15806729498E+03  0.00000000000E+00 0. -1.
         11    1    1    2    0    0 -0.57189672840E+02 -0.40855714209E+02  0.20427293101E+03  0.21602610585E+03  0.00000000000E+00 0.  1.
</event>
<event>
 7    1  0.2648915E-009  0.1054251E+03  0.7561462E-02  0.1269284E+00
         -2   -1    0    0    0  501 -0.00000000000E+00  0.00000000000E+00  0.69496342774E+02  0.69496342774E+02  0.00000000000E+00 0.  1.
          2   -1    0    0  501    0  0.00000000000E+00 -0.00000000000E+00 -0.23144212539E+03  0.23144212539E+03  0.00000000000E+00 0. -1.
         25    2    1    2    0    0 -0.50361383016E+02  0.10154603104E+02 -0.42020997838E+02  0.14161150107E+03  0.12509463662E+03 0.  0.
          5    1    3    3  502    0 -0.71630119058E+02  0.40907168132E+02  0.33604007925E+01  0.82662174266E+02  0.41800000000E+01 0.  1.
         -5    1    3    3    0  502  0.21268736042E+02 -0.30752565028E+02 -0.45381398630E+02  0.58949326801E+02  0.41800000000E+01 0.  1.
        -11    1    1    2    0    0  0.57024653859E+02  0.19478474400E+02 -0.11316781908E+03  0.12821145576E+03  0.00000000000E+00 0. -1.
         11    1    1    2    0    0 -0.66632708432E+01 -0.29633077504E+02 -0.67569657047E+01  0.31115511344E+02  0.00000000000E+00 0.  1.
</event>
<event>
 7    1  0.2648915E-009  0.1457396E+03  0.7561462E-02  0.1205808E+00
          2   -1    0    0  501    0  0.00000000000E+00  0.00000000000E+00  0.10352108989E+04  0.10352108989E+04  0.00000000000E+00 0. -1.
         -2   -1    0    0    0  501 -0.00000000000E+00 -0.00000000000E+00 -0.21823639635E+02  0.21823639635E+02  0.00000000000E+00 0.  1.
         25    2    1    2    0    0 -0.35446031710E+02 -0.95502355249E+02  0.46476758051E+03  0.49196937787E+03  0.12509134202E+03 0.  0.
          5    1    3    3  502    0  0.44417727718E+02 -0.54661188085E+02  0.23154423998E+03  0.24205575285E+03  0.41800000000E+01 0. -1.
         -5    1    3    3    0  502 -0.79863759428E+02 -0.40841167164E+02  0.23322334052E+03  0.24991362502E+03  0.41800000000E+01 0. -1.
        -11    1    1    2    0    0  0.62484058564E+02  0.71657760704E+02  0.45313959002E+03  0.46300602619E+03  0.00000000000E+00 0. -1.
         11    1    1    2    0    0 -0.27038026855E+02  0.23844594545E+02  0.95480088786E+02  0.10205913452E+03  0.00000000000E+00 0.  1.
</event>
<event>
 7    1  0.2648915E-009  0.1123725E+03  0.7561462E-02  0.1256238E+00
          2   -1    0    0  501    0  0.00000000000E+00  0.00000000000E+00  0.37568881388E+02  0.37568881388E+02  0.00000000000E+00 0. -1.
         -2   -1    0    0    0  501 -0.00000000000E+00 -0.00000000000E+00 -0.43605203373E+03  0.43605203373E+03  0.00000000000E+00 0.  1.
         25    2    1    2    0    0  0.13308105343E+02  0.57015629946E+02 -0.28795200135E+03  0.31936202205E+03  0.12509139988E+03 0.  0.
          5    1    3    3  502    0  0.66873257810E+02  0.49301354864E+02 -0.18908513379E+03  0.20657520766E+03  0.41800000000E+01 0.  1.
         -5    1    3    3    0  502 -0.53565152468E+02  0.77142750812E+01 -0.98866867561E+02  0.11278681439E+03  0.41800000000E+01 0.  1.
        -11    1    1    2    0    0 -0.31134308239E+02 -0.40536382054E+01 -0.88995098665E+02  0.94371101078E+02  0.00000000000E+00 0.  1.
         11    1    1    2    0    0  0.17826202896E+02 -0.52961991740E+02 -0.21536052325E+02  0.59887791982E+02  0.00000000000E+00 0. -1.
</event>
<event>
 7    1  0.2648915E-009  0.1351398E+03  0.7561462E-02  0.1220023E+00
          1   -1    0    0  501    0  0.00000000000E+00  0.00000000000E+00  0.15408918921E+03  0.15408918921E+03  0.00000000000E+00 0. -1.
         -1   -1    0    0    0  501 -0.00000000000E+00 -0.00000000000E+00 -0.15607046664E+03  0.15607046664E+03  0.00000000000E+00 0.  1.
         25    2    1    2    0    0 -0.40526103680E+02 -0.91686744847E+02  0.45681124093E+02  0.16668243717E+03  0.12508974979E+03 0.  0.
          5    1    3    3  502    0 -0.25912632637E+02 -0.10897815655E+03  0.70822001639E+02  0.13259310484E+03  0.41800000000E+01 0.  1.
         -5    1    3    3    0  502 -0.14613471042E+02  0.17291411705E+02 -0.25140877546E+02  0.34089332327E+02  0.41800000000E+01 0.  1.
        -11    1    1    2    0    0 -0.17691025069E+02  0.71327211005E+02 -0.29451491774E+02  0.79170283348E+02  0.00000000000E+00 0. -1.
         11    1    1    2    0    0  0.58217128748E+02  0.20359533843E+02 -0.18210909744E+02  0.64306935331E+02  0.00000000000E+00 0.  1.
</event>
<event>
 7    1  0.2648915E-009  0.1106686E+03  0.7561462E-02  0.1259337E+00
         -3   -1    0    0    0  501 -0.00000000000E+00  0.00000000000E+00  0.89082151802E+03  0.89082151802E+03  0.00000000000E+00 0.  1.
          3   -1    0    0  501    0  0.00000000000E+00 -0.00000000000E+00 -0.23470145772E+02  0.23470145772E+02  0.00000000000E+00 0. -1.
         25    2    1    2    0    0  0.33167983445E+02 -0.84884619727E+00  0.75424567059E+03  0.76526804752E+03  0.12509123585E+03 0.  0.
          5    1    3    3  502    0  0.69409877425E+02  0.33910195524E+02  0.51451970276E+03  0.52030340127E+03  0.41800000000E+01 0. -1.
         -5    1    3    3    0  502 -0.36241893980E+02 -0.34759041721E+02  0.23972596783E+03  0.24496464625E+03  0.41800000000E+01 0. -1.
        -11    1    1    2    0    0  0.22956429996E+02  0.23691295434E+02  0.59907902364E+02  0.68390291147E+02  0.00000000000E+00 0.  1.
         11    1    1    2    0    0 -0.56124413441E+02 -0.22842449237E+02  0.53197799296E+02  0.80633325128E+02  0.00000000000E+00 0. -1.
</event>
<event>
 7    1  0.2648915E-009  0.9503055E+02  0.7561462E-02  0.1291107E+00
          2   -1    0    0  501    0  0.00000000000E+00  0.00000000000E+00  0.13938215678E+03  0.13938215678E+03  0.00000000000E+00 0. -1.
         -2   -1    0    0    0  501 -0.00000000000E+00 -0.00000000000E+00 -0.98128606771E+02  0.98128606771E+02  0.00000000000E+00 0.  1.
         25    2    1    2    0    0 -0.19590862863E+02  0.37728731682E+02  0.44387582541E+02  0.13937444437E+03  0.12509084362E+03 0.  0.
          5    1    3    3  502    0  0.49817929188E+02  0.29545551321E+02  0.32340539403E+01  0.58160959211E+02  0.41800000000E+01 0.  1.
         -5    1    3    3    0  502 -0.69408792051E+02  0.81831803606E+01  0.41153528601E+02  0.81213485156E+02  0.41800000000E+01 0.  1.
        -11    1    1    2    0    0  0.13570304334E+02 -0.48103284276E+02 -0.37014969030E+02  0.62194750986E+02  0.00000000000E+00 0.  1.
         11    1    1    2    0    0  0.60205585286E+01  0.10374552594E+02  0.33880936499E+02  0.35941568198E+02  0.00000000000E+00 0. -1.
</event>
<event>
 7    1  0.2648915E-009  0.1186557E+03  0.7561462E-02  0.1245331E+00
          2   -1    0    0  501    0  0.00000000000E+00  0.00000000000E+00  0.84265000389E+03  0.84265000389E+03  0.00000000000E+00 0. -1.
         -2   -1    0    0    0  501 -0.00000000000E+00 -0.00000000000E+00 -0.17516259719E+02  0.17516259719E+02  0.00000000000E+00 0.  1.
         25    2    1    2    0    0 -0.33320459203E+01  0.49352300444E+02  0.39758057342E+03  0.41971906067E+03  0.12508807073E+03 0.  0.
          5    1    3    3  502    0  0.46728931103E+02 -0.16473194328E+02  0.18544116601E+03  0.19199181645E+03  0.41800000000E+01 0. -1.
         -5    1    3    3    0  502 -0.50060977023E+02  0.65825494772E+02  0.21213940742E+03  0.22772724422E+03  0.41800000000E+01 0. -1.
        -11    1    1    2    0    0  0.40376531827E+02  0.31819085859E+01  0.13661636164E+03  0.14249357576E+03  0.00000000000E+00 0.  1.
         11    1    1    2    0    0 -0.37044485907E+02 -0.52534209030E+02  0.29093680910E+03  0.29795362717E+03  0.00000000000E+00 0. -1.
</event>
<event>
 7    1  0.2648915E-009  0.1109636E+03  0.7561462E-02  0.1258796E+00
         -1   -1    0    0    0  501 -0.00000000000E+00  0.00000000000E+00  0.85573530069E+03  0.85573530069E+03  0.00000000000E+00 0.  1.
          1   -1    0    0  501    0  0.00000000000E+00 -0.00000000000E+00 -0.21437796840E+02  0.21437796840E+02  0.00000000000E+00 0. -1.
         25    2    1    2    0    0  0.23627606407E+02  0.71320141626E+01  0.69600595163E+03  0.70758821702E+03  0.12509065014E+03 0.  0.
          5    1    3    3  502    0  0.72519213206E+02 -0.71718471472E+01  0.48605313953E+03  0.49150340642E+03  0.41800000000E+01 0. -1.
         -5    1    3    3    0  502 -0.48891606798E+02  0.14303861310E+02  0.20995281210E+03  0.21608481060E+03  0.41800000000E+01 0. -1.
        -11    1    1    2    0    0 -0.37458156591E+02 -0.44388535150E+02  0.88878818281E+02  0.10617391340E+03  0.00000000000E+00 0.  1.
         11    1    1    2    0    0  0.13830550184E+02  0.37256520987E+02  0.49412733944E+02  0.63410967113E+02  0.00000000000E+00 0. -1.
</event>
<event>
 7    1  0.2648915E-009  0.6808892E+02  0.7561462E-02  0.1366715E+00
          1   -1    0    0  501    0  0.00000000000E+00  0.00000000000E+00  0.25726800176E+03  0.25726800176E+03  0.00000000000E+00 0. -1.
         -1   -1    0    0    0  501 -0.00000000000E+00 -0.00000000000E+00 -0.54151114097E+02  0.54151114097E+02  0.00000000000E+00 0.  1.
         25    2    1    2    0    0  0.34362271681E+02 -0.14985553770E+02  0.77872289067E+02  0.15205259443E+03  0.12510222034E+03 0.  0.
          5    1    3    3  502    0  0.32313995187E+02  0.21373954092E+02  0.10130857901E+03  0.10854464878E+03  0.41800000000E+01 0. -1.
         -5    1    3    3    0  502  0.20482764940E+01 -0.36359507861E+02 -0.23436289943E+02  0.43507945651E+02  0.41800000000E+01 0. -1.
        -11    1    1    2    0    0 -0.79612547017E+01 -0.17183303485E+02 -0.74110250812E+01  0.20336439901E+02  0.00000000000E+00 0.  1.
         11    1    1    2    0    0 -0.26401016980E+02  0.32168857254E+02  0.13265562368E+03  0.13903008152E+03  0.00000000000E+00 0. -1.
</event>
<event>
 7    1  0.2648915E-009  0.1714923E+03  0.7561462E-02  0.1176301E+00
          1   -1    0    0  501    0  0.00000000000E+00  0.00000000000E+00  0.16132096036E+04  0.16132096036E+04  0.00000000000E+00 0.  1.
         -1   -1    0    0    0  501 -0.00000000000E+00 -0.00000000000E+00 -0.23931958286E+02  0.23931958286E+02  0.00000000000E+00 0. -1.
         25    2    1    2    0    0 -0.44457295196E+02  0.15249182420E+03  0.91690550300E+03  0.93893321485E+03  0.12509865300E+03 0.  0.
          5    1    3    3  502    0 -0.35284102804E+02  0.14309127490E+03  0.91268639154E+03  0.92451825431E+03  0.41800000000E+01 0.  1.
         -5    1    3    3    0  502 -0.91731923921E+01  0.94005492968E+01  0.42191114586E+01  0.14414960536E+02  0.41800000000E+01 0.  1.
        -11    1    1    2    0    0  0.58282009190E+02 -0.45650336749E+02  0.36693068110E+03  0.37432455246E+03  0.00000000000E+00 0.  1.
         11    1    1    2    0    0 -0.13824713994E+02 -0.10684148745E+03  0.30544146119E+03  0.32388379455E+03  0.00000000000E+00 0. -1.
</event>
<event>
 7    1  0.2648915E-009  0.1015505E+03  0.7561462E-02  0.1277069E+00
          1   -1    0    0  501    0  0.00000000000E+00  0.00000000000E+00  0.25198803812E+03  0.25198803812E+03  0.00000000000E+00 0. -1.
         -1   -1    0    0    0  501 -0.00000000000E+00 -0.00000000000E+00 -0.56847793093E+02  0.56847793093E+02  0.00000000000E+00 0.  1.
         25    2    1    2    0    0  0.94810427686E+01 -0.28918895629E+02  0.57514663208E+02  0.14100524801E+03  0.12509336828E+03 0.  0.
          5    1    3    3  502    0 -0.32342708101E+02 -0.50407798385E+02  0.69956330962E+02  0.92186536691E+02  0.41800000000E+01 0. -1.
         -5    1    3    3    0  502  0.41823750870E+02  0.21488902756E+02 -0.12441667755E+02  0.48818711321E+02  0.41800000000E+01 0. -1.
        -11    1    1    2    0    0  0.20567264943E+02  0.53319913439E+02  0.76732149078E+02  0.95675745404E+02  0.00000000000E+00 0.  1.
         11    1    1    2    0    0 -0.30048307711E+02 -0.24401017810E+02  0.60893432737E+02  0.72154837793E+02  0.00000000000E+00 0. -1.
</event>
<event>
 7    1  0.2648915E-009  0.8679916E+02  0.7561462E-02  0.1310793E+00
         -2   -1    0    0    0  501 -0.00000000000E+00  0.00000000000E+00  0.32948488238E+02  0.32948488238E+02  0.00000000000E+00 0.  1.
          2   -1    0    0  501    0  0.00000000000E+00 -0.00000000000E+00 -0.61870702931E+03  0.61870702931E+03  0.00000000000E+00 0. -1.
         25    2    1    2    0    0  0.78858709856E+02  0.21384621636E+02 -0.42655342636E+03  0.45196356314E+03  0.12508892316E+03 0.  0.
          5    1    3    3  502    0  0.82752271706E+02  0.22516186982E+02 -0.43405553655E+03  0.44246649405E+03  0.41800000000E+01 0. -1.
         -5    1    3    3    0  502 -0.38935618499E+01 -0.11315653455E+01  0.75021101843E+01  0.94970690862E+01  0.41800000000E+01 0. -1.
        -11    1    1    2    0    0 -0.26166476302E+02 -0.99441846604E+01 -0.13950541150E+03  0.14228608902E+03  0.00000000000E+00 0. -1.
         11    1    1    2    0    0 -0.52692233554E+02 -0.11440436976E+02 -0.19699703208E+02  0.57405865393E+02  0.00000000000E+00 0.  1.
</event>
<event>
 7    1  0.2648915E-009  0.1131958E+03  0.7561462E-02  0.1254764E+00
          1   -1    0    0  501    0  0.00000000000E+00  0.00000000000E+00  0.70192625327E+03  0.70192625327E+03  0.00000000000E+00 0. -1.
         -1   -1    0    0    0  501 -0.00000000000E+00 -0.00000000000E+00 -0.20477048641E+02  0.20477048641E+02  0.00000000000E+00 0.  1.
         25    2    1    2    0    0 -0.24717272489E+02  0.22753493186E+02  0.27049343316E+03  0.29990390177E+03  0.12508792070E+03 0.  0.
          5    1    3    3  502    0  0.19434475079E+02  0.64976439880E+02  0.13143921671E+03  0.14796410595E+03  0.41800000000E+01 0.  1.
         -5    1    3    3    0  502 -0.44151747568E+02 -0.42222946695E+02  0.13905421645E+03  0.15193979582E+03  0.41800000000E+01 0.  1.
        -11    1    1    2    0    0  0.53176103910E+02  0.96898219195E+01  0.25614170156E+03  0.26178266167E+03  0.00000000000E+00 0.  1.
         11    1    1    2    0    0 -0.28458831420E+02 -0.32443315105E+02  0.15481406991E+03  0.16071673847E+03  0.00000000000E+00 0. -1.
</event>
<event>
 7    1  0.2648915E-009  0.9796519E+02  0.7561462E-02  0.1284634E+00
          3   -1    0    0  501    0  0.00000000000E+00  0.00000000000E+00  0.27957388179E+03  0.27957388179E+03  0.00000000000E+00 0. -1.
         -3   -1    0    0    0  501 -0.00000000000E+00 -0.00000000000E+00 -0.74806840018E+02  0.74806840018E+02  0.00000000000E+00 0.  1.
         25    2    1    2    0    0 -0.29890366009E+02 -0.39023240319E+02  0.73034872723E+01  0.13459847315E+03  0.12508861172E+03 0.  0.
          5    1    3    3  502    0  0.35179248017E+02 -0.11003737429E+02 -0.35809525849E+02  0.51560219841E+02  0.41800000000E+01 0. -1.
         -5    1    3    3    0  502 -0.65069614027E+02 -0.28019502890E+02  0.43113013122E+02  0.83038253307E+02  0.41800000000E+01 0. -1.
        -11    1    1    2    0    0  0.20161123487E+02  0.60777498554E+02  0.94876528944E+02  0.11446366662E+03  0.00000000000E+00 0.  1.
         11    1    1    2    0    0  0.97292425227E+01 -0.21754258235E+02  0.10258702555E+03  0.10531858204E+03  0.00000000000E+00 0. -1.
</event>
<event>
 7    1  0.2648915E-009  0.1718208E+03  0.7561462E-02  0.1175962E+00
         -1   -1    0    0    0  501 -0.00000000000E+00  0.00000000000E+00  0.11103662828E+04  0.11103662828E+04  0.00000000000E+00 0.  1.
          1   -1    0    0  501    0  0.00000000000E+00 -0.00000000000E+00 -0.32898830406E+02  0.32898830406E+02  0.00000000000E+00 0. -1.
         25    2    1    2    0    0  0.13275997624E+03 -0.30298514621E+02  0.33292575842E+03  0.38082892809E+03  0.12509156872E+03 0.  0.
          5    1    3    3  502    0 -0.21797124868E+02  0.10672843832E+02  0.37094401015E+02  0.44525175290E+02  0.41800000000E+01 0. -1.
         -5    1    3    3    0  502  0.15455710111E+03 -0.40971358454E+02  0.29583135741E+03  0.33630375280E+03  0.41800000000E+01 0. -1.
        -11    1    1    2    0    0 -0.97709080580E+02 -0.18034768338E+02  0.55127270745E+03  0.56015525997E+03  0.00000000000E+00 0.  1.
         11    1    1    2    0    0 -0.35050895664E+02  0.48333282959E+02  0.19326898655E+03  0.20228092518E+03  0.00000000000E+00 0. -1.
</event>
<event>
 7    1  0.2648915E-009  0.1403960E+03  0.7561462E-02  0.1212797E+00
         -1   -1    0    0    0  501 -0.00000000000E+00  0.00000000000E+00  0.27049526055E+02  0.27049526055E+02  0.00000000000E+00 0.  1.
          1   -1    0    0  501    0  0.00000000000E+00 -0.00000000000E+00 -0.90653631781E+03  0.90653631781E+03  0.00000000000E+00 0. -1.
         25    2    1    2    0    0 -0.70368037279E+02 -0.83150388394E+02 -0.38440119948E+03  0.41866175937E+03  0.12509092229E+03 0.  0.
          5    1    3    3  502    0  0.17056964823E+02 -0.40590579744E+02 -0.36314816672E+02  0.57225636938E+02  0.41800000000E+01 0.  1.
         -5    1    3    3    0  502 -0.87425002102E+02 -0.42559808649E+02 -0.34808638281E+03  0.36143612243E+03  0.41800000000E+01 0.  1.
        -11    1    1    2    0    0  0.52056446206E+02 -0.20485806206E+01 -0.14236219165E+03  0.15159506550E+03  0.00000000000E+00 0.  1.
         11    1    1    2    0    0  0.18311591072E+02  0.85198969014E+02 -0.35272340063E+03  0.36332901899E+03  0.00000000000E+00 0. -1.
</event>
<event>
 7    1  0.2648915E-009  0.1074522E+03  0.7561462E-02  0.1265362E+00
          1   -1    0    0  501    0  0.00000000000E+00  0.00000000000E+00  0.71050157072E+02  0.71050157072E+02  0.00000000000E+00 0. -1.
         -1   -1    0    0    0  501 -0.00000000000E+00 -0.00000000000E+00 -0.23276728365E+03  0.23276728365E+03  0.00000000000E+00 0.  1.
         25    2    1    2    0    0  0.47168368627E+02 -0.45597036856E+02 -0.11774020273E+03  0.18388411368E+03  0.12508663859E+03 0.  0.
          5    1    3    3  502    0 -0.23337514814E+02 -0.32718112659E+01 -0.95696310804E+02  0.98643806943E+02  0.41800000000E+01 0. -1.
         -5    1    3    3    0  502  0.70505883441E+02 -0.42325225590E+02 -0.22043891930E+02  0.85240306736E+02  0.41800000000E+01 0. -1.
        -11    1    1    2    0    0 -0.29508766321E+02 -0.23241658286E+02 -0.28624801082E+02  0.47226276654E+02  0.00000000000E+00 0.  1.
         11    1    1    2    0    0 -0.17659602307E+02  0.68838695141E+02 -0.15352122757E+02  0.72707050384E+02  0.00000000000E+00 0. -1.
</event>
<event>
 7    1  0.2648915E-009  0.9720141E+02  0.7561462E-02  0.1286294E+00
         -2   -1    0    0    0  501 -0.00000000000E+00  0.00000000000E+00  0.37983428429E+02  0.37983428429E+02  0.00000000000E+00 0. -1.
          2   -1    0    0  501    0  0.00000000000E+00 -0.00000000000E+00 -0.43413349443E+03  0.43413349443E+03  0.00000000000E+00 0.  1.
         25    2    1    2    0    0  0.32950245141E+02  0.36609105773E+02 -0.31279833791E+03  0.34046908589E+03  0.12510177044E+03 0.  0.
          5    1    3    3  502    0 -0.46234093517E+02  0.13154722009E+02 -0.15472240068E+03  0.16207137868E+03  0.41800000000E+01 0.  1.
         -5    1    3    3    0  502  0.79184338659E+02  0.23454383764E+02 -0.15807593723E+03  0.17839770721E+03  0.41800000000E+01 0.  1.
        -11    1    1    2    0    0 -0.68072690868E+01 -0.36692482685E+02  0.66672460375E+01  0.37909489152E+02  0.00000000000E+00 0. -1.
         11    1    1    2    0    0 -0.26142976054E+02  0.83376912808E-01 -0.90018974131E+02  0.93738347821E+02  0.00000000000E+00 0.  1.
</event>
<event>
 7    1  0.2648915E-009  0.1003783E+03  0.7561462E-02  0.1279502E+00
          2   -1    0    0  501    0  0.00000000000E+00  0.00000000000E+00  0.14145137281E+03  0.14145137281E+03  0.00000000000E+00 0.  1.
         -2   -1    0    0    0  501 -0.00000000000E+00 -0.00000000000E+00 -0.85071034817E+02  0.85071034817E+02  0.00000000000E+00 0. -1.
         25    2    1    2    0    0  0.33519031081E+01  0.13291036783E+02  0.42804665445E+02  0.13291936692E+03  0.12508969504E+03 0.  0.
          5    1    3    3  502    0 -0.45642189125E+02  0.45213788403E+02  0.83549450944E+01  0.64921287706E+02  0.41800000000E+01 0. -1.
         -5    1    3    3    0  502  0.48994092233E+02 -0.31922751620E+02  0.34449720351E+02  0.67998079215E+02  0.41800000000E+01 0. -1.
        -11    1    1    2    0    0 -0.24436241067E+02 -0.38055420158E+02 -0.17619820350E+02  0.48536614530E+02  0.00000000000E+00 0. -1.
         11    1    1    2    0    0  0.21084337959E+02  0.24764383374E+02  0.31195492895E+02  0.45066426174E+02  0.00000000000E+00 0.  1.
</event>
<event>
 7    1  0.2648915E-009  0.1524493E+03  0.7561462E-02  0.1197495E+00
          4   -1    0    0  501    0  0.00000000000E+00  0.00000000000E+00  0.75897976828E+02  0.75897976828E+02  0.00000000000E+00 0.  1.
         -4   -1    0    0    0  501 -0.00000000000E+00 -0.00000000000E+00 -0.41945407544E+03  0.41945407544E+03  0.00000000000E+00 0. -1.
         25    2    1    2    0    0 -0.73009232469E+02 -0.10503285646E+03 -0.27786870051E+03  0.33048625907E+03  0.12509158143E+03 0.  0.
          5    1    3    3  502    0  0.21784658327E+02 -0.67255522213E+02 -0.15709056924E+03  0.17231597707E+03  0.41800000000E+01 0. -1.
         -5    1    3    3    0  502 -0.94793890797E+02 -0.37777334252E+02 -0.12077813127E+03  0.15817028200E+03  0.41800000000E+01 0. -1.
        -11    1    1    2    0    0  0.14970996849E+01  0.23301618503E+02 -0.49941168374E+02  0.55130091882E+02  0.00000000000E+00 0. -1.
         11    1    1    2    0    0  0.71512132784E+02  0.81731237962E+02 -0.15746229728E+02  0.10973570132E+03  0.00000000000E+00 0.  1.
</event>
<event>
 7    1  0.2648915E-009  0.1708933E+03  0.7561462E-02  0.1176920E+00
          1   -1    0    0  501    0  0.00000000000E+00  0.00000000000E+00  0.10231999992E+03  0.10231999992E+03  0.00000000000E+00 0. -1.
         -1   -1    0    0    0  501 -0.00000000000E+00 -0.00000000000E+00 -0.34922964484E+03  0.34922964484E+03  0.00000000000E+00 0.  1.
         25    2    1    2    0    0  0.12409537713E+03  0.49592606287E+02 -0.36783882333E+02  0.18670653038E+03  0.12508870959E+03 0.  0.
          5    1    3    3  502    0  0.54832924623E+02  0.87796273036E+02 -0.25575167708E+02  0.10670706061E+03  0.41800000000E+01 0. -1.
         -5    1    3    3    0  502  0.69262452505E+02 -0.38203666748E+02 -0.11208714625E+02  0.79999469770E+02  0.41800000000E+01 0. -1.
        -11    1    1    2    0    0 -0.97726880378E+02 -0.74362003051E+02 -0.17925415459E+03  0.21728392160E+03  0.00000000000E+00 0. -1.
         11    1    1    2    0    0 -0.26368496749E+02  0.24769396764E+02 -0.30871607997E+02  0.47559192772E+02  0.00000000000E+00 0.  1.
</event>
<event>
 7    1  0.4420934E-009  0.1617620E+03  0.7561462E-02  0.1186722E+00
          1   -1    0    0  501    0  0.00000000000E+00  0.00000000000E+00  0.48526182123E+03  0.48526182123E+03  0.00000000000E+00 0. -1.
         -1   -1    0    0    0  501 -0.00000000000E+00 -0.00000000000E+00 -0.75598019803E+02  0.75598019803E+02  0.00000000000E+00 0.  1.
         25    2    1    2    0    0  0.94377511766E+02  0.11765106938E+03  0.15045762925E+03  0.24705037777E+03  0.12508997604E+03 0.  0.
          5    1    3    3  502    0  0.25843868973E+02  0.18629346092E+02 -0.20337867597E+02  0.38027087157E+02  0.41800000000E+01 0.  1.
         -5    1    3    3    0  502  0.68533642794E+02  0.99021723286E+02  0.17079549685E+03  0.20902329062E+03  0.41800000000E+01 0.  1.
        -11    1    1    2    0    0 -0.56944875028E+02 -0.11175228030E+02  0.52294210094E+02  0.78117148711E+02  0.00000000000E+00 0.  1.
         11    1    1    2    0    0 -0.37432636739E+02 -0.10647584135E+03  0.20691196209E+03  0.23569231455E+03  0.00000000000E+00 0. -1.
</event>
<event>
 7    1  0.2648915E-009  0.1094190E+03  0.7561462E-02  0.1261650E+00
         -2   -1    0    0    0  501 -0.00000000000E+00  0.00000000000E+00  0.10299423397E+03  0.10299423397E+03  0.00000000000E+00 0.  1.
          2   -1    0    0  501    0  0.00000000000E+00 -0.00000000000E+00 -0.15584088796E+03  0.15584088796E+03  0.00000000000E+00 0. -1.
         25    2    1    2    0    0  0.12468757556E+02 -0.64091373238E+02 -0.34803722059E+02  0.14533279200E+03  0.12508855792E+03 0.  0.
          5    1    3    3  502    0 -0.55448089884E+01  0.24331210129E+02  0.26125628737E+02  0.36369954220E+02  0.41800000000E+01 0. -1.
         -5    1    3    3    0  502  0.18013566545E+02 -0.88422583367E+02 -0.60929350796E+02  0.10896283778E+03  0.41800000000E+01 0. -1.
        -11    1    1    2    0    0  0.24077968183E+02  0.62093545648E+02  0.10063423163E+02  0.67354505778E+02  0.00000000000E+00 0.  1.
         11    1    1    2    0    0 -0.36546725739E+02  0.19978275905E+01 -0.28106355098E+02  0.46147824155E+02  0.00000000000E+00 0. -1.
</event>
<event>
 7    1  0.2648915E-009  0.2342299E+03  0.7561462E-02  0.1123697E+00
         -1   -1    0    0    0  501 -0.00000000000E+00  0.00000000000E+00  0.68196092027E+03  0.68196092027E+03  0.00000000000E+00 0.  1.
          1   -1    0    0  501    0  0.00000000000E+00 -0.00000000000E+00 -0.87906061955E+02  0.87906061955E+02  0.00000000000E+00 0. -1.
         25    2    1    2    0    0 -0.13586997132E+03 -0.17179418992E+03  0.32168253656E+03  0.40877965051E+03  0.12508899049E+03 0.  0.
          5    1    3    3  502    0 -0.98969733152E+01  0.18320521759E+02  0.48103781095E+02  0.52583626291E+02  0.41800000000E+01 0.  1.
         -5    1    3    3    0  502 -0.12597299801E+03 -0.19011471168E+03  0.27357875547E+03  0.35619602422E+03  0.41800000000E+01 0.  1.
        -11    1    1    2    0    0  0.47101589938E+02  0.64443970280E+02  0.17129775497E+03  0.18898281916E+03  0.00000000000E+00 0.  1.
         11    1    1    2    0    0  0.88768381385E+02  0.10735021964E+03  0.10107456678E+03  0.17210451255E+03  0.00000000000E+00 0. -1.
</event>
<event>
 7    1  0.2648915E-009  0.1184168E+03  0.7561462E-02  0.1245732E+00
          1   -1    0    0  501    0  0.00000000000E+00  0.00000000000E+00  0.25818726708E+03  0.25818726708E+03  0.00000000000E+00 0. -1.
         -1   -1    0    0    0  501 -0.00000000000E+00 -0.00000000000E+00 -0.76433086234E+02  0.76433086234E+02  0.00000000000E+00 0.  1.
         25    2    1    2    0    0 -0.84855272748E+02  0.21571676782E+02  0.12874361536E+03  0.19972218338E+03  0.12509307530E+03 0.  0.
          5    1    3    3  502    0  0.16898587471E+02  0.41613266835E+02  0.60654228943E+02  0.75588584613E+02  0.41800000000E+01 0. -1.
         -5    1    3    3    0  502 -0.10175386022E+03 -0.20041590053E+02  0.68089386417E+02  0.12413359877E+03  0.41800000000E+01 0. -1.
        -11    1    1    2    0    0  0.33077839670E+02 -0.12532976714E+02  0.71017144466E+02  0.79338854231E+02  0.00000000000E+00 0. -1.
         11    1    1    2    0    0  0.51777433078E+02 -0.90387000688E+01 -0.18006578976E+02  0.55559315704E+02  0.00000000000E+00 0.  1.
</event>
<event>
 7    1  0.2648915E-009  0.1556844E+03  0.7561462E-02  0.1193657E+00
          1   -1    0    0  501    0  0.00000000000E+00  0.00000000000E+00  0.74626083763E+03  0.74626083763E+03  0.00000000000E+00 0. -1.
         -1   -1    0    0    0  501 -0.00000000000E+00 -0.00000000000E+00 -0.43429625959E+02  0.43429625959E+02  0.00000000000E+00 0.  1.
         25    2    1    2    0    0  0.11143791541E+03 -0.60102325911E+02  0.51393097876E+03  0.54387774343E+03  0.12508896951E+03 0.  0.
          5    1    3    3  502    0  0.23673455541E+02 -0.83563956943E+02  0.24268442577E+03  0.25779171885E+03  0.41800000000E+01 0. -1.
         -5    1    3    3    0  502  0.87764459871E+02  0.23461631032E+02  0.27124655299E+03  0.28608602458E+03  0.41800000000E+01 0. -1.
        -11    1    1    2    0    0 -0.39918626101E+02  0.45408543648E+02  0.23234125247E+02  0.64770804549E+02  0.00000000000E+00 0.  1.
         11    1    1    2    0    0 -0.71519289311E+02  0.14693782263E+02  0.16566610766E+03  0.18104191561E+03  0.00000000000E+00 0. -1.
</event>
<event>
 7    1  0.2648915E-009  0.1095092E+03  0.7561462E-02  0.1261481E+00
         -1   -1    0    0    0  501 -0.00000000000E+00  0.00000000000E+00  0.15276597757E+03  0.15276597757E+03  0.00000000000E+00 0.  1.
          1   -1    0    0  501    0  0.00000000000E+00 -0.00000000000E+00 -0.13930408132E+03  0.13930408132E+03  0.00000000000E+00 0. -1.
         25    2    1    2    0    0 -0.81264847607E+02 -0.12141532380E+02 -0.45310931757E+02  0.15637211393E+03  0.12509102771E+03 0.  0.
          5    1    3    3  502    0  0.99746689448E+01 -0.77856334912E+01 -0.62005708274E+02  0.63421529215E+02  0.41800000000E+01 0.  1.
         -5    1    3    3    0  502 -0.91239516552E+02 -0.43558988892E+01  0.16694776517E+02  0.92950584714E+02  0.41800000000E+01 0.  1.
        -11    1    1    2    0    0 -0.12424044079E+02  0.16272922162E+02 -0.64518035786E+01  0.21466034482E+02  0.00000000000E+00 0. -1.
         11    1    1    2    0    0  0.93688891686E+02 -0.41313897816E+01  0.65224631581E+02  0.11423191048E+03  0.00000000000E+00 0.  1.
</event>
<event>
 7    1  0.2648915E-009  0.2547282E+03  0.7561462E-02  0.1110353E+00
         -2   -1    0    0    0  501 -0.00000000000E+00  0.00000000000E+00  0.55134985895E+02  0.55134985895E+02  0.00000000000E+00 0.  1.
          2   -1    0    0  501    0  0.00000000000E+00 -0.00000000000E+00 -0.14743695006E+04  0.14743695006E+04  0.00000000000E+00 0. -1.
         25    2    1    2    0    0  0.74996064025E+02  0.23936311084E+03 -0.93843803099E+03  0.97940405825E+03  0.12508901974E+03 0.  0.
          5    1    3    3  502    0  0.53185166335E+02  0.78075906571E+02 -0.55245008600E+03  0.56048468224E+03  0.41800000000E+01 0. -1.
         -5    1    3    3    0  502  0.21810897690E+02  0.16128720427E+03 -0.38598794499E+03  0.41891937601E+03  0.41800000000E+01 0. -1.
        -11    1    1    2    0    0 -0.59407143452E+02 -0.14933627066E+03 -0.21090449949E+03  0.26516266391E+03  0.00000000000E+00 0.  1.
         11    1    1    2    0    0 -0.15588920573E+02 -0.90026840182E+02 -0.26989198427E+03  0.28493776438E+03  0.00000000000E+00 0. -1.
</event>
<event>
 7    1  0.2648915E-009  0.1114744E+03  0.7561462E-02  0.1257864E+00
         -1   -1    0    0    0  501 -0.00000000000E+00  0.00000000000E+00  0.49369075944E+02  0.49369075944E+02  0.00000000000E+00 0.  1.
          1   -1    0    0  501    0  0.00000000000E+00 -0.00000000000E+00 -0.40842735843E+03  0.40842735843E+03  0.00000000000E+00 0. -1.
         25    2    1    2    0    0 -0.56388947092E+02  0.54523429480E+02 -0.26878545752E+03  0.30666888640E+03  0.12509063111E+03 0.  0.
          5    1    3    3  502    0  0.14845322917E+02 -0.25230017787E+02 -0.19601983847E+02  0.35477423536E+02  0.41800000000E+01 0.  1.
         -5    1    3    3    0  502 -0.71234270010E+02  0.79753447267E+02 -0.24918347367E+03  0.27119146286E+03  0.41800000000E+01 0.  1.
        -11    1    1    2    0    0  0.36069891252E+02 -0.10013713504E+02 -0.94865483292E+02  0.10198417246E+03  0.00000000000E+00 0. -1.
         11    1    1    2    0    0  0.20319055841E+02 -0.44509715976E+02  0.45926583277E+01  0.49143375515E+02  0.00000000000E+00 0.  1.
</event>
<event>
 7    1  0.2648915E-009  0.1958654E+03  0.7561462E-02  0.1153275E+00
          3   -1    0    0  501    0  0.00000000000E+00  0.00000000000E+00  0.67501944345E+02  0.67501944345E+02  0.00000000000E+00 0. -1.
         -3   -1    0    0    0  501 -0.00000000000E+00 -0.00000000000E+00 -0.62052979540E+03  0.62052979540E+03  0.00000000000E+00 0.  1.
         25    2    1    2    0    0  0.14019942689E+03  0.87399437243E+02 -0.20177487745E+03  0.28923360938E+03  0.12509371963E+03 0.  0.
          5    1    3    3  502    0  0.15336982545E+03  0.45012916707E+02 -0.13676538750E+03  0.21040605896E+03  0.41800000000E+01 0.  1.
         -5    1    3    3    0  502 -0.13170398557E+02  0.42386520535E+02 -0.65009489953E+02  0.78827550420E+02  0.41800000000E+01 0.  1.
        -11    1    1    2    0    0 -0.11235357088E+03 -0.19719607222E+02 -0.23851425317E+03  0.26438842026E+03  0.00000000000E+00 0. -1.
         11    1    1    2    0    0 -0.27845856005E+02 -0.67679830021E+02 -0.11273872043E+03  0.13440971011E+03  0.00000000000E+00 0.  1.
</event>
<event>
 7    1  0.2648915E-009  0.8729536E+02  0.7561462E-02  0.1309537E+00
         -1   -1    0    0    0  501 -0.00000000000E+00  0.00000000000E+00  0.31202254217E+02  0.31202254217E+02  0.00000000000E+00 0.  1.
          1   -1    0    0  501    0  0.00000000000E+00 -0.00000000000E+00 -0.68839759964E+03  0.68839759964E+03  0.00000000000E+00 0. -1.
         25    2    1    2    0    0  0.77907338610E+01  0.52877259921E+02 -0.47697952122E+03  0.49599751276E+03  0.12508944336E+03 0.  0.
          5    1    3    3  502    0 -0.57081667126E+01  0.18259442784E+02 -0.21520414617E+01  0.19700104072E+02  0.41800000000E+01 0. -1.
         -5    1    3    3    0  502  0.13498900574E+02  0.34617817137E+02 -0.47482747976E+03  0.47629740868E+03  0.41800000000E+01 0. -1.
        -11    1    1    2    0    0  0.13213688282E+02  0.29648999416E+02 -0.10527449232E+03  0.11016525522E+03  0.00000000000E+00 0. -1.
         11    1    1    2    0    0 -0.21004422142E+02 -0.82526259337E+02 -0.74941331876E+02  0.11343708588E+03  0.00000000000E+00 0.  1.
</event>
<event>
 7    1  0.2648915E-009  0.1434488E+03  0.7561462E-02  0.1208762E+00
         -2   -1    0    0    0  501 -0.00000000000E+00  0.00000000000E+00  0.54309123558E+02  0.54309123558E+02  0.00000000000E+00 0.  1.
          2   -1    0    0  501    0  0.00000000000E+00 -0.00000000000E+00 -0.56287610286E+03  0.56287610286E+03  0.00000000000E+00 0. -1.
         25    2    1    2    0    0  0.61474804286E+02 -0.11082545063E+03 -0.17074733889E+03  0.24670360581E+03  0.12508630346E+03 0.  0.
          5    1    3    3  502    0  0.79137320832E+02 -0.10719611835E+03 -0.18157701827E+03  0.22525853880E+03  0.41800000000E+01 0.  1.
         -5    1    3    3    0  502 -0.17662516546E+02 -0.36293322824E+01  0.10829679382E+02  0.21445067011E+02  0.41800000000E+01 0.  1.
        -11    1    1    2    0    0 -0.24274481255E+02  0.77268509117E+01 -0.15000038849E+02  0.29562743964E+02  0.00000000000E+00 0.  1.
         11    1    1    2    0    0 -0.37200323031E+02  0.10309859972E+03 -0.32281960156E+03  0.34091887664E+03  0.00000000000E+00 0. -1.
</event>
<event>
 7    1  0.2648915E-009  0.1727080E+03  0.7561462E-02  0.1175053E+00
          1   -1    0    0  501    0  0.00000000000E+00  0.00000000000E+00  0.78262135985E+03  0.78262135985E+03  0.00000000000E+00 0. -1.
         -1   -1    0    0    0  501 -0.00000000000E+00 -0.00000000000E+00 -0.43335915157E+02  0.43335915157E+02  0.00000000000E+00 0.  1.
         25    2    1    2    0    0 -0.12449906689E+03  0.49569686431E+02  0.53000694867E+03  0.56081393484E+03  0.12509089656E+03 0.  0.
          5    1    3    3  502    0 -0.12729933337E+02 -0.38400373097E+02  0.10399227535E+03  0.11166246276E+03  0.41800000000E+01 0. -1.
         -5    1    3    3    0  502 -0.11176913355E+03  0.87970059528E+02  0.42601467332E+03  0.44915147208E+03  0.41800000000E+01 0. -1.
        -11    1    1    2    0    0 -0.49807138750E+01 -0.31290204396E+02  0.34188216261E+02  0.46612428953E+02  0.00000000000E+00 0. -1.
         11    1    1    2    0    0  0.12947978076E+03 -0.18279482035E+02  0.17509027976E+03  0.21853091121E+03  0.00000000000E+00 0.  1.
</event>
<event>
 7    1  0.2648915E-009  0.7877512E+02  0.7561462E-02  0.1332564E+00
         -2   -1    0    0    0  501 -0.00000000000E+00  0.00000000000E+00  0.94945468336E+02  0.94945468336E+02  0.00000000000E+00 0.  1.
          2   -1    0    0  501    0  0.00000000000E+00 -0.00000000000E+00 -0.22057325478E+03  0.22057325478E+03  0.00000000000E+00 0. -1.
         25    2    1    2    0    0 -0.17020108686E+02 -0.61781436904E+02  0.94639908687E+01  0.14086885827E+03  0.12509131889E+03 0.  0.
          5    1    3    3  502    0 -0.11938114197E+02 -0.24613323704E+02 -0.57605236594E+02  0.63907510962E+02  0.41800000000E+01 0. -1.
         -5    1    3    3    0  502 -0.50819944897E+01 -0.37168113201E+02  0.67069227462E+02  0.76961347307E+02  0.41800000000E+01 0. -1.
        -11    1    1    2    0    0 -0.31702920253E+01 -0.13665857853E+02  0.44671880713E+01  0.14722845909E+02  0.00000000000E+00 0.  1.
         11    1    1    2    0    0  0.20190400712E+02  0.75447294758E+02 -0.13955896538E+03  0.15992701894E+03  0.00000000000E+00 0. -1.
</event>
<event>
 7    1  0.2648915E-009  0.9677745E+02  0.7561462E-02  0.1287222E+00
          3   -1    0    0  501    0  0.00000000000E+00  0.00000000000E+00  0.19321730887E+03  0.19321730887E+03  0.00000000000E+00 0. -1.
         -3   -1    0    0    0  501 -0.00000000000E+00 -0.00000000000E+00 -0.14077396384E+03  0.14077396384E+03  0.00000000000E+00 0.  1.
         25    2    1    2    0    0 -0.57990524271E+02 -0.16664025704E+02 -0.82205021775E+02  0.16138897341E+03  0.12509254365E+03 0.  0.
          5    1    3    3  502    0 -0.72817005875E+02 -0.17804174138E+02 -0.10787507207E+03  0.13142986166E+03  0.41800000000E+01 0.  1.
         -5    1    3    3    0  502  0.14826481605E+02  0.11401484341E+01  0.25670050294E+02  0.29959111758E+02  0.41800000000E+01 0.  1.
        -11    1    1    2    0    0  0.73639776073E+02 -0.77334637742E+01  0.70634781627E+02  0.10233227965E+03  0.00000000000E+00 0. -1.
         11    1    1    2    0    0 -0.15649251802E+02  0.24397489479E+02  0.64013585174E+02  0.70270019651E+02  0.00000000000E+00 0.  1.
</event>
<event>
 7    1  0.2648915E-009  0.7642195E+02  0.7561462E-02  0.1339523E+00
         -1   -1    0    0    0  501 -0.00000000000E+00  0.00000000000E+00  0.27322909248E+02  0.27322909248E+02  0.00000000000E+00 0.  1.
          1   -1    0    0  501    0  0.00000000000E+00 -0.00000000000E+00 -0.49458682334E+03  0.49458682334E+03  0.00000000000E+00 0. -1.
         25    2    1    2    0    0  0.37193543555E+02  0.31187028273E+02 -0.24609390293E+03  0.28029473306E+03  0.12508772086E+03 0.  0.
          5    1    3    3  502    0 -0.31080469406E+01 -0.11110749481E+00  0.14141545304E+02  0.15070766545E+02  0.41800000000E+01 0.  1.
         -5    1    3    3    0  502  0.40301590496E+02  0.31298135768E+02 -0.26023544823E+03  0.26522396652E+03  0.41800000000E+01 0.  1.
        -11    1    1    2    0    0  0.10302385932E+02 -0.45640761181E+02 -0.12315622949E+03  0.13174473462E+03  0.00000000000E+00 0.  1.
         11    1    1    2    0    0 -0.47495929487E+02  0.14453732908E+02 -0.98013781670E+02  0.10987026490E+03  0.00000000000E+00 0. -1.
</event>
<event>
 7    1  0.2648915E-009  0.1148595E+03  0.7561462E-02  0.1251827E+00
          2   -1    0    0  501    0  0.00000000000E+00  0.00000000000E+00  0.10995184838E+03  0.10995184838E+03  0.00000000000E+00 0. -1.
         -2   -1    0    0    0  501 -0.00000000000E+00 -0.00000000000E+00 -0.12690519086E+03  0.12690519086E+03  0.00000000000E+00 0.  1.
         25    2    1    2    0    0  0.39956741968E+02 -0.22364882250E+02 -0.15000253404E+02  0.13405007460E+03  0.12509070993E+03 0.  0.
          5    1    3    3  502    0  0.81163427655E+02 -0.36696237759E+02 -0.13577877423E+02  0.90199484531E+02  0.41800000000E+01 0.  1.
         -5    1    3    3    0  502 -0.41206685687E+02  0.14331355509E+02 -0.14223759809E+01  0.43850590070E+02  0.41800000000E+01 0.  1.
        -11    1    1    2    0    0 -0.88976162780E+01 -0.32487787675E+02 -0.17390654951E+02  0.37908558441E+02  0.00000000000E+00 0.  1.
         11    1    1    2    0    0 -0.31059125690E+02  0.54852669925E+02  0.15437565882E+02  0.64898406197E+02  0.00000000000E+00 0. -1.
</event>
<event>
 7    1  0.2648915E-009  0.1206790E+03  0.7561462E-02  0.1241981E+00
         -1   -1    0    0    0  501 -0.00000000000E+00  0.00000000000E+00  0.35918473788E+02  0.35918473788E+02  0.00000000000E+00 0.  1.
          1   -1    0    0  501    0  0.00000000000E+00 -0.00000000000E+00 -0.46941059426E+03  0.46941059426E+03  0.00000000000E+00 0. -1.
         25    2    1    2    0    0 -0.56919563045E+02  0.84813898444E+01 -0.33021152925E+03  0.35777085798E+03  0.12509421305E+03 0.  0.
          5    1    3    3  502    0  0.17449942706E+02  0.49366804765E+02 -0.11689996475E+03  0.12815871438E+03  0.41800000000E+01 0. -1.
         -5    1    3    3    0  502 -0.74369505751E+02 -0.40885414920E+02 -0.21331156451E+03  0.22961214361E+03  0.41800000000E+01 0. -1.
        -11    1    1    2    0    0 -0.12277701549E+02  0.24350079945E+02 -0.38879884641E+02  0.47490144013E+02  0.00000000000E+00 0.  1.
         11    1    1    2    0    0  0.69197264594E+02 -0.32831469789E+02 -0.64400706577E+02  0.10006806605E+03  0.00000000000E+00 0. -1.
</event>
<event>
 7    1  0.2648915E-009  0.1284719E+03  0.7561462E-02  0.1229741E+00
          1   -1    0    0  501    0  0.00000000000E+00  0.00000000000E+00  0.90851163992E+02  0.90851163992E+02  0.00000000000E+00 0. -1.
         -1   -1    0    0    0  501 -0.00000000000E+00 -0.00000000000E+00 -0.19377287436E+03  0.19377287436E+03  0.00000000000E+00 0.  1.
         25    2    1    2    0    0  0.38356199505E+02 -0.59760269425E+02 -0.26466917135E+02  0.14625392214E+03  0.12508886520E+03 0.  0.
          5    1    3    3  502    0  0.51803225897E+02  0.25172459005E+02 -0.10520803579E+02  0.58697415733E+02  0.41800000000E+01 0. -1.
         -5    1    3    3    0  502 -0.13447026392E+02 -0.84932728430E+02 -0.15946113557E+02  0.87556506411E+02  0.41800000000E+01 0. -1.
        -11    1    1    2    0    0 -0.25635521479E+02  0.82859536553E+02 -0.69373532654E+02  0.11106561030E+03  0.00000000000E+00 0.  1.
         11    1    1    2    0    0 -0.12720678027E+02 -0.23099267129E+02 -0.70812605799E+01  0.27304505906E+02  0.00000000000E+00 0. -1.
</event>
<event>
 7    1  0.2648915E-009  0.1913901E+03  0.7561462E-02  0.1157214E+00
         -1   -1    0    0    0  501 -0.00000000000E+00  0.00000000000E+00  0.16728100264E+04  0.16728100264E+04  0.00000000000E+00 0.  1.
          1   -1    0    0  501    0  0.00000000000E+00 -0.00000000000E+00 -0.24318304712E+02  0.24318304712E+02  0.00000000000E+00 0. -1.
         25    2    1    2    0    0 -0.11397991330E+03 -0.11200784334E+03  0.10937571116E+04  0.11124250392E+04  0.12509065152E+03 0.  0.
          5    1    3    3  502    0  0.16692972553E+02 -0.59591321907E+02  0.32221305361E+03  0.32812879376E+03  0.41800000000E+01 0.  1.
         -5    1    3    3    0  502 -0.13067288586E+03 -0.52416521436E+02  0.77154405796E+03  0.78429624543E+03  0.41800000000E+01 0.  1.
        -11    1    1    2    0    0  0.25155828062E+02  0.82579258593E+02  0.33355250762E+03  0.34454234133E+03  0.00000000000E+00 0.  1.
         11    1    1    2    0    0  0.88824085240E+02  0.29428584751E+02  0.22118210248E+03  0.24016095056E+03  0.00000000000E+00 0. -1.
</event>
<event>
 7    1  0.2648915E-009  0.1852683E+03  0.7561462E-02  0.1162800E+00
          1   -1    0    0  501    0  0.00000000000E+00  0.00000000000E+00  0.93960250010E+03  0.93960250010E+03  0.00000000000E+00 0. -1.
         -1   -1    0    0    0  501 -0.00000000000E+00 -0.00000000000E+00 -0.95265665661E+02  0.95265665661E+02  0.00000000000E+00 0.  1.
         25    2    1    2    0    0 -0.16871225714E+03 -0.44177943933E+02  0.55207457676E+02  0.22160783686E+03  0.12508658416E+03 0.  0.
          5    1    3    3  502    0 -0.45992515558E+02 -0.28026275908E+02  0.78793202791E+02  0.95533370268E+02  0.41800000000E+01 0.  1.
         -5    1    3    3    0  502 -0.12271974159E+03 -0.16151668026E+02 -0.23585745115E+02  0.12607446660E+03  0.41800000000E+01 0.  1.
        -11    1    1    2    0    0  0.13692396441E+03 -0.16015700889E+01  0.48013746804E+03  0.49928221005E+03  0.00000000000E+00 0.  1.
         11    1    1    2    0    0  0.31788292734E+02  0.45779514022E+02  0.30899190872E+03  0.31397811885E+03  0.00000000000E+00 0. -1.
</event>
<event>
 7    1  0.2648915E-009  0.1277346E+03  0.7561462E-02  0.1230856E+00
          1   -1    0    0  501    0  0.00000000000E+00  0.00000000000E+00  0.19712545936E+03  0.19712545936E+03  0.00000000000E+00 0. -1.
         -1   -1    0    0    0  501 -0.00000000000E+00 -0.00000000000E+00 -0.11379142619E+03  0.11379142619E+03  0.00000000000E+00 0.  1.
         25    2    1    2    0    0 -0.42825157839E+02 -0.60475794901E+02 -0.29668052704E+02  0.14838889731E+03  0.12509098921E+03 0.  0.
          5    1    3    3  502    0  0.37786141613E+02  0.14107831939E+01  0.98028127225E+01  0.39285497891E+02  0.41800000000E+01 0. -1.
         -5    1    3    3    0  502 -0.80611299452E+02 -0.61886578095E+02 -0.39470865426E+02  0.10910339942E+03  0.41800000000E+01 0. -1.
        -11    1    1    2    0    0  0.82460888841E+00  0.72122816024E+02  0.80976695207E+02  0.10844171586E+03  0.00000000000E+00 0. -1.
         11    1    1    2    0    0  0.42000548951E+02 -0.11647021123E+02  0.32025390666E+02  0.54086272385E+02  0.00000000000E+00 0.  1.
</event>
<event>
 7    1  0.2648915E-009  0.1289252E+03  0.7561462E-02  0.1229059E+00
          3   -1    0    0  501    0  0.00000000000E+00  0.00000000000E+00  0.16592006619E+03  0.16592006619E+03  0.00000000000E+00 0. -1.
         -3   -1    0    0    0  501 -0.00000000000E+00 -0.00000000000E+00 -0.11619326300E+03  0.11619326300E+03  0.00000000000E+00 0.  1.
         25    2    1    2    0    0 -0.72686100468E+01  0.82263246080E+02  0.11256273054E+00  0.14989321311E+03  0.12509151977E+03 0.  0.
          5    1    3    3  502    0 -0.45370289330E+02  0.97454455673E+02  0.81450909218E+01  0.10788720494E+03  0.41800000000E+01 0. -1.
         -5    1    3    3    0  502  0.38101679283E+02 -0.15191209593E+02 -0.80325281913E+01  0.42006008168E+02  0.41800000000E+01 0. -1.
        -11    1    1    2    0    0 -0.25568481142E+02 -0.69072197721E+02  0.60371606719E+02  0.95233642290E+02  0.00000000000E+00 0.  1.
         11    1    1    2    0    0  0.32837091189E+02 -0.13191048358E+02 -0.10757366257E+02  0.36986473789E+02  0.00000000000E+00 0. -1.
</event>
<event>
 7    1  0.2648915E-009  0.1878702E+03  0.7561462E-02  0.1160396E+00
          3   -1    0    0  501    0  0.00000000000E+00  0.00000000000E+00  0.99665655104E+02  0.99665655104E+02  0.00000000000E+00 0. -1.
         -3   -1    0    0    0  501 -0.00000000000E+00 -0.00000000000E+00 -0.42829298095E+03  0.42829298095E+03  0.00000000000E+00 0.  1.
         25    2    1    2    0    0 -0.88885643391E+02  0.14078183644E+03 -0.23754140336E+03  0.31590065701E+03  0.12508846356E+03 0.  0.
          5    1    3    3  502    0 -0.11790854983E+03  0.11846410945E+03 -0.21623964796E+03  0.27333720768E+03  0.41800000000E+01 0.  1.
         -5    1    3    3    0  502  0.29022906436E+02  0.22317726994E+02 -0.21301755399E+02  0.42563449334E+02  0.41800000000E+01 0.  1.
        -11    1    1    2    0    0  0.57966262858E+02 -0.52681540315E+02  0.44737133314E+01  0.78456653196E+02  0.00000000000E+00 0. -1.
         11    1    1    2    0    0  0.30919380533E+02 -0.88100296130E+02 -0.95559635817E+02  0.13360132585E+03  0.00000000000E+00 0.  1.
</event>
<event>
 7    1  0.2648915E-009  0.8820474E+02  0.7561462E-02  0.1307258E+00
         -3   -1    0    0    0  501 -0.00000000000E+00  0.00000000000E+00  0.33946247715E+03  0.33946247715E+03  0.00000000000E+00 0.  1.
          3   -1    0    0  501    0  0.00000000000E+00 -0.00000000000E+00 -0.38021641489E+02  0.38021641489E+02  0.00000000000E+00 0. -1.
         25    2    1    2    0    0 -0.23570522752E+02  0.16012897403E+02  0.18533420796E+03  0.22540609522E+03  0.12508859538E+03 0.  0.
          5    1    3    3  502    0 -0.10411760661E+02 -0.52707971684E+02  0.52619082000E+02  0.75317828100E+02  0.41800000000E+01 0.  1.
         -5    1    3    3    0  502 -0.13158762091E+02  0.68720869088E+02  0.13271512596E+03  0.15008826712E+03  0.41800000000E+01 0.  1.
        -11    1    1    2    0    0 -0.94121361491E+01 -0.16997215054E+02  0.11745696216E+03  0.11905306206E+03  0.00000000000E+00 0.  1.
         11    1    1    2    0    0  0.32982658901E+02  0.98431765051E+00 -0.13503344615E+01  0.33024961356E+02  0.00000000000E+00 0. -1.
</event>
<event>
 7    1  0.2648915E-009  0.1622463E+03  0.7561462E-02  0.1186184E+00
         -1   -1    0    0    0  501 -0.00000000000E+00  0.00000000000E+00  0.85194361159E+02  0.85194361159E+02  0.00000000000E+00 0.  1.
          1   -1    0    0  501    0  0.00000000000E+00 -0.00000000000E+00 -0.44361620321E+03  0.44361620321E+03  0.00000000000E+00 0. -1.
         25    2    1    2    0    0  0.13937882736E+03 -0.97695581686E+01 -0.29625285503E+03  0.35062194501E+03  0.12509233560E+03 0.  0.
          5    1    3    3  502    0  0.11078729957E+03  0.38052105829E+02 -0.12907784415E+03  0.17435696360E+03  0.41800000000E+01 0.  1.
         -5    1    3    3    0  502  0.28591527784E+02 -0.47821663997E+02 -0.16717501088E+03  0.17626498141E+03  0.41800000000E+01 0.  1.
        -11    1    1    2    0    0 -0.10397894799E+03  0.32968141845E+02 -0.78989941227E+01  0.10936596413E+03  0.00000000000E+00 0.  1.
         11    1    1    2    0    0 -0.35399879371E+02 -0.23198583676E+02 -0.54269992894E+02  0.68822655229E+02  0.00000000000E+00 0. -1.
</event>
<event>
 7    1  0.2648915E-009  0.1013950E+03  0.7561462E-02  0.1277390E+00
         -1   -1    0    0    0  501 -0.00000000000E+00  0.00000000000E+00  0.10874515735E+03  0.10874515735E+03  0.00000000000E+00 0.  1.
          1   -1    0    0  501    0  0.00000000000E+00 -0.00000000000E+00 -0.12435369033E+03  0.12435369033E+03  0.00000000000E+00 0. -1.
         25    2    1    2    0    0  0.24878522743E+02  0.35332258681E+02 -0.15856371019E+02  0.13329102656E+03  0.12509102230E+03 0.  0.
          5    1    3    3  502    0  0.46186309829E+02  0.71205583128E+02 -0.28276924740E+02  0.89557060899E+02  0.41800000000E+01 0.  1.
         -5    1    3    3    0  502 -0.21307787086E+02 -0.35873324447E+02  0.12420553721E+02  0.43733965657E+02  0.41800000000E+01 0.  1.
        -11    1    1    2    0    0  0.69721542663E+01 -0.42637091866E+02  0.32370818516E+02  0.53985205652E+02  0.00000000000E+00 0.  1.
         11    1    1    2    0    0 -0.31850677009E+02  0.73048331843E+01 -0.32122980476E+02  0.45822615469E+02  0.00000000000E+00 0. -1.
</event>
<event>
 7    1  0.2648915E-009  0.7157441E+02  0.7561462E-02  0.1354820E+00
          1   -1    0    0  501    0  0.00000000000E+00  0.00000000000E+00  0.21967772995E+03  0.21967772995E+03  0.00000000000E+00 0. -1.
         -1   -1    0    0    0  501 -0.00000000000E+00 -0.00000000000E+00 -0.58542670063E+02  0.58542670063E+02  0.00000000000E+00 0.  1.
         25    2    1    2    0    0 -0.20243701679E+02  0.21765308919E+02  0.74182969262E+02  0.14845114318E+03  0.12510432788E+03 0.  0.
          5    1    3    3  502    0 -0.34688005922E+02 -0.18720576846E+02 -0.20322965939E+02  0.44544506921E+02  0.41800000000E+01 0.  1.
         -5    1    3    3    0  502  0.14444304243E+02  0.40485885765E+02  0.94505935200E+02  0.10390663626E+03  0.41800000000E+01 0.  1.
        -11    1    1    2    0    0  0.56494712202E+01 -0.38043030922E+02 -0.16640167183E+01  0.38496203428E+02  0.00000000000E+00 0.  1.
         11    1    1    2    0    0  0.14594230459E+02  0.16277722003E+02  0.88616107345E+02  0.91273053402E+02  0.00000000000E+00 0. -1.
</event>
<event>
 7    1  0.2648915E-009  0.1023018E+03  0.7561462E-02  0.1275529E+00
         -2   -1    0    0    0  501 -0.00000000000E+00  0.00000000000E+00  0.29633500645E+02  0.29633500645E+02  0.00000000000E+00 0.  1.
          2   -1    0    0  501    0  0.00000000000E+00 -0.00000000000E+00 -0.52877194449E+03  0.52877194449E+03  0.00000000000E+00 0. -1.
         25    2    1    2    0    0  0.37849184507E+02  0.39080599482E+02 -0.21034875772E+03  0.25070691177E+03  0.12508997446E+03 0.  0.
          5    1    3    3  502    0 -0.23636840930E+02  0.57979031073E+02 -0.58700577001E+02  0.85927285734E+02  0.41800000000E+01 0. -1.
         -5    1    3    3    0  502  0.61486025437E+02 -0.18898431591E+02 -0.15164818072E+03  0.16477962603E+03  0.41800000000E+01 0. -1.
        -11    1    1    2    0    0  0.77339481850E+01 -0.29912046232E+02 -0.24723496129E+02  0.39570136785E+02  0.00000000000E+00 0.  1.
         11    1    1    2    0    0 -0.45583132692E+02 -0.91685532502E+01 -0.26406619000E+03  0.26812839659E+03  0.00000000000E+00 0. -1.
</event>
<event>
 7    1  0.2648915E-009  0.8127143E+02  0.7561462E-02  0.1325482E+00
         -3   -1    0    0    0  501 -0.00000000000E+00  0.00000000000E+00  0.21391111704E+02  0.21391111704E+02  0.00000000000E+00 0.  1.
          3   -1    0    0  501    0  0.00000000000E+00 -0.00000000000E+00 -0.64159421089E+03  0.64159421089E+03  0.00000000000E+00 0. -1.
         25    2    1    2    0    0  0.21349475849E+02  0.15325413459E+02 -0.25613408550E+03  0.28625736753E+03  0.12509173552E+03 0.  0.
          5    1    3    3  502    0 -0.20939035433E+02 -0.78296287932E+01  0.27326419076E+01  0.22906025925E+02  0.41800000000E+01 0.  1.
         -5    1    3    3    0  502  0.42288511282E+02  0.23155042252E+02 -0.25886672741E+03  0.26335134161E+03  0.41800000000E+01 0.  1.
        -11    1    1    2    0    0  0.13863901134E+02 -0.43913312030E+02 -0.12106649455E+03  0.12952869501E+03  0.00000000000E+00 0.  1.
         11    1    1    2    0    0 -0.35213376983E+02  0.28587898572E+02 -0.24300251913E+03  0.24719926004E+03  0.00000000000E+00 0. -1.
</event>
<event>
 7    1  0.4151078E-009  0.1233607E+03  0.7561462E-02  0.1237654E+00
          2   -1    0    0  501    0  0.00000000000E+00  0.00000000000E+00  0.19366315914E+03  0.19366315914E+03  0.00000000000E+00 0. -1.
         -2   -1    0    0    0  501 -0.00000000000E+00 -0.00000000000E+00 -0.10393975095E+03  0.10393975095E+03  0.00000000000E+00 0.  1.
         25    2    1    2    0    0  0.89934882141E+02  0.14835214200E+02  0.44277852479E+02  0.16098563581E+03  0.12508988812E+03 0.  0.
          5    1    3    3  502    0  0.11177840037E+03 -0.15546251254E+01  0.37410832857E+01  0.11192986980E+03  0.41800000000E+01 0.  1.
         -5    1    3    3    0  502 -0.21843518231E+02  0.16389839325E+02  0.40536769193E+02  0.49055766006E+02  0.41800000000E+01 0.  1.
        -11    1    1    2    0    0 -0.15595686107E+02 -0.27694690950E+02 -0.19313501758E+02  0.37191836230E+02  0.00000000000E+00 0.  1.
         11    1    1    2    0    0 -0.74339196033E+02  0.12859476750E+02  0.64759057472E+02  0.99425438062E+02  0.00000000000E+00 0. -1.
</event>
<event>
 7    1  0.3715083E-009  0.1145064E+03  0.7561462E-02  0.1252445E+00
         -1   -1    0    0    0  501 -0.00000000000E+00  0.00000000000E+00  0.64744877876E+02  0.64744877876E+02  0.00000000000E+00 0.  1.
          1   -1    0    0  501    0  0.00000000000E+00 -0.00000000000E+00 -0.29184552418E+03  0.29184552418E+03  0.00000000000E+00 0. -1.
         25    2    1    2    0    0  0.15261313287E+02  0.76282838697E+02 -0.16691801283E+03  0.22262310009E+03  0.12508973789E+03 0.  0.
          5    1    3    3  502    0 -0.50542566762E+02  0.40177323986E+02 -0.11264457583E+03  0.12990396946E+03  0.41800000000E+01 0. -1.
         -5    1    3    3    0  502  0.65803880049E+02  0.36105514711E+02 -0.54273436999E+02  0.92719130635E+02  0.41800000000E+01 0. -1.
        -11    1    1    2    0    0  0.15374997462E+02 -0.28327309454E+02  0.18270187935E+02  0.37048978057E+02  0.00000000000E+00 0.  1.
         11    1    1    2    0    0 -0.30636310749E+02 -0.47955529243E+02 -0.78452821414E+02  0.96918323908E+02  0.00000000000E+00 0. -1.
</event>
<event>
 7    1  0.2648915E-009  0.2889989E+03  0.7561462E-02  0.1090873E+00
         -2   -1    0    0    0  501 -0.00000000000E+00  0.00000000000E+00  0.10498259000E+03  0.10498259000E+03  0.00000000000E+00 0.  1.
          2   -1    0    0  501    0  0.00000000000E+00 -0.00000000000E+00 -0.91102023607E+03  0.91102023607E+03  0.00000000000E+00 0. -1.
         25    2    1    2    0    0  0.25841658726E+03 -0.79675703829E+02 -0.24225088437E+03  0.38400640259E+03  0.12509226956E+03 0.  0.
          5    1    3    3  502    0  0.14914712118E+03  0.13989345276E+02 -0.91702607973E+02  0.17569122416E+03  0.41800000000E+01 0. -1.
         -5    1    3    3    0  502  0.10926946609E+03 -0.93665049105E+02 -0.15054827639E+03  0.20831517844E+03  0.41800000000E+01 0. -1.
        -11    1    1    2    0    0 -0.23039050618E+02  0.38991390506E+02 -0.11506172937E+03  0.12365406565E+03  0.00000000000E+00 0.  1.
         11    1    1    2    0    0 -0.23537753665E+03  0.40684313322E+02 -0.44872503233E+03  0.50834235781E+03  0.00000000000E+00 0. -1.
</event>
<event>
 7    1  0.2648915E-009  0.1120111E+03  0.7561462E-02  0.1256890E+00
         -2   -1    0    0    0  501 -0.00000000000E+00  0.00000000000E+00  0.11011184277E+03  0.11011184277E+03  0.00000000000E+00 0.  1.
          2   -1    0    0  501    0  0.00000000000E+00 -0.00000000000E+00 -0.20687226631E+03  0.20687226631E+03  0.00000000000E+00 0. -1.
         25    2    1    2    0    0 -0.49706034325E+01  0.60505869347E+02  0.36592163927E+02  0.14377641880E+03  0.12508798910E+03 0.  0.
          5    1    3    3  502    0  0.28343544816E+02  0.83954698043E+02 -0.22194786994E+00  0.88708903257E+02  0.41800000000E+01 0. -1.
         -5    1    3    3    0  502 -0.33314148248E+02 -0.23448828696E+02  0.36814111797E+02  0.55067515543E+02  0.41800000000E+01 0. -1.
        -11    1    1    2    0    0  0.13022819804E+02 -0.75888475375E+02 -0.13536210622E+03  0.15572910560E+03  0.00000000000E+00 0. -1.
         11    1    1    2    0    0 -0.80522163715E+01  0.15382606029E+02  0.20095187497E+01  0.17478584678E+02  0.00000000000E+00 0.  1.
</event>
<event>
 7    1  0.2648915E-009  0.1231605E+03  0.7561462E-02  0.1237972E+00
         -1   -1    0    0    0  501 -0.00000000000E+00  0.00000000000E+00  0.31196118247E+02  0.31196118247E+02  0.00000000000E+00 0.  1.
          1   -1    0    0  501    0  0.00000000000E+00 -0.00000000000E+00 -0.17264024554E+04  0.17264024554E+04  0.00000000000E+00 0. -1.
         25    2    1    2    0    0  0.10989214636E+03  0.18582201899E+02 -0.15268132756E+04  0.15359779749E+04  0.12509188177E+03 0.  0.
          5    1    3    3  502    0  0.47149666602E+02  0.27644219688E+02 -0.19248368968E+03  0.20013679606E+03  0.41800000000E+01 0. -1.
         -5    1    3    3    0  502  0.62742479757E+02 -0.90620177895E+01 -0.13343295859E+04  0.13358411788E+04  0.41800000000E+01 0. -1.
        -11    1    1    2    0    0 -0.61422053285E+02  0.21501608615E+02 -0.13623326253E+03  0.15097844092E+03  0.00000000000E+00 0. -1.
         11    1    1    2    0    0 -0.48470093074E+02 -0.40083810514E+02 -0.32159799073E+02  0.70642157841E+02  0.00000000000E+00 0.  1.
</event>
<event>
 7    1  0.2728960E-009  0.1048080E+03  0.7561462E-02  0.1270498E+00
          2   -1    0    0  501    0  0.00000000000E+00  0.00000000000E+00  0.92396585711E+02  0.92396585711E+02  0.00000000000E+00 0.  1.
         -2   -1    0    0    0  501 -0.00000000000E+00 -0.00000000000E+00 -0.16096978906E+03  0.16096978906E+03  0.00000000000E+00 0. -1.
         25    2    1    2    0    0 -0.32568971383E+02  0.42568077811E+02 -0.55106049798E+02  0.14682271998E+03  0.12508978868E+03 0.  0.
          5    1    3    3  502    0  0.28926023721E+02 -0.19548103450E+02  0.11342864585E+02  0.36945583956E+02  0.41800000000E+01 0.  1.
         -5    1    3    3    0  502 -0.61494995104E+02  0.62116181261E+02 -0.66448914383E+02  0.10987713602E+03  0.41800000000E+01 0.  1.
        -11    1    1    2    0    0  0.10446431403E+02 -0.58665390431E+02 -0.37266202756E+02  0.70281760303E+02  0.00000000000E+00 0. -1.
         11    1    1    2    0    0  0.22122539980E+02  0.16097312620E+02  0.23799049208E+02  0.36261894489E+02  0.00000000000E+00 0.  1.
</event>
<event>
 7    1  0.2648915E-009  0.1169607E+03  0.7561462E-02  0.1248197E+00
         -2   -1    0    0    0  501 -0.00000000000E+00  0.00000000000E+00  0.25237408565E+02  0.25237408565E+02  0.00000000000E+00 0.  1.
          2   -1    0    0  501    0  0.00000000000E+00 -0.00000000000E+00 -0.62969485317E+03  0.62969485317E+03  0.00000000000E+00 0. -1.
         25    2    1    2    0    0 -0.48052062886E+02  0.42549827522E+02 -0.31439003712E+03  0.34439659161E+03  0.12509367812E+03 0.  0.
          5    1    3    3  502    0  0.45476823127E+01 -0.39985663023E+02 -0.66352472720E+02  0.77715234657E+02  0.41800000000E+01 0. -1.
         -5    1    3    3    0  502 -0.52599745199E+02  0.82535490545E+02 -0.24803756440E+03  0.26668135695E+03  0.41800000000E+01 0. -1.
        -11    1    1    2    0    0 -0.18530727270E+02 -0.13112107182E+02 -0.18216883888E+02  0.29106186052E+02  0.00000000000E+00 0.  1.
         11    1    1    2    0    0  0.66582790156E+02 -0.29437720340E+02 -0.27185052360E+03  0.28142948407E+03  0.00000000000E+00 0. -1.
</event>
<event>
 7    1  0.3004039E-009  0.1600595E+03  0.7561462E-02  0.1188630E+00
         -1   -1    0    0    0  501 -0.00000000000E+00  0.00000000000E+00  0.44433513141E+02  0.44433513141E+02  0.00000000000E+00 0.  1.
          1   -1    0    0  501    0  0.00000000000E+00 -0.00000000000E+00 -0.74688957993E+03  0.74688957993E+03  0.00000000000E+00 0. -1.
         25    2    1    2    0    0  0.21196954411E+02  0.14419039392E+03 -0.37915903189E+03  0.42502933677E+03  0.12509270594E+03 0.  0.
          5    1    3    3  502    0  0.10151589560E+02  0.12657365565E+03 -0.15748781533E+03  0.20234581650E+03  0.41800000000E+01 0. -1.
         -5    1    3    3    0  502  0.11045364851E+02  0.17616738266E+02 -0.22167121656E+03  0.22268352028E+03  0.41800000000E+01 0. -1.
        -11    1    1    2    0    0  0.34050111709E+02 -0.31634230821E+02 -0.97804352768E+02  0.10828585359E+03  0.00000000000E+00 0.  1.
         11    1    1    2    0    0 -0.55247066120E+02 -0.11255616310E+03 -0.22549268212E+03  0.25800790270E+03  0.00000000000E+00 0. -1.
</event>
<event>
 7    1  0.2648915E-009  0.7707188E+02  0.7561462E-02  0.1337573E+00
         -3   -1    0    0    0  501 -0.00000000000E+00  0.00000000000E+00  0.27578235556E+03  0.27578235556E+03  0.00000000000E+00 0.  1.
          3   -1    0    0  501    0  0.00000000000E+00 -0.00000000000E+00 -0.48902177307E+02  0.48902177307E+02  0.00000000000E+00 0. -1.
         25    2    1    2    0    0  0.79387277698E+01 -0.14649648102E+02  0.18533316554E+03  0.22421937927E+03  0.12509321406E+03 0.  0.
          5    1    3    3  502    0 -0.27643078256E+02  0.39574009410E+02  0.33060464835E+02  0.58657554768E+02  0.41800000000E+01 0. -1.
         -5    1    3    3    0  502  0.35581806026E+02 -0.54223657512E+02  0.15227270070E+03  0.16556182450E+03  0.41800000000E+01 0. -1.
        -11    1    1    2    0    0 -0.18489232361E+02  0.21318060716E+02  0.66679068116E+02  0.72404485710E+02  0.00000000000E+00 0.  1.
         11    1    1    2    0    0  0.10550504592E+02 -0.66684126145E+01 -0.25132055396E+02  0.28060667889E+02  0.00000000000E+00 0. -1.
</event>
<event>
 7    1  0.3506333E-009  0.1799458E+03  0.7561462E-02  0.1167856E+00
          2   -1    0    0  501    0  0.00000000000E+00  0.00000000000E+00  0.12484573594E+04  0.12484573594E+04  0.00000000000E+00 0. -1.
         -2   -1    0    0    0  501 -0.00000000000E+00 -0.00000000000E+00 -0.33208632115E+02  0.33208632115E+02  0.00000000000E+00 0.  1.
         25    2    1    2    0    0  0.12191657829E+03 -0.10211402437E+03  0.83937326922E+03  0.86341458645E+03  0.12508531882E+03 0.  0.
          5    1    3    3  502    0  0.13197933902E+03 -0.86250411841E+02  0.51831515958E+03  0.54178017362E+03  0.41800000000E+01 0.  1.
         -5    1    3    3    0  502 -0.10062760735E+02 -0.15863612526E+02  0.32105810964E+03  0.32163441283E+03  0.41800000000E+01 0.  1.
        -11    1    1    2    0    0 -0.97939729193E+02  0.23473987596E+02  0.22244523905E+03  0.24418251990E+03  0.00000000000E+00 0. -1.
         11    1    1    2    0    0 -0.23976849094E+02  0.78640036771E+02  0.15343021904E+03  0.17406888519E+03  0.00000000000E+00 0.  1.
</event>
<event>
 7    1  0.2648915E-009  0.9785587E+02  0.7561462E-02  0.1284870E+00
         -3   -1    0    0    0  501 -0.00000000000E+00  0.00000000000E+00  0.39610594134E+03  0.39610594134E+03  0.00000000000E+00 0.  1.
          3   -1    0    0  501    0  0.00000000000E+00 -0.00000000000E+00 -0.34111753594E+02  0.34111753594E+02  0.00000000000E+00 0. -1.
         25    2    1    2    0    0 -0.43487872319E+02  0.48692795593E+01  0.19348849989E+03  0.23452041204E+03  0.12508844532E+03 0.  0.
          5    1    3    3  502    0 -0.75243119557E+02  0.15807854853E+02  0.18385936193E+03  0.19933176537E+03  0.41800000000E+01 0. -1.
         -5    1    3    3    0  502  0.31755247238E+02 -0.10938575294E+02  0.96291379571E+01  0.35188646669E+02  0.41800000000E+01 0. -1.
        -11    1    1    2    0    0  0.57399922337E+02 -0.23151806173E+02  0.65323451618E+02  0.89988391166E+02  0.00000000000E+00 0. -1.
         11    1    1    2    0    0 -0.13912050018E+02  0.18282526614E+02  0.10318223625E+03  0.10570889174E+03  0.00000000000E+00 0.  1.
</event>
<event>
 7    1  0.2648915E-009  0.9261096E+02  0.7561462E-02  0.1296649E+00
         -1   -1    0    0    0  501 -0.00000000000E+00  0.00000000000E+00  0.66107506690E+02  0.66107506690E+02  0.00000000000E+00 0.  1.
          1   -1    0    0  501    0  0.00000000000E+00 -0.00000000000E+00 -0.20847259896E+03  0.20847259896E+03  0.00000000000E+00 0. -1.
         25    2    1    2    0    0  0.42103021825E+02  0.60787121417E+00 -0.69640547078E+02  0.14922415876E+03  0.12508001362E+03 0.  0.
          5    1    3    3  502    0  0.41008277512E+02 -0.41207958730E+02  0.10030291529E+02  0.59142656648E+02  0.41800000000E+01 0.  1.
         -5    1    3    3    0  502  0.10947443131E+01  0.41815829945E+02 -0.79670838607E+02  0.90081502116E+02  0.41800000000E+01 0.  1.
        -11    1    1    2    0    0  0.17333282130E+02 -0.15904524256E+02 -0.57495043245E+02  0.62121466169E+02  0.00000000000E+00 0. -1.
         11    1    1    2    0    0 -0.59436303955E+02  0.15296653041E+02 -0.15229501947E+02  0.63234480718E+02  0.00000000000E+00 0.  1.
</event>
<event>
 7    1  0.2648915E-009  0.1258973E+03  0.7561462E-02  0.1233674E+00
         -2   -1    0    0    0  501 -0.00000000000E+00  0.00000000000E+00  0.29943938218E+03  0.29943938218E+03  0.00000000000E+00 0.  1.
          2   -1    0    0  501    0  0.00000000000E+00 -0.00000000000E+00 -0.61460353849E+02  0.61460353849E+02  0.00000000000E+00 0. -1.
         25    2    1    2    0    0 -0.52966348055E+02  0.62769756689E+02  0.99579805349E+02  0.17974901642E+03  0.12509234545E+03 0.  0.
          5    1    3    3  502    0 -0.15704147884E+02  0.94109884307E+02  0.42288101427E+02  0.10444638102E+03  0.41800000000E+01 0. -1.
         -5    1    3    3    0  502 -0.37262200171E+02 -0.31340127618E+02  0.57291703922E+02  0.75302635405E+02  0.41800000000E+01 0. -1.
        -11    1    1    2    0    0 -0.12977344103E+02 -0.32242873679E+02  0.82334485866E+02  0.89369916224E+02  0.00000000000E+00 0.  1.
         11    1    1    2    0    0  0.65943692158E+02 -0.30526883010E+02  0.56064737115E+02  0.91780803382E+02  0.00000000000E+00 0. -1.
</event>
<event>
 7    1  0.2648915E-009  0.1968096E+03  0.7561462E-02  0.1152459E+00
          2   -1    0    0  501    0  0.00000000000E+00  0.00000000000E+00  0.10492794204E+04  0.10492794204E+04  0.00000000000E+00 0. -1.
         -2   -1    0    0    0  501 -0.00000000000E+00 -0.00000000000E+00 -0.44192284471E+02  0.44192284471E+02  0.00000000000E+00 0.  1.
         25    2    1    2    0    0  0.14401208643E+03 -0.11679851161E+03  0.52892246912E+03  0.57427186326E+03  0.12509125167E+03 0.  0.
          5    1    3    3  502    0  0.26658678009E+02 -0.12617199495E+02  0.26884412576E+03  0.27048939940E+03  0.41800000000E+01 0.  1.
         -5    1    3    3    0  502  0.11735340842E+03 -0.10418131211E+03  0.26007834336E+03  0.30378246386E+03  0.41800000000E+01 0.  1.
        -11    1    1    2    0    0 -0.42366620511E+02 -0.10792922723E+02  0.93635778278E+02  0.10333961819E+03  0.00000000000E+00 0.  1.
         11    1    1    2    0    0 -0.10164546592E+03  0.12759143433E+03  0.38252888854E+03  0.41586022342E+03  0.00000000000E+00 0. -1.
</event>
<event>
 7    1  0.2648915E-009  0.2647504E+03  0.7561462E-02  0.1104322E+00
         -2   -1    0    0    0  501 -0.00000000000E+00  0.00000000000E+00  0.43244568516E+02  0.43244568516E+02  0.00000000000E+00 0. -1.
          2   -1    0    0  501    0  0.00000000000E+00 -0.00000000000E+00 -0.17698150924E+04  0.17698150924E+04  0.00000000000E+00 0.  1.
         25    2    1    2    0    0  0.35113760598E+02  0.24682156099E+03 -0.70922665825E+03  0.76210469990E+03  0.12508901502E+03 0.  0.
          5    1    3    3  502    0 -0.23063814292E+02  0.14841563467E+02 -0.16938978669E+03  0.17164668296E+03  0.41800000000E+01 0.  1.
         -5    1    3    3    0  502  0.58177574890E+02  0.23197999752E+03 -0.53983687156E+03  0.59045801694E+03  0.41800000000E+01 0.  1.
        -11    1    1    2    0    0 -0.36727697756E+02 -0.35014244292E+02 -0.23728015107E+03  0.24264540214E+03  0.00000000000E+00 0.  1.
         11    1    1    2    0    0  0.16139371586E+01 -0.21180731670E+03 -0.78006371454E+03  0.80830955886E+03  0.00000000000E+00 0. -1.
</event>
<event>
 7    1  0.2648915E-009  0.1205845E+03  0.7561462E-02  0.1242136E+00
         -2   -1    0    0    0  501 -0.00000000000E+00  0.00000000000E+00  0.42650335978E+03  0.42650335978E+03  0.00000000000E+00 0.  1.
          2   -1    0    0  501    0  0.00000000000E+00 -0.00000000000E+00 -0.42485480901E+02  0.42485480901E+02  0.00000000000E+00 0. -1.
         25    2    1    2    0    0 -0.33134651462E+02  0.70782499669E+02  0.20071874344E+03  0.24908535302E+03  0.12508969475E+03 0.  0.
          5    1    3    3  502    0 -0.75281183100E+02  0.55912281502E+02  0.17155427929E+03  0.19555506359E+03  0.41800000000E+01 0.  1.
         -5    1    3    3    0  502  0.42146531638E+02  0.14870218167E+02  0.29164464146E+02  0.53530289429E+02  0.41800000000E+01 0.  1.
        -11    1    1    2    0    0 -0.16382988277E+02 -0.42133315553E+02  0.25163626312E+02  0.51738058270E+02  0.00000000000E+00 0. -1.
         11    1    1    2    0    0  0.49517639739E+02 -0.28649184116E+02  0.15813550913E+03  0.16816542940E+03  0.00000000000E+00 0.  1.
</event>
<event>
 7    1  0.2648915E-009  0.2128155E+03  0.7561462E-02  0.1139356E+00
         -2   -1    0    0    0  501 -0.00000000000E+00  0.00000000000E+00  0.28672619461E+02  0.28672619461E+02  0.00000000000E+00 0.  1.
          2   -1    0    0  501    0  0.00000000000E+00 -0.00000000000E+00 -0.19107081875E+04  0.19107081875E+04  0.00000000000E+00 0. -1.
         25    2    1    2    0    0  0.16281873108E+03  0.11467018141E+03 -0.12027497630E+04  0.12255269251E+04  0.12510020805E+03 0.  0.
          5    1    3    3  502    0  0.13873109984E+03  0.42004980391E+02 -0.57030838702E+03  0.58845549122E+03  0.41800000000E+01 0.  1.
         -5    1    3    3    0  502  0.24087631248E+02  0.72665201020E+02 -0.63244137600E+03  0.63707143390E+03  0.41800000000E+01 0.  1.
        -11    1    1    2    0    0 -0.82965545195E+02 -0.84964472721E+02 -0.51810648457E+03  0.53154169419E+03  0.00000000000E+00 0.  1.
         11    1    1    2    0    0 -0.79853185890E+02 -0.29705708690E+02 -0.16117932050E+03  0.18231218769E+03  0.00000000000E+00 0. -1.
</event>
<event>
 7    1  0.2648915E-009  0.1174531E+03  0.7561462E-02  0.1247359E+00
         -2   -1    0    0    0  501 -0.00000000000E+00  0.00000000000E+00  0.25729290787E+03  0.25729290787E+03  0.00000000000E+00 0.  1.
          2   -1    0    0  501    0  0.00000000000E+00 -0.00000000000E+00 -0.72514480600E+02  0.72514480600E+02  0.00000000000E+00 0. -1.
         25    2    1    2    0    0  0.68060316145E+02  0.28378130590E+02  0.12633636718E+03  0.19247444831E+03  0.12509200874E+03 0.  0.
          5    1    3    3  502    0  0.21461093641E+02  0.56234550908E+02  0.62979089345E+01  0.60663327580E+02  0.41800000000E+01 0.  1.
         -5    1    3    3    0  502  0.46599222504E+02 -0.27856420319E+02  0.12003845824E+03  0.13181112073E+03  0.41800000000E+01 0.  1.
        -11    1    1    2    0    0 -0.79224800639E+02 -0.51465900347E+02  0.59528500432E+02  0.11166445405E+03  0.00000000000E+00 0.  1.
         11    1    1    2    0    0  0.11164484494E+02  0.23087769757E+02 -0.10864403403E+01  0.25668486106E+02  0.00000000000E+00 0. -1.
</event>
<event>
 7    1  0.2648915E-009  0.2162637E+03  0.7561462E-02  0.1136700E+00
         -1   -1    0    0    0  501 -0.00000000000E+00  0.00000000000E+00  0.38151892689E+03  0.38151892689E+03  0.00000000000E+00 0.  1.
          1   -1    0    0  501    0  0.00000000000E+00 -0.00000000000E+00 -0.15526726531E+03  0.15526726531E+03  0.00000000000E+00 0. -1.
         25    2    1    2    0    0 -0.17086029148E+03  0.11701961771E+03  0.18967508543E+03  0.30742794438E+03  0.12509385605E+03 0.  0.
          5    1    3    3  502    0 -0.58322957806E+02  0.63741340357E+02  0.76287873360E+01  0.86834305859E+02  0.41800000000E+01 0. -1.
         -5    1    3    3    0  502 -0.11253733367E+03  0.53278277357E+02  0.18204629809E+03  0.22059363853E+03  0.41800000000E+01 0. -1.
        -11    1    1    2    0    0  0.32257047255E+02  0.96616553516E+01 -0.11403449747E+02  0.35551418367E+02  0.00000000000E+00 0. -1.
         11    1    1    2    0    0  0.13860324423E+03 -0.12668127307E+03  0.47980025907E+02  0.19380682945E+03  0.00000000000E+00 0.  1.
</event>
<event>
 7    1  0.2648915E-009  0.9950083E+02  0.7561462E-02  0.1281349E+00
         -3   -1    0    0    0  501 -0.00000000000E+00  0.00000000000E+00  0.12472798807E+04  0.12472798807E+04  0.00000000000E+00 0.  1.
          3   -1    0    0  501    0  0.00000000000E+00 -0.00000000000E+00 -0.18797583741E+02  0.18797583741E+02  0.00000000000E+00 0. -1.
         25    2    1    2    0    0  0.24156997234E+02 -0.83941904186E+02  0.92512143508E+03  0.93761766166E+03  0.12508959200E+03 0.  0.
          5    1    3    3  502    0  0.54636685586E+00 -0.11623566669E+02  0.34971107391E+01  0.12849435878E+02  0.41800000000E+01 0. -1.
         -5    1    3    3    0  502  0.23610630378E+02 -0.72318337517E+02  0.92162432434E+03  0.92476822578E+03  0.41800000000E+01 0. -1.
        -11    1    1    2    0    0  0.16050884975E+02  0.63197011506E+02  0.25066034154E+03  0.25900212353E+03  0.00000000000E+00 0.  1.
         11    1    1    2    0    0 -0.40207882210E+02  0.20744892680E+02  0.52700520392E+02  0.69457679300E+02  0.00000000000E+00 0. -1.
</event>
<event>
 7    1  0.2648915E-009  0.2448761E+03  0.7561462E-02  0.1116587E+00
         -1   -1    0    0    0  501 -0.00000000000E+00  0.00000000000E+00  0.38723214047E+02  0.38723214047E+02  0.00000000000E+00 0.  1.
          1   -1    0    0  501    0  0.00000000000E+00 -0.00000000000E+00 -0.17697028075E+04  0.17697028075E+04  0.00000000000E+00 0. -1.
         25    2    1    2    0    0  0.95136021667E+02 -0.20979281224E+03 -0.68515565498E+03  0.73358591115E+03  0.12508449463E+03 0.  0.
          5    1    3    3  502    0  0.90888881528E+02 -0.21526537967E+03 -0.54245782106E+03  0.59065889691E+03  0.41800000000E+01 0.  1.
         -5    1    3    3    0  502  0.42471401390E+01  0.54725674267E+01 -0.14269783392E+03  0.14292701424E+03  0.41800000000E+01 0.  1.
        -11    1    1    2    0    0 -0.64884241968E+02  0.41619961257E+02 -0.33954875479E+03  0.34818894714E+03  0.00000000000E+00 0.  1.
         11    1    1    2    0    0 -0.30251779698E+02  0.16817285098E+03 -0.70627518372E+03  0.72665116330E+03  0.00000000000E+00 0. -1.
</event>
<event>
 7    1  0.2648915E-009  0.2700264E+03  0.7561462E-02  0.1101264E+00
          2   -1    0    0  501    0  0.00000000000E+00  0.00000000000E+00  0.13316669359E+04  0.13316669359E+04  0.00000000000E+00 0. -1.
         -2   -1    0    0    0  501 -0.00000000000E+00 -0.00000000000E+00 -0.60473857256E+02  0.60473857256E+02  0.00000000000E+00 0.  1.
         25    2    1    2    0    0  0.17244271059E+03  0.19655692265E+03  0.64244688141E+03  0.70480980713E+03  0.12509099291E+03 0.  0.
          5    1    3    3  502    0  0.16054018153E+03  0.17533779389E+03  0.43363249753E+03  0.49454130986E+03  0.41800000000E+01 0. -1.
         -5    1    3    3    0  502  0.11902529067E+02  0.21219128763E+02  0.20881438389E+03  0.21026849726E+03  0.41800000000E+01 0. -1.
        -11    1    1    2    0    0 -0.96042228288E+01 -0.71860042994E+02  0.15729613815E+03  0.17319983243E+03  0.00000000000E+00 0.  1.
         11    1    1    2    0    0 -0.16283848776E+03 -0.12469687966E+03  0.47145005904E+03  0.51413115356E+03  0.00000000000E+00 0. -1.
</event>
<event>
 7    1  0.2702288E-009  0.1463706E+03  0.7561462E-02  0.1205005E+00
         -1   -1    0    0    0  501 -0.00000000000E+00  0.00000000000E+00  0.39580685601E+02  0.39580685601E+02  0.00000000000E+00 0.  1.
          1   -1    0    0  501    0  0.00000000000E+00 -0.00000000000E+00 -0.64436115367E+03  0.64436115367E+03  0.00000000000E+00 0. -1.
         25    2    1    2    0    0 -0.11188246224E+03 -0.14180558874E+02 -0.25906576679E+03  0.30900122178E+03  0.12509160617E+03 0.  0.
          5    1    3    3  502    0 -0.10092352197E+03 -0.47988596298E+02 -0.24716951718E+03  0.27129081312E+03  0.41800000000E+01 0. -1.
         -5    1    3    3    0  502 -0.10958940276E+02  0.33808037424E+02 -0.11896249605E+02  0.37710408657E+02  0.41800000000E+01 0. -1.
        -11    1    1    2    0    0  0.24218057247E+02 -0.36547142523E+02 -0.10404258359E+03  0.11290291016E+03  0.00000000000E+00 0.  1.
         11    1    1    2    0    0  0.87664404994E+02  0.50727701397E+02 -0.24167211769E+03  0.26203770733E+03  0.00000000000E+00 0. -1.
</event>
<event>
 7    1  0.2648915E-009  0.1174491E+03  0.7561462E-02  0.1247366E+00
         -2   -1    0    0    0  501 -0.00000000000E+00  0.00000000000E+00  0.86599138508E+02  0.86599138508E+02  0.00000000000E+00 0.  1.
          2   -1    0    0  501    0  0.00000000000E+00 -0.00000000000E+00 -0.18386523822E+03  0.18386523822E+03  0.00000000000E+00 0. -1.
         25    2    1    2    0    0 -0.43549489794E+02  0.24034136028E+02 -0.74068705876E+01  0.13481942621E+03  0.12508884121E+03 0.  0.
          5    1    3    3  502    0  0.56070365147E+01  0.67824885219E+02  0.18370507388E+01  0.68209244746E+02  0.41800000000E+01 0. -1.
         -5    1    3    3    0  502 -0.49156526309E+02 -0.43790749191E+02 -0.92439213264E+01  0.66610181466E+02  0.41800000000E+01 0. -1.
        -11    1    1    2    0    0  0.22074286342E+02 -0.57157663915E+02 -0.63102056851E+02  0.87955342308E+02  0.00000000000E+00 0. -1.
         11    1    1    2    0    0  0.21475203452E+02  0.33123527887E+02 -0.26757172275E+02  0.47689608209E+02  0.00000000000E+00 0.  1.
</event>
<event>
 7    1  0.2648915E-009  0.1017656E+03  0.7561462E-02  0.1276626E+00
         -2   -1    0    0    0  501 -0.00000000000E+00  0.00000000000E+00  0.10373721532E+03  0.10373721532E+03  0.00000000000E+00 0.  1.
          2   -1    0    0  501    0  0.00000000000E+00 -0.00000000000E+00 -0.18544528836E+03  0.18544528836E+03  0.00000000000E+00 0. -1.
         25    2    1    2    0    0  0.37592731170E+02 -0.65867509947E+02 -0.14408747917E+01  0.14628998793E+03  0.12508773779E+03 0.  0.
          5    1    3    3  502    0  0.42024501296E+02 -0.36764331891E+02  0.57509633085E+02  0.80265217287E+02  0.41800000000E+01 0. -1.
         -5    1    3    3    0  502 -0.44317701256E+01 -0.29103178056E+02 -0.58950507877E+02  0.66024770642E+02  0.41800000000E+01 0. -1.
        -11    1    1    2    0    0 -0.20491968813E+02 -0.20957965914E+02 -0.14947285534E+02  0.32902560173E+02  0.00000000000E+00 0.  1.
         11    1    1    2    0    0 -0.17100762358E+02  0.86825475861E+02 -0.65319912715E+02  0.10998995558E+03  0.00000000000E+00 0. -1.
</event>
<event>
 7    1  0.2648915E-009  0.6654330E+02  0.7561462E-02  0.1372259E+00
          2   -1    0    0  501    0  0.00000000000E+00  0.00000000000E+00  0.10489825258E+04  0.10489825258E+04  0.00000000000E+00 0. -1.
         -2   -1    0    0    0  501 -0.00000000000E+00 -0.00000000000E+00 -0.11509277153E+02  0.11509277153E+02  0.00000000000E+00 0.  1.
         25    2    1    2    0    0  0.15303529013E+02  0.15364669784E+02  0.73741646327E+03  0.74826572887E+03  0.12509312378E+03 0.  0.
          5    1    3    3  502    0  0.62356527231E+01  0.31169536816E+02  0.72525522767E+03  0.72596352598E+03  0.41800000000E+01 0. -1.
         -5    1    3    3    0  502  0.90678762904E+01 -0.15804867032E+02  0.12161235601E+02  0.22302202889E+02  0.41800000000E+01 0. -1.
        -11    1    1    2    0    0 -0.23382749715E+02  0.28991021901E+02  0.90320165703E+02  0.97698335031E+02  0.00000000000E+00 0.  1.
         11    1    1    2    0    0  0.80792207019E+01 -0.44355691684E+02  0.20973661967E+03  0.21452773905E+03  0.00000000000E+00 0. -1.
</event>
<event>
 7    1  0.2648915E-009  0.1088917E+03  0.7561462E-02  0.1262636E+00
          2   -1    0    0  501    0  0.00000000000E+00  0.00000000000E+00  0.66390428875E+03  0.66390428875E+03  0.00000000000E+00 0. -1.
         -2   -1    0    0    0  501 -0.00000000000E+00 -0.00000000000E+00 -0.39289881005E+02  0.39289881005E+02  0.00000000000E+00 0.  1.
         25    2    1    2    0    0  0.49021939923E+02 -0.76989187966E+01  0.57241450419E+03  0.58802123269E+03  0.12509269179E+03 0.  0.
          5    1    3    3  502    0  0.13600934447E+02 -0.65269701077E+02  0.27629932957E+03  0.28426028779E+03  0.41800000000E+01 0.  1.
         -5    1    3    3    0  502  0.35421005476E+02  0.57570782280E+02  0.29611517462E+03  0.30376094490E+03  0.41800000000E+01 0.  1.
        -11    1    1    2    0    0 -0.56133969382E+02 -0.16116943049E+02  0.11720404188E+01  0.58413628980E+02  0.00000000000E+00 0.  1.
         11    1    1    2    0    0  0.71120294592E+01  0.23815861845E+02  0.51027863138E+02  0.56759308090E+02  0.00000000000E+00 0. -1.
</event>
<event>
 7    1  0.2648915E-009  0.1118537E+03  0.7561462E-02  0.1257175E+00
          1   -1    0    0  501    0  0.00000000000E+00  0.00000000000E+00  0.15537521396E+03  0.15537521396E+03  0.00000000000E+00 0. -1.
         -1   -1    0    0    0  501 -0.00000000000E+00 -0.00000000000E+00 -0.16037006882E+03  0.16037006882E+03  0.00000000000E+00 0.  1.
         25    2    1    2    0    0 -0.39300023457E+02  0.83711892083E+02  0.65369170403E+02  0.16873754811E+03  0.12508820481E+03 0.  0.
          5    1    3    3  502    0  0.22594433550E+02  0.54604836093E+02  0.79125411866E+02  0.98845838330E+02  0.41800000000E+01 0. -1.
         -5    1    3    3    0  502 -0.61894457006E+02  0.29107055990E+02 -0.13756241463E+02  0.69891709778E+02  0.41800000000E+01 0. -1.
        -11    1    1    2    0    0 -0.20084549907E+01 -0.19406968800E+02 -0.67782221544E+02  0.70534345442E+02  0.00000000000E+00 0.  1.
         11    1    1    2    0    0  0.41308478447E+02 -0.64304923282E+02 -0.25818037244E+01  0.76473389231E+02  0.00000000000E+00 0. -1.
</event>
<event>
 7    1  0.2648915E-009  0.1205137E+03  0.7561462E-02  0.1242252E+00
          1   -1    0    0  501    0  0.00000000000E+00  0.00000000000E+00  0.58799232032E+03  0.58799232032E+03  0.00000000000E+00 0. -1.
         -1   -1    0    0    0  501 -0.00000000000E+00 -0.00000000000E+00 -0.36482764930E+02  0.36482764930E+02  0.00000000000E+00 0.  1.
         25    2    1    2    0    0 -0.22639412859E+02  0.45544166373E+02  0.46591856196E+03  0.48509271729E+03  0.12509206166E+03 0.  0.
          5    1    3    3  502    0 -0.50399503422E+02  0.75178278525E+02  0.26476062601E+03  0.27983485307E+03  0.41800000000E+01 0. -1.
         -5    1    3    3    0  502  0.27760090563E+02 -0.29634112152E+02  0.20115793595E+03  0.20525786423E+03  0.41800000000E+01 0. -1.
        -11    1    1    2    0    0  0.10231043071E+02  0.30697301217E+02  0.19940148072E+02  0.38007999809E+02  0.00000000000E+00 0. -1.
         11    1    1    2    0    0  0.12408369788E+02 -0.76241467590E+02  0.65650845364E+02  0.10137436815E+03  0.00000000000E+00 0.  1.
</event>
<event>
 7    1  0.2648915E-009  0.1273114E+03  0.7561462E-02  0.1231501E+00
         -2   -1    0    0    0  501 -0.00000000000E+00  0.00000000000E+00  0.27072570371E+03  0.27072570371E+03  0.00000000000E+00 0.  1.
          2   -1    0    0  501    0  0.00000000000E+00 -0.00000000000E+00 -0.95822821848E+02  0.95822821848E+02  0.00000000000E+00 0. -1.
         25    2    1    2    0    0  0.40277554196E+01  0.75299525523E+02  0.19033057322E+03  0.23991783067E+03  0.12509435244E+03 0.  0.
          5    1    3    3  502    0  0.54469388087E+02  0.13858390356E+02  0.37793723461E+02  0.67858729394E+02  0.41800000000E+01 0. -1.
         -5    1    3    3    0  502 -0.50441632668E+02  0.61441135166E+02  0.15253684976E+03  0.17205910127E+03  0.41800000000E+01 0. -1.
        -11    1    1    2    0    0  0.43838634166E+02 -0.36053086296E+02  0.13443243182E+02  0.58329852256E+02  0.00000000000E+00 0.  1.
         11    1    1    2    0    0 -0.47866389585E+02 -0.39246439227E+02 -0.28870934537E+02  0.68300842637E+02  0.00000000000E+00 0. -1.
</event>
<event>
 7    1  0.2648915E-009  0.1254694E+03  0.7561462E-02  0.1234337E+00
         -2   -1    0    0    0  501 -0.00000000000E+00  0.00000000000E+00  0.21601770912E+02  0.21601770912E+02  0.00000000000E+00 0. -1.
          2   -1    0    0  501    0  0.00000000000E+00 -0.00000000000E+00 -0.11239211648E+04  0.11239211648E+04  0.00000000000E+00 0.  1.
         25    2    1    2    0    0  0.87775867417E+02 -0.79682959629E+02 -0.80819029894E+03  0.82636128978E+03  0.12508974769E+03 0.  0.
          5    1    3    3  502    0  0.60687678046E+02 -0.17942307343E+02 -0.12826339260E+03  0.14308700479E+03  0.41800000000E+01 0.  1.
         -5    1    3    3    0  502  0.27088189371E+02 -0.61740652285E+02 -0.67992690634E+03  0.68327428498E+03  0.41800000000E+01 0.  1.
        -11    1    1    2    0    0 -0.69355875084E+02  0.51873731435E+02 -0.24430365866E+03  0.25920146422E+03  0.00000000000E+00 0. -1.
         11    1    1    2    0    0 -0.18419992333E+02  0.27809228193E+02 -0.49825436296E+02  0.59960181724E+02  0.00000000000E+00 0.  1.
</event>
<event>
 7    1  0.2648915E-009  0.1118330E+03  0.7561462E-02  0.1257213E+00
          2   -1    0    0  501    0  0.00000000000E+00  0.00000000000E+00  0.24611894984E+03  0.24611894984E+03  0.00000000000E+00 0. -1.
         -2   -1    0    0    0  501 -0.00000000000E+00 -0.00000000000E+00 -0.58507814777E+02  0.58507814777E+02  0.00000000000E+00 0.  1.
         25    2    1    2    0    0 -0.35599782575E+02  0.21720893881E+02  0.69468371646E+02  0.14903421765E+03  0.12508477774E+03 0.  0.
          5    1    3    3  502    0 -0.55506663697E+01  0.67552436251E+02  0.11011061970E+02  0.68795766049E+02  0.41800000000E+01 0. -1.
         -5    1    3    3    0  502 -0.30049116206E+02 -0.45831542370E+02  0.58457309676E+02  0.80238451601E+02  0.41800000000E+01 0. -1.
        -11    1    1    2    0    0  0.45617850934E+00 -0.53446555249E+02  0.69968989480E+02  0.88047724875E+02  0.00000000000E+00 0.  1.
         11    1    1    2    0    0  0.35143604066E+02  0.31725661368E+02  0.48173773936E+02  0.67544822091E+02  0.00000000000E+00 0. -1.
</event>
<event>
 7    1  0.3354057E-009  0.1604839E+03  0.7561462E-02  0.1188152E+00
         -2   -1    0    0    0  501 -0.00000000000E+00  0.00000000000E+00  0.64922740860E+02  0.64922740860E+02  0.00000000000E+00 0.  1.
          2   -1    0    0  501    0  0.00000000000E+00 -0.00000000000E+00 -0.49281841542E+03  0.49281841542E+03  0.00000000000E+00 0. -1.
         25    2    1    2    0    0  0.90030954119E+02  0.10797820555E+03 -0.19831489958E+03  0.27338859207E+03  0.12509059639E+03 0.  0.
          5    1    3    3  502    0  0.99247199587E+02  0.10896748717E+03 -0.10866813388E+03  0.18316701560E+03  0.41800000000E+01 0.  1.
         -5    1    3    3    0  502 -0.92162454681E+01 -0.98928161434E+00 -0.89646765701E+02  0.90221576462E+02  0.41800000000E+01 0.  1.
        -11    1    1    2    0    0 -0.62155910369E+02 -0.11867649840E+02 -0.58627229320E+02  0.86263261730E+02  0.00000000000E+00 0.  1.
         11    1    1    2    0    0 -0.27875043750E+02 -0.96110555714E+02 -0.17095354566E+03  0.19808930248E+03  0.00000000000E+00 0. -1.
</event>
<event>
 7    1  0.2648915E-009  0.1366530E+03  0.7561462E-02  0.1217905E+00
         -2   -1    0    0    0  501 -0.00000000000E+00  0.00000000000E+00  0.13992250450E+02  0.13992250450E+02  0.00000000000E+00 0.  1.
          2   -1    0    0  501    0  0.00000000000E+00 -0.00000000000E+00 -0.16856721654E+04  0.16856721654E+04  0.00000000000E+00 0. -1.
         25    2    1    2    0    0 -0.44147563484E+02  0.84132584474E+02 -0.11731852853E+04  0.11836550695E+04  0.12509320785E+03 0.  0.
          5    1    3    3  502    0  0.17153487092E+02 -0.15920136646E+02 -0.64000517151E+02  0.68273211920E+02  0.41800000000E+01 0.  1.
         -5    1    3    3    0  502 -0.61301050576E+02  0.10005272112E+03 -0.11091847682E+04  0.11153818576E+04  0.41800000000E+01 0.  1.
        -11    1    1    2    0    0  0.28717752504E+02 -0.10346969186E+03 -0.37553352951E+03  0.39058432921E+03  0.00000000000E+00 0.  1.
         11    1    1    2    0    0  0.15429810980E+02  0.19337107386E+02 -0.12296110012E+03  0.12542501716E+03  0.00000000000E+00 0. -1.
</event>
<event>
 7    1  0.2648915E-009  0.1079289E+03  0.7561462E-02  0.1264454E+00
          1   -1    0    0  501    0  0.00000000000E+00  0.00000000000E+00  0.14992717159E+03  0.14992717159E+03  0.00000000000E+00 0. -1.
         -1   -1    0    0    0  501 -0.00000000000E+00 -0.00000000000E+00 -0.15299479444E+03  0.15299479444E+03  0.00000000000E+00 0.  1.
         25    2    1    2    0    0 -0.13709380982E+02  0.17028496512E+02 -0.10429050715E+03  0.16432177681E+03  0.12508884696E+03 0.  0.
          5    1    3    3  502    0  0.48766182136E+02 -0.18203923833E+02 -0.61570122228E+02  0.80733361841E+02  0.41800000000E+01 0. -1.
         -5    1    3    3    0  502 -0.62475563118E+02  0.35232420345E+02 -0.42720384918E+02  0.83588414974E+02  0.41800000000E+01 0. -1.
        -11    1    1    2    0    0  0.26146374787E+02 -0.50069808218E+02  0.45033332211E+02  0.72240013978E+02  0.00000000000E+00 0. -1.
         11    1    1    2    0    0 -0.12436993805E+02  0.33041311705E+02  0.56189552090E+02  0.66360175242E+02  0.00000000000E+00 0.  1.
</event>
<event>
 7    1  0.2648915E-009  0.1354566E+03  0.7561462E-02  0.1219577E+00
         -2   -1    0    0    0  501 -0.00000000000E+00  0.00000000000E+00  0.32537731904E+03  0.32537731904E+03  0.00000000000E+00 0.  1.
          2   -1    0    0  501    0  0.00000000000E+00 -0.00000000000E+00 -0.70533328075E+02  0.70533328075E+02  0.00000000000E+00 0. -1.
         25    2    1    2    0    0 -0.62060494208E+02 -0.61487644402E+02  0.16978051220E+03  0.22826544080E+03  0.12508978291E+03 0.  0.
          5    1    3    3  502    0 -0.50908897335E+02  0.11642524457E+02  0.11697909588E+02  0.53680328728E+02  0.41800000000E+01 0. -1.
         -5    1    3    3    0  502 -0.11151596873E+02 -0.73130168859E+02  0.15808260261E+03  0.17458511208E+03  0.41800000000E+01 0. -1.
        -11    1    1    2    0    0 -0.66347970122E+00  0.79239183416E+02  0.48424270107E+02  0.92866561954E+02  0.00000000000E+00 0.  1.
         11    1    1    2    0    0  0.62723973910E+02 -0.17751539014E+02  0.36639208655E+02  0.74778644353E+02  0.00000000000E+00 0. -1.
</event>
<event>
 7    1  0.2648915E-009  0.1867231E+03  0.7561462E-02  0.1161450E+00
          2   -1    0    0  501    0  0.00000000000E+00  0.00000000000E+00  0.65650613358E+03  0.65650613358E+03  0.00000000000E+00 0. -1.
         -2   -1    0    0    0  501 -0.00000000000E+00 -0.00000000000E+00 -0.73442039896E+02  0.73442039896E+02  0.00000000000E+00 0.  1.
         25    2    1    2    0    0  0.97407201863E+02  0.12269294298E+03  0.48265306201E+03  0.52263036353E+03  0.12508715916E+03 0.  0.
          5    1    3    3  502    0  0.56503040980E+02 -0.10068752512E+02  0.98096747107E+02  0.11372958107E+03  0.41800000000E+01 0. -1.
         -5    1    3    3    0  502  0.40904160883E+02  0.13276169549E+03  0.38455631491E+03  0.40890078247E+03  0.41800000000E+01 0. -1.
        -11    1    1    2    0    0  0.10310630634E+02 -0.39474426547E+02  0.50312178855E+01  0.41107816881E+02  0.00000000000E+00 0.  1.
         11    1    1    2    0    0 -0.10771783250E+03 -0.83218516432E+02  0.95379813786E+02  0.16620999306E+03  0.00000000000E+00 0. -1.
</event>
<event>
 7    1  0.2648915E-009  0.1286457E+03  0.7561462E-02  0.1229479E+00
          2   -1    0    0  501    0  0.00000000000E+00  0.00000000000E+00  0.12269427997E+03  0.12269427997E+03  0.00000000000E+00 0.  1.
         -2   -1    0    0    0  501 -0.00000000000E+00 -0.00000000000E+00 -0.17471804610E+03  0.17471804610E+03  0.00000000000E+00 0. -1.
         25    2    1    2    0    0 -0.71165962090E+01 -0.98236373403E+02 -0.31608985322E+02  0.16231951315E+03  0.12508982931E+03 0.  0.
          5    1    3    3  502    0  0.18398504458E+02 -0.10478429941E+03  0.16081958160E+02  0.10767709202E+03  0.41800000000E+01 0. -1.
         -5    1    3    3    0  502 -0.25515100667E+02  0.65479260017E+01 -0.47690943482E+02  0.54642421132E+02  0.41800000000E+01 0. -1.
        -11    1    1    2    0    0  0.21441756930E+02 -0.32249900854E+01 -0.24279682695E+02  0.32552303959E+02  0.00000000000E+00 0. -1.
         11    1    1    2    0    0 -0.14325160721E+02  0.10146136349E+03  0.38649018907E+01  0.10254050896E+03  0.00000000000E+00 0.  1.
</event>
<event>
 7    1  0.2648915E-009  0.8689135E+02  0.7561462E-02  0.1310559E+00
         -1   -1    0    0    0  501 -0.00000000000E+00  0.00000000000E+00  0.15251834674E+03  0.15251834674E+03  0.00000000000E+00 0.  1.
          1   -1    0    0  501    0  0.00000000000E+00 -0.00000000000E+00 -0.90221875613E+02  0.90221875613E+02  0.00000000000E+00 0. -1.
         25    2    1    2    0    0 -0.33348062257E+02  0.29739419670E+02  0.42485057128E+02  0.13945972868E+03  0.12509000562E+03 0.  0.
          5    1    3    3  502    0 -0.14902114278E+02 -0.20006430344E+02 -0.36384926684E+02  0.44313266127E+02  0.41800000000E+01 0.  1.
         -5    1    3    3    0  502 -0.18445947979E+02  0.49745850014E+02  0.78869983812E+02  0.95146462556E+02  0.41800000000E+01 0.  1.
        -11    1    1    2    0    0 -0.27720393333E+02 -0.18083832822E+02 -0.96595218346E+01  0.34478276903E+02  0.00000000000E+00 0.  1.
         11    1    1    2    0    0  0.61068455590E+02 -0.11655586848E+02  0.29470935832E+02  0.68802216765E+02  0.00000000000E+00 0. -1.
</event>
<event>
 7    1  0.2648915E-009  0.8574680E+02  0.7561462E-02  0.1313491E+00
         -1   -1    0    0    0  501 -0.00000000000E+00  0.00000000000E+00  0.19456735853E+03  0.19456735853E+03  0.00000000000E+00 0.  1.
          1   -1    0    0  501    0  0.00000000000E+00 -0.00000000000E+00 -0.70903366563E+02  0.70903366563E+02  0.00000000000E+00 0. -1.
         25    2    1    2    0    0  0.21061078731E+02  0.18686912635E+02  0.70489291887E+02  0.14632385897E+03  0.12509660943E+03 0.  0.
          5    1    3    3  502    0  0.48361309928E+02 -0.25888676797E+02  0.75753511770E+02  0.93622149248E+02  0.41800000000E+01 0. -1.
         -5    1    3    3    0  502 -0.27300231197E+02  0.44575589433E+02 -0.52642198829E+01  0.52701709722E+02  0.41800000000E+01 0. -1.
        -11    1    1    2    0    0 -0.33801658053E+02 -0.31333209540E+02  0.76743428332E+02  0.89520254129E+02  0.00000000000E+00 0.  1.
         11    1    1    2    0    0  0.12740579321E+02  0.12646296905E+02 -0.23568728252E+02  0.29626611994E+02  0.00000000000E+00 0. -1.
</event>
<event>
 7    1  0.2648915E-009  0.2597237E+03  0.7561462E-02  0.1107309E+00
         -2   -1    0    0    0  501 -0.00000000000E+00  0.00000000000E+00  0.65598462829E+02  0.65598462829E+02  0.00000000000E+00 0.  1.
          2   -1    0    0  501    0  0.00000000000E+00 -0.00000000000E+00 -0.11453254417E+04  0.11453254417E+04  0.00000000000E+00 0. -1.
         25    2    1    2    0    0 -0.23816473055E+03 -0.26479465142E+02 -0.71889869755E+03  0.76804029696E+03  0.12508780702E+03 0.  0.
          5    1    3    3  502    0 -0.22952188646E+03 -0.58489737371E+02 -0.63111884249E+03  0.67411409382E+03  0.41800000000E+01 0.  1.
         -5    1    3    3    0  502 -0.86428440936E+01  0.32010272229E+02 -0.87779855065E+02  0.93926203146E+02  0.41800000000E+01 0.  1.
        -11    1    1    2    0    0  0.62465422341E+02  0.37900548773E+02 -0.15941838394E+03  0.17536419739E+03  0.00000000000E+00 0. -1.
         11    1    1    2    0    0  0.17569930821E+03 -0.11421083631E+02 -0.20140989733E+03  0.26751941013E+03  0.00000000000E+00 0.  1.
</event>
<event>
 7    1  0.2648915E-009  0.1091214E+03  0.7561462E-02  0.1262206E+00
         -1   -1    0    0    0  501 -0.00000000000E+00  0.00000000000E+00  0.16475974397E+03  0.16475974397E+03  0.00000000000E+00 0.  1.
          1   -1    0    0  501    0  0.00000000000E+00 -0.00000000000E+00 -0.15752606845E+03  0.15752606845E+03  0.00000000000E+00 0. -1.
         25    2    1    2    0    0 -0.28393341686E+02  0.87420475256E+02 -0.74740804632E+02  0.17228575110E+03  0.12509065036E+03 0.  0.
          5    1    3    3  502    0  0.16845127182E+02  0.91877049751E+01 -0.79307956177E+02  0.81703099974E+02  0.41800000000E+01 0. -1.
         -5    1    3    3    0  502 -0.45238468868E+02  0.78232770281E+02  0.45671515443E+01  0.90582651124E+02  0.41800000000E+01 0. -1.
        -11    1    1    2    0    0  0.13952959805E+02 -0.91950680790E+02  0.92807535276E+02  0.13138817066E+03  0.00000000000E+00 0.  1.
         11    1    1    2    0    0  0.14440381881E+02  0.45302055340E+01 -0.10833055124E+02  0.18611890672E+02  0.00000000000E+00 0. -1.
</event>
<event>
 7    1  0.2648915E-009  0.6949104E+02  0.7561462E-02  0.1361832E+00
         -2   -1    0    0    0  501 -0.00000000000E+00  0.00000000000E+00  0.13249707503E+03  0.13249707503E+03  0.00000000000E+00 0.  1.
          2   -1    0    0  501    0  0.00000000000E+00 -0.00000000000E+00 -0.10439556297E+03  0.10439556297E+03  0.00000000000E+00 0. -1.
         25    2    1    2    0    0  0.28744867373E+02 -0.32508737563E+02 -0.85092770655E+01  0.13267422301E+03  0.12508779412E+03 0.  0.
          5    1    3    3  502    0 -0.77127514820E+01 -0.16560964601E+02  0.54724511724E+02  0.57844590650E+02  0.41800000000E+01 0. -1.
         -5    1    3    3    0  502  0.36457618855E+02 -0.15947772962E+02 -0.63233788790E+02  0.74829632364E+02  0.41800000000E+01 0. -1.
        -11    1    1    2    0    0  0.16966399118E+02  0.29979996477E+02 -0.12901067815E+02  0.36784459199E+02  0.00000000000E+00 0. -1.
         11    1    1    2    0    0 -0.45711266491E+02  0.25287410863E+01  0.49511856942E+02  0.67433955790E+02  0.00000000000E+00 0.  1.
</event>
<event>
 7    1  0.2648915E-009  0.1107706E+03  0.7561462E-02  0.1259150E+00
          1   -1    0    0  501    0  0.00000000000E+00  0.00000000000E+00  0.75805239144E+03  0.75805239144E+03  0.00000000000E+00 0. -1.
         -1   -1    0    0    0  501 -0.00000000000E+00 -0.00000000000E+00 -0.20937929184E+02  0.20937929184E+02  0.00000000000E+00 0.  1.
         25    2    1    2    0    0 -0.10845196945E+02 -0.60470001978E+02  0.36607992593E+03  0.39170935363E+03  0.12508983216E+03 0.  0.
          5    1    3    3  502    0  0.54651079546E+02 -0.16039775821E+02  0.11468859537E+03  0.12812088515E+03  0.41800000000E+01 0.  1.
         -5    1    3    3    0  502 -0.65496276491E+02 -0.44430226157E+02  0.25139133056E+03  0.26358846847E+03  0.41800000000E+01 0.  1.
        -11    1    1    2    0    0  0.10918310665E+01  0.70893623506E+02  0.36493233734E+03  0.37175624915E+03  0.00000000000E+00 0. -1.
         11    1    1    2    0    0  0.97533658783E+01 -0.10423621527E+02  0.61021989815E+01  0.15524717843E+02  0.00000000000E+00 0.  1.
</event>
<event>
 7    1  0.2648915E-009  0.1127272E+03  0.7561462E-02  0.1255601E+00
          1   -1    0    0  501    0  0.00000000000E+00  0.00000000000E+00  0.24327210562E+03  0.24327210562E+03  0.00000000000E+00 0. -1.
         -1   -1    0    0    0  501 -0.00000000000E+00 -0.00000000000E+00 -0.11162822928E+03  0.11162822928E+03  0.00000000000E+00 0.  1.
         25    2    1    2    0    0 -0.48022440986E+02 -0.63176062591E+02 -0.32435639096E+02  0.15164658883E+03  0.12508895834E+03 0.  0.
          5    1    3    3  502    0  0.20645702578E+02  0.36467148264E+01 -0.49787357960E+02  0.54182995271E+02  0.41800000000E+01 0.  1.
         -5    1    3    3    0  502 -0.68668143564E+02 -0.66822777418E+02  0.17351718864E+02  0.97463593561E+02  0.41800000000E+01 0.  1.
        -11    1    1    2    0    0  0.59922645404E+02  0.19674229829E+02  0.49683886975E+02  0.80288774910E+02  0.00000000000E+00 0.  1.
         11    1    1    2    0    0 -0.11900204418E+02  0.43501832762E+02  0.11439562847E+03  0.12296497116E+03  0.00000000000E+00 0. -1.
</event>
<event>
 7    1  0.2648915E-009  0.2109493E+03  0.7561462E-02  0.1140816E+00
          2   -1    0    0  501    0  0.00000000000E+00  0.00000000000E+00  0.31183789289E+03  0.31183789289E+03  0.00000000000E+00 0. -1.
         -2   -1    0    0    0  501 -0.00000000000E+00 -0.00000000000E+00 -0.22913607665E+03  0.22913607665E+03  0.00000000000E+00 0.  1.
         25    2    1    2    0    0 -0.18733838752E+03  0.80105998324E+02  0.17742699467E+03  0.29772470218E+03  0.12508803878E+03 0.  0.
          5    1    3    3  502    0 -0.10172942610E+03  0.27209920497E+02  0.14783109246E+02  0.10642024538E+03  0.41800000000E+01 0. -1.
         -5    1    3    3    0  502 -0.85608961416E+02  0.52896077827E+02  0.16264388543E+03  0.19130445680E+03  0.41800000000E+01 0. -1.
        -11    1    1    2    0    0  0.40236358894E+02 -0.52459960948E+02  0.45620647198E-02  0.66113630218E+02  0.00000000000E+00 0. -1.
         11    1    1    2    0    0  0.14710202862E+03 -0.27646037375E+02 -0.94729740496E+02  0.17713563713E+03  0.00000000000E+00 0.  1.
</event>
<event>
 7    1  0.2648915E-009  0.1487197E+03  0.7561462E-02  0.1202055E+00
          1   -1    0    0  501    0  0.00000000000E+00  0.00000000000E+00  0.83327435364E+02  0.83327435364E+02  0.00000000000E+00 0. -1.
         -1   -1    0    0    0  501 -0.00000000000E+00 -0.00000000000E+00 -0.33641097580E+03  0.33641097580E+03  0.00000000000E+00 0.  1.
         25    2    1    2    0    0  0.12163006648E+03  0.34094294355E+02 -0.15898689155E+03  0.23849851679E+03  0.12509363233E+03 0.  0.
          5    1    3    3  502    0  0.13947808545E+03  0.34819122423E+02 -0.96053586606E+02  0.17294586293E+03  0.41800000000E+01 0.  1.
         -5    1    3    3    0  502 -0.17848018969E+02 -0.72482806820E+00 -0.62933304940E+02  0.65552653856E+02  0.41800000000E+01 0.  1.
        -11    1    1    2    0    0 -0.96766985233E+02 -0.46646271354E+02 -0.30278320721E+02  0.11160869486E+03  0.00000000000E+00 0. -1.
         11    1    1    2    0    0 -0.24863081245E+02  0.12551976999E+02 -0.63818328174E+02  0.69631199520E+02  0.00000000000E+00 0.  1.
</event>
<event>
 7    1  0.2648915E-009  0.1130817E+03  0.7561462E-02  0.1254967E+00
          1   -1    0    0  501    0  0.00000000000E+00  0.00000000000E+00  0.15782458685E+03  0.15782458685E+03  0.00000000000E+00 0. -1.
         -1   -1    0    0    0  501 -0.00000000000E+00 -0.00000000000E+00 -0.11867299653E+03  0.11867299653E+03  0.00000000000E+00 0.  1.
         25    2    1    2    0    0  0.64146137974E+02  0.29598478028E+02  0.66086648609E+02  0.15813305049E+03  0.12509124516E+03 0.  0.
          5    1    3    3  502    0 -0.40254789444E+01 -0.29427489954E+02  0.60693877313E+02  0.67700818230E+02  0.41800000000E+01 0. -1.
         -5    1    3    3    0  502  0.68171616919E+02  0.59025967982E+02  0.53927712960E+01  0.90432232261E+02  0.41800000000E+01 0. -1.
        -11    1    1    2    0    0 -0.80679980632E+02 -0.11687394150E+02  0.68696131311E+00  0.81525004586E+02  0.00000000000E+00 0. -1.
         11    1    1    2    0    0  0.16533842658E+02 -0.17911083878E+02 -0.27622019598E+02  0.36839528300E+02  0.00000000000E+00 0.  1.
</event>
<event>
 7    1  0.2648915E-009  0.1141011E+03  0.7561462E-02  0.1253158E+00
          2   -1    0    0  501    0  0.00000000000E+00  0.00000000000E+00  0.34838562539E+03  0.34838562539E+03  0.00000000000E+00 0. -1.
         -2   -1    0    0    0  501 -0.00000000000E+00 -0.00000000000E+00 -0.45831578769E+02  0.45831578769E+02  0.00000000000E+00 0.  1.
         25    2    1    2    0    0 -0.22953065950E+02  0.54983140702E+02  0.15946856978E+03  0.21125258228E+03  0.12508972689E+03 0.  0.
          5    1    3    3  502    0  0.31558158387E+01  0.83554254032E+02  0.56047599513E+02  0.10074759725E+03  0.41800000000E+01 0.  1.
         -5    1    3    3    0  502 -0.26108881789E+02 -0.28571113330E+02  0.10342097027E+03  0.11050498503E+03  0.41800000000E+01 0.  1.
        -11    1    1    2    0    0  0.50988724592E+02 -0.91144314302E+01  0.35801881254E+02  0.62965844687E+02  0.00000000000E+00 0.  1.
         11    1    1    2    0    0 -0.28035658642E+02 -0.45868709272E+02  0.10728359559E+03  0.11999877720E+03  0.00000000000E+00 0. -1.
</event>
<event>
 7    1  0.2648915E-009  0.1306386E+03  0.7561462E-02  0.1226511E+00
         -2   -1    0    0    0  501 -0.00000000000E+00  0.00000000000E+00  0.16446975097E+03  0.16446975097E+03  0.00000000000E+00 0. -1.
          2   -1    0    0  501    0  0.00000000000E+00 -0.00000000000E+00 -0.12746392557E+03  0.12746392557E+03  0.00000000000E+00 0.  1.
         25    2    1    2    0    0 -0.23528748971E+02 -0.90934323062E+02  0.35847916987E+02  0.16048466579E+03  0.12509037398E+03 0.  0.
          5    1    3    3  502    0 -0.33783036839E+02  0.20701825783E+02  0.26631881965E+02  0.47922736835E+02  0.41800000000E+01 0.  1.
         -5    1    3    3    0  502  0.10254287868E+02 -0.11163614885E+03  0.92160350217E+01  0.11256192896E+03  0.41800000000E+01 0.  1.
        -11    1    1    2    0    0  0.29711233510E+02  0.15400608577E+02 -0.34174386907E+02  0.47831212212E+02  0.00000000000E+00 0.  1.
         11    1    1    2    0    0 -0.61824845390E+01  0.75533714486E+02  0.35332295325E+02  0.83617798536E+02  0.00000000000E+00 0. -1.
</event>
<event>
 7    1  0.2648915E-009  0.1198331E+03  0.7561462E-02  0.1243373E+00
         -2   -1    0    0    0  501 -0.00000000000E+00  0.00000000000E+00  0.88413182346E+02  0.88413182346E+02  0.00000000000E+00 0.  1.
          2   -1    0    0  501    0  0.00000000000E+00 -0.00000000000E+00 -0.21853723611E+03  0.21853723611E+03  0.00000000000E+00 0. -1.
         25    2    1    2    0    0  0.64728733458E+02  0.32100045216E+02 -0.12771221937E+03  0.19281029549E+03  0.12508068289E+03 0.  0.
          5    1    3    3  502    0  0.61747155567E+01  0.72692361206E+02 -0.63884441996E+02  0.97061840180E+02  0.41800000000E+01 0. -1.
         -5    1    3    3    0  502  0.58554017901E+02 -0.40592315990E+02 -0.63827777378E+02  0.95748455313E+02  0.41800000000E+01 0. -1.
        -11    1    1    2    0    0 -0.44812455269E+01 -0.34632224914E+02  0.29681546545E+02  0.45830849537E+02  0.00000000000E+00 0.  1.
         11    1    1    2    0    0 -0.60247487931E+02  0.25321796977E+01 -0.32093380931E+02  0.68309273423E+02  0.00000000000E+00 0. -1.
</event>
<event>
 7    1  0.2648915E-009  0.2615817E+03  0.7561462E-02  0.1106197E+00
         -1   -1    0    0    0  501 -0.00000000000E+00  0.00000000000E+00  0.37976981807E+03  0.37976981807E+03  0.00000000000E+00 0.  1.
          1   -1    0    0  501    0  0.00000000000E+00 -0.00000000000E+00 -0.20605016761E+03  0.20605016761E+03  0.00000000000E+00 0. -1.
         25    2    1    2    0    0  0.59481047668E+02 -0.23538637733E+03 -0.91408974228E+00  0.27311959078E+03  0.12509489856E+03 0.  0.
          5    1    3    3  502    0  0.37463188394E+02 -0.54595522734E+01 -0.16647217031E+02  0.41568009701E+02  0.41800000000E+01 0.  1.
         -5    1    3    3    0  502  0.22017859274E+02 -0.22992682505E+03  0.15733127289E+02  0.23155158108E+03  0.41800000000E+01 0.  1.
        -11    1    1    2    0    0 -0.56149351650E+02  0.75265056941E+02  0.95973065621E+02  0.13426990658E+03  0.00000000000E+00 0.  1.
         11    1    1    2    0    0 -0.33316960182E+01  0.16012132038E+03  0.78660674579E+02  0.17843048833E+03  0.00000000000E+00 0. -1.
</event>
<event>
 7    1  0.2648915E-009  0.1010856E+03  0.7561462E-02  0.1278029E+00
          2   -1    0    0  501    0  0.00000000000E+00  0.00000000000E+00  0.49898952557E+03  0.49898952557E+03  0.00000000000E+00 0. -1.
         -2   -1    0    0    0  501 -0.00000000000E+00 -0.00000000000E+00 -0.51001266391E+02  0.51001266391E+02  0.00000000000E+00 0.  1.
         25    2    1    2    0    0  0.40733463678E+02 -0.64231972330E+02  0.87805126617E+02  0.17072121783E+03  0.12510408716E+03 0.  0.
          5    1    3    3  502    0  0.25482744164E+02 -0.64604405789E+02  0.11779978624E+03  0.13681140865E+03  0.41800000000E+01 0. -1.
         -5    1    3    3    0  502  0.15250719513E+02  0.37243345870E+00 -0.29994659628E+02  0.33909809179E+02  0.41800000000E+01 0. -1.
        -11    1    1    2    0    0  0.27239776559E+02  0.75304296430E+01  0.60285147557E+02  0.66580866723E+02  0.00000000000E+00 0.  1.
         11    1    1    2    0    0 -0.67973240236E+02  0.56701542687E+02  0.29989798500E+03  0.31268870741E+03  0.00000000000E+00 0. -1.
</event>
<event>
 7    1  0.2648915E-009  0.1475136E+03  0.7561462E-02  0.1203562E+00
          2   -1    0    0  501    0  0.00000000000E+00  0.00000000000E+00  0.77843797312E+03  0.77843797312E+03  0.00000000000E+00 0. -1.
         -2   -1    0    0    0  501 -0.00000000000E+00 -0.00000000000E+00 -0.39282768980E+02  0.39282768980E+02  0.00000000000E+00 0.  1.
         25    2    1    2    0    0  0.89105447142E+02  0.69783226223E+02  0.56979990964E+03  0.59424597255E+03  0.12508740739E+03 0.  0.
          5    1    3    3  502    0 -0.17551227246E+02  0.42158715181E+02  0.28829985872E+03  0.29192410620E+03  0.41800000000E+01 0.  1.
         -5    1    3    3    0  502  0.10665667439E+03  0.27624511042E+02  0.28150005092E+03  0.30232186634E+03  0.41800000000E+01 0.  1.
        -11    1    1    2    0    0 -0.31746349313E+01  0.16699979984E+02  0.30526920998E+01  0.17270974711E+02  0.00000000000E+00 0.  1.
         11    1    1    2    0    0 -0.85930812210E+02 -0.86483206207E+02  0.16630260240E+03  0.20620379484E+03  0.00000000000E+00 0. -1.
</event>
<event>
 7    1  0.2648915E-009  0.9504200E+02  0.7561462E-02  0.1291082E+00
          3   -1    0    0  501    0  0.00000000000E+00  0.00000000000E+00  0.11997591127E+03  0.11997591127E+03  0.00000000000E+00 0. -1.
         -3   -1    0    0    0  501 -0.00000000000E+00 -0.00000000000E+00 -0.16277592854E+03  0.16277592854E+03  0.00000000000E+00 0.  1.
         25    2    1    2    0    0  0.28216838886E+02 -0.45605723560E+02 -0.92041164996E+02  0.16430402816E+03  0.12509262807E+03 0.  0.
          5    1    3    3  502    0  0.69038327484E+02  0.67768195879E+01 -0.49578859829E+02  0.85368329534E+02  0.41800000000E+01 0.  1.
         -5    1    3    3    0  502 -0.40821488598E+02 -0.52382543147E+02 -0.42462305167E+02  0.78935698629E+02  0.41800000000E+01 0.  1.
        -11    1    1    2    0    0 -0.15241481410E+02  0.18309438547E+02  0.75027531174E+02  0.78718922309E+02  0.00000000000E+00 0. -1.
         11    1    1    2    0    0 -0.12975357476E+02  0.27296285013E+02 -0.25786383443E+02  0.39728889340E+02  0.00000000000E+00 0.  1.
</event>
<event>
 7    1  0.2648915E-009  0.1460846E+03  0.7561462E-02  0.1205368E+00
          1   -1    0    0  501    0  0.00000000000E+00  0.00000000000E+00  0.23772344934E+03  0.23772344934E+03  0.00000000000E+00 0. -1.
         -1   -1    0    0    0  501 -0.00000000000E+00 -0.00000000000E+00 -0.11223212120E+03  0.11223212120E+03  0.00000000000E+00 0.  1.
         25    2    1    2    0    0 -0.21936014561E+02  0.94032870949E+02 -0.10150855482E+02  0.15834737270E+03  0.12508989176E+03 0.  0.
          5    1    3    3  502    0 -0.55420470853E+02 -0.25005802048E+01 -0.66017273786E+01  0.56024429451E+02  0.41800000000E+01 0. -1.
         -5    1    3    3    0  502  0.33484456291E+02  0.96533451154E+02 -0.35491281035E+01  0.10232294325E+03  0.41800000000E+01 0. -1.
        -11    1    1    2    0    0  0.37856229799E+02 -0.10715323944E+03  0.10538200561E+03  0.15498476688E+03  0.00000000000E+00 0.  1.
         11    1    1    2    0    0 -0.15920215238E+02  0.13120368493E+02  0.30260178010E+02  0.36623430967E+02  0.00000000000E+00 0. -1.
</event>
<event>
 7    1  0.2648915E-009  0.1063825E+03  0.7561462E-02  0.1267420E+00
         -1   -1    0    0    0  501 -0.00000000000E+00  0.00000000000E+00  0.42335474154E+02  0.42335474154E+02  0.00000000000E+00 0.  1.
          1   -1    0    0  501    0  0.00000000000E+00 -0.00000000000E+00 -0.42640985192E+03  0.42640985192E+03  0.00000000000E+00 0. -1.
         25    2    1    2    0    0  0.33492389825E+02  0.58938244485E+02 -0.14137993711E+03  0.20057926083E+03  0.12509315097E+03 0.  0.
          5    1    3    3  502    0 -0.35514136469E+02 -0.51954577309E+01 -0.80759924136E+02  0.88475332249E+02  0.41800000000E+01 0.  1.
         -5    1    3    3    0  502  0.69006526293E+02  0.64133702216E+02 -0.60620012977E+02  0.11210392859E+03  0.41800000000E+01 0.  1.
        -11    1    1    2    0    0 -0.40835856979E+02 -0.25609197986E+02 -0.22425100932E+03  0.22937286983E+03  0.00000000000E+00 0. -1.
         11    1    1    2    0    0  0.73434671548E+01 -0.33329046499E+02 -0.18443431339E+02  0.38793195408E+02  0.00000000000E+00 0.  1.
</event>
<event>
 7    1  0.2648915E-009  0.1050220E+03  0.7561462E-02  0.1270076E+00
          4   -1    0    0  501    0  0.00000000000E+00  0.00000000000E+00  0.14872187278E+03  0.14872187278E+03  0.00000000000E+00 0. -1.
         -4   -1    0    0    0  501 -0.00000000000E+00 -0.00000000000E+00 -0.10453991617E+03  0.10453991617E+03  0.00000000000E+00 0.  1.
         25    2    1    2    0    0  0.52589455836E+02 -0.88507111548E+01  0.72616833207E+01  0.13616242712E+03  0.12507393238E+03 0.  0.
          5    1    3    3  502    0  0.67252824389E+02  0.30591172669E+02  0.38662003194E+02  0.83492425552E+02  0.41800000000E+01 0. -1.
         -5    1    3    3    0  502 -0.14663368553E+02 -0.39441883824E+02 -0.31400319874E+02  0.52670001567E+02  0.41800000000E+01 0. -1.
        -11    1    1    2    0    0 -0.63776401400E+02 -0.16645952329E+02  0.53325500105E+02  0.84782817044E+02  0.00000000000E+00 0. -1.
         11    1    1    2    0    0  0.11186945564E+02  0.25496663484E+02 -0.16405226822E+02  0.32316544787E+02  0.00000000000E+00 0.  1.
</event>
<event>
 7    1  0.2648915E-009  0.1640865E+03  0.7561462E-02  0.1184159E+00
         -1   -1    0    0    0  501 -0.00000000000E+00  0.00000000000E+00  0.53979676107E+03  0.53979676107E+03  0.00000000000E+00 0.  1.
          1   -1    0    0  501    0  0.00000000000E+00 -0.00000000000E+00 -0.53299667530E+02  0.53299667530E+02  0.00000000000E+00 0. -1.
         25    2    1    2    0    0 -0.68952942646E+02 -0.10546649495E+03  0.31299350498E+03  0.35984762880E+03  0.12509073482E+03 0.  0.
          5    1    3    3  502    0  0.66660972447E+00  0.25389273423E+02  0.76476960030E+02  0.80692362643E+02  0.41800000000E+01 0.  1.
         -5    1    3    3    0  502 -0.69619552370E+02 -0.13085576837E+03  0.23651654495E+03  0.27915526616E+03  0.41800000000E+01 0.  1.
        -11    1    1    2    0    0  0.14487687493E+02  0.98130292083E+02  0.12774879724E+03  0.16173806760E+03  0.00000000000E+00 0.  1.
         11    1    1    2    0    0  0.54465255153E+02  0.73362028662E+01  0.45754791312E+02  0.71510732197E+02  0.00000000000E+00 0. -1.
</event>
<event>
 7    1  0.2648915E-009  0.6345237E+02  0.7561462E-02  0.1383889E+00
         -2   -1    0    0    0  501 -0.00000000000E+00  0.00000000000E+00  0.23433932336E+02  0.23433932336E+02  0.00000000000E+00 0. -1.
          2   -1    0    0  501    0  0.00000000000E+00 -0.00000000000E+00 -0.10704682961E+04  0.10704682961E+04  0.00000000000E+00 0.  1.
         25    2    1    2    0    0  0.16355425586E+02 -0.13674006450E+02 -0.95669603619E+03  0.96507449474E+03  0.12508795435E+03 0.  0.
          5    1    3    3  502    0  0.13706646884E+02 -0.23100985871E+02 -0.95359886379E+03  0.95398626465E+03  0.41800000000E+01 0.  1.
         -5    1    3    3    0  502  0.26487787019E+01  0.94269794214E+01 -0.30971724060E+01  0.11088230090E+02  0.41800000000E+01 0.  1.
        -11    1    1    2    0    0  0.35715739567E+02  0.87351832865E+01 -0.53238720600E+02  0.64701459420E+02  0.00000000000E+00 0. -1.
         11    1    1    2    0    0 -0.52071165153E+02  0.49388231635E+01 -0.37099606949E+02  0.64126274260E+02  0.00000000000E+00 0.  1.
</event>
<event>
 7    1  0.2648915E-009  0.1295716E+03  0.7561462E-02  0.1228093E+00
         -1   -1    0    0    0  501 -0.00000000000E+00  0.00000000000E+00  0.11583961337E+03  0.11583961337E+03  0.00000000000E+00 0.  1.
          1   -1    0    0  501    0  0.00000000000E+00 -0.00000000000E+00 -0.18215336692E+03  0.18215336692E+03  0.00000000000E+00 0. -1.
         25    2    1    2    0    0 -0.73580586664E+02 -0.26747058202E+01 -0.81091619196E+02  0.16626588913E+03  0.12508892197E+03 0.  0.
          5    1    3    3  502    0  0.35392501818E+02  0.38700788327E+01 -0.21977578718E+02  0.42048698689E+02  0.41800000000E+01 0.  1.
         -5    1    3    3    0  502 -0.10897308848E+03 -0.65447846529E+01 -0.59114040477E+02  0.12421719044E+03  0.41800000000E+01 0.  1.
        -11    1    1    2    0    0  0.52372145302E+02 -0.40326509912E+02 -0.23731654040E+02  0.70230053458E+02  0.00000000000E+00 0. -1.
         11    1    1    2    0    0  0.21208441362E+02  0.43001215732E+02  0.38509519693E+02  0.61497037705E+02  0.00000000000E+00 0.  1.
</event>
<event>
 7    1  0.2648915E-009  0.1598518E+03  0.7561462E-02  0.1188864E+00
         -2   -1    0    0    0  501 -0.00000000000E+00  0.00000000000E+00  0.47222699541E+02  0.47222699541E+02  0.00000000000E+00 0.  1.
          2   -1    0    0  501    0  0.00000000000E+00 -0.00000000000E+00 -0.83599596525E+03  0.83599596525E+03  0.00000000000E+00 0. -1.
         25    2    1    2    0    0 -0.43812641124E+00 -0.14111857806E+03 -0.21965641170E+03  0.28949991580E+03  0.12508643818E+03 0.  0.
          5    1    3    3  502    0  0.36496331791E+02 -0.13134974322E+03 -0.11634596188E+03  0.17927239755E+03  0.41800000000E+01 0.  1.
         -5    1    3    3    0  502 -0.36934458202E+02 -0.97688348413E+01 -0.10331044982E+03  0.11022751824E+03  0.41800000000E+01 0.  1.
        -11    1    1    2    0    0 -0.10193056081E+02  0.12592872438E+03 -0.55794933236E+03  0.57207464504E+03  0.00000000000E+00 0. -1.
         11    1    1    2    0    0  0.10631182492E+02  0.15189853688E+02 -0.11167521655E+02  0.21644103959E+02  0.00000000000E+00 0.  1.
</event>
<event>
 7    1  0.2648915E-009  0.1488429E+03  0.7561462E-02  0.1201902E+00
         -2   -1    0    0    0  501 -0.00000000000E+00  0.00000000000E+00  0.43930508123E+02  0.43930508123E+02  0.00000000000E+00 0.  1.
          2   -1    0    0  501    0  0.00000000000E+00 -0.00000000000E+00 -0.10745877260E+04  0.10745877260E+04  0.00000000000E+00 0. -1.
         25    2    1    2    0    0 -0.88712006341E+02  0.11278632025E+03 -0.84644985086E+03  0.86759144186E+03  0.12508791252E+03 0.  0.
          5    1    3    3  502    0 -0.57863034532E+02  0.45107464498E+02 -0.14861053086E+03  0.16578714185E+03  0.41800000000E+01 0.  1.
         -5    1    3    3    0  502 -0.30848971810E+02  0.67678855751E+02 -0.69783932000E+03  0.70180430002E+03  0.41800000000E+01 0.  1.
        -11    1    1    2    0    0  0.79606809853E+01 -0.40657334826E+02 -0.52455489800E+01  0.41760113757E+02  0.00000000000E+00 0.  1.
         11    1    1    2    0    0  0.80751325356E+02 -0.72128985423E+02 -0.17896181807E+03  0.20916667854E+03  0.00000000000E+00 0. -1.
</event>
<event>
 7    1  0.2648915E-009  0.2323883E+03  0.7561462E-02  0.1124970E+00
         -1   -1    0    0    0  501 -0.00000000000E+00  0.00000000000E+00  0.28883690179E+02  0.28883690179E+02  0.00000000000E+00 0.  1.
          1   -1    0    0  501    0  0.00000000000E+00 -0.00000000000E+00 -0.23019147061E+04  0.23019147061E+04  0.00000000000E+00 0. -1.
         25    2    1    2    0    0  0.74924946669E+02  0.19597319961E+03 -0.16282585625E+04  0.16464790403E+04  0.12509213061E+03 0.  0.
          5    1    3    3  502    0  0.10584039169E+03  0.11642761242E+03 -0.96774548880E+03  0.98046233020E+03  0.41800000000E+01 0.  1.
         -5    1    3    3    0  502 -0.30915445025E+02  0.79545587187E+02 -0.66051307371E+03  0.66601671009E+03  0.41800000000E+01 0.  1.
        -11    1    1    2    0    0 -0.81922334092E+02 -0.11802907537E+03 -0.49370067067E+03  0.51418137236E+03  0.00000000000E+00 0. -1.
         11    1    1    2    0    0  0.69973874235E+01 -0.77944124239E+02 -0.15107178276E+03  0.17013798365E+03  0.00000000000E+00 0.  1.
</event>
<event>
 7    1  0.2648915E-009  0.2141878E+03  0.7561462E-02  0.1138292E+00
         -2   -1    0    0    0  501 -0.00000000000E+00  0.00000000000E+00  0.75964614887E+02  0.75964614887E+02  0.00000000000E+00 0. -1.
          2   -1    0    0  501    0  0.00000000000E+00 -0.00000000000E+00 -0.60753372420E+03  0.60753372420E+03  0.00000000000E+00 0.  1.
         25    2    1    2    0    0  0.16442057387E+03 -0.83586115865E+02 -0.26039970310E+03  0.34274958805E+03  0.12509400806E+03 0.  0.
          5    1    3    3  502    0  0.17079797126E+03 -0.10423935780E+03 -0.24215439856E+03  0.31415603741E+03  0.41800000000E+01 0.  1.
         -5    1    3    3    0  502 -0.63773973923E+01  0.20653241935E+02 -0.18245304543E+02  0.28593550633E+02  0.41800000000E+01 0.  1.
        -11    1    1    2    0    0 -0.45799053266E+02  0.74242615812E+02 -0.12047367371E+03  0.14873945455E+03  0.00000000000E+00 0. -1.
         11    1    1    2    0    0 -0.11862152061E+03  0.93435000521E+01 -0.15069573250E+03  0.19200929649E+03  0.00000000000E+00 0.  1.
</event>
<event>
 7    1  0.5502594E-009  0.1046945E+03  0.7561462E-02  0.1270723E+00
         -2   -1    0    0    0  501 -0.00000000000E+00  0.00000000000E+00  0.27656652510E+02  0.27656652510E+02  0.00000000000E+00 0.  1.
          2   -1    0    0  501    0  0.00000000000E+00 -0.00000000000E+00 -0.10158405422E+04  0.10158405422E+04  0.00000000000E+00 0. -1.
         25    2    1    2    0    0 -0.79077464309E+02  0.74584095936E+00 -0.83862682175E+03  0.85158470907E+03  0.12509104252E+03 0.  0.
          5    1    3    3  502    0  0.23575334098E+00 -0.39546771453E+02 -0.49533411165E+03  0.49692791960E+03  0.41800000000E+01 0. -1.
         -5    1    3    3    0  502 -0.79313217650E+02  0.40292612412E+02 -0.34329271009E+03  0.35465678946E+03  0.41800000000E+01 0. -1.
        -11    1    1    2    0    0  0.30416617221E+02 -0.77784839424E+01 -0.13783859100E+03  0.14136885295E+03  0.00000000000E+00 0. -1.
         11    1    1    2    0    0  0.48660847088E+02  0.70326429830E+01 -0.11718476974E+02  0.50543632727E+02  0.00000000000E+00 0.  1.
</event>
<event>
 7    1  0.2648915E-009  0.9636282E+02  0.7561462E-02  0.1288136E+00
         -1   -1    0    0    0  501 -0.00000000000E+00  0.00000000000E+00  0.16239790035E+03  0.16239790035E+03  0.00000000000E+00 0.  1.
          1   -1    0    0  501    0  0.00000000000E+00 -0.00000000000E+00 -0.13102830090E+03  0.13102830090E+03  0.00000000000E+00 0. -1.
         25    2    1    2    0    0 -0.56733943103E+02 -0.45660640726E+02  0.82603678719E+02  0.16665770449E+03  0.12509112005E+03 0.  0.
          5    1    3    3  502    0  0.10411982371E+02 -0.51161004761E+02 -0.87179655324E+01  0.53097392667E+02  0.41800000000E+01 0.  1.
         -5    1    3    3    0  502 -0.67145925474E+02  0.55003640346E+01  0.91321644252E+02  0.11356031182E+03  0.41800000000E+01 0.  1.
        -11    1    1    2    0    0  0.18309595332E+02  0.15827668800E+02  0.25980999491E+02  0.35507305100E+02  0.00000000000E+00 0.  1.
         11    1    1    2    0    0  0.38424347771E+02  0.29832971926E+02 -0.77215078763E+02  0.91261191664E+02  0.00000000000E+00 0. -1.
</event>
<event>
 7    1  0.2648915E-009  0.1270074E+03  0.7561462E-02  0.1231965E+00
          1   -1    0    0  501    0  0.00000000000E+00  0.00000000000E+00  0.55312165414E+03  0.55312165414E+03  0.00000000000E+00 0. -1.
         -1   -1    0    0    0  501 -0.00000000000E+00 -0.00000000000E+00 -0.35688856857E+02  0.35688856857E+02  0.00000000000E+00 0.  1.
         25    2    1    2    0    0 -0.61339457647E+02  0.48341239370E+01  0.20822197683E+03  0.25057923919E+03  0.12509062977E+03 0.  0.
          5    1    3    3  502    0 -0.14252153836E+02 -0.47117823415E+02  0.27174687296E+02  0.56383944541E+02  0.41800000000E+01 0. -1.
         -5    1    3    3    0  502 -0.47087303811E+02  0.51951947352E+02  0.18104728954E+03  0.19419529465E+03  0.41800000000E+01 0. -1.
        -11    1    1    2    0    0  0.22623361337E+02  0.57051254530E+02  0.10846019387E+03  0.12462052711E+03  0.00000000000E+00 0. -1.
         11    1    1    2    0    0  0.38716096310E+02 -0.61885378467E+02  0.20075062657E+03  0.21361074470E+03  0.00000000000E+00 0.  1.
</event>
<event>
 7    1  0.2648915E-009  0.1275148E+03  0.7561462E-02  0.1231191E+00
          1   -1    0    0  501    0  0.00000000000E+00  0.00000000000E+00  0.23080756460E+03  0.23080756460E+03  0.00000000000E+00 0. -1.
         -1   -1    0    0    0  501 -0.00000000000E+00 -0.00000000000E+00 -0.88171338002E+02  0.88171338002E+02  0.00000000000E+00 0.  1.
         25    2    1    2    0    0  0.62746221629E+02 -0.38596449715E+02  0.14338891307E+03  0.20404691622E+03  0.12509192367E+03 0.  0.
          5    1    3    3  502    0 -0.22526901508E+02  0.27946775941E+02  0.27060671516E+02  0.45146826245E+02  0.41800000000E+01 0. -1.
         -5    1    3    3    0  502  0.85273123138E+02 -0.66543225656E+02  0.11632824156E+03  0.15890008998E+03  0.41800000000E+01 0. -1.
        -11    1    1    2    0    0  0.14412282831E+02 -0.11682078560E+02  0.11798793458E+02  0.21986277150E+02  0.00000000000E+00 0. -1.
         11    1    1    2    0    0 -0.77158504460E+02  0.50278528275E+02 -0.12551479934E+02  0.92945709231E+02  0.00000000000E+00 0.  1.
</event>
<event>
 7    1  0.2648915E-009  0.1199620E+03  0.7561462E-02  0.1243160E+00
          1   -1    0    0  501    0  0.00000000000E+00  0.00000000000E+00  0.19074945840E+03  0.19074945840E+03  0.00000000000E+00 0. -1.
         -1   -1    0    0    0  501 -0.00000000000E+00 -0.00000000000E+00 -0.97829025997E+02  0.97829025997E+02  0.00000000000E+00 0.  1.
         25    2    1    2    0    0 -0.29556382393E+02 -0.77349518140E+02  0.48766374123E+02  0.15774347090E+03  0.12509322792E+03 0.  0.
          5    1    3    3  502    0  0.97699122597E+01 -0.97343511909E+02  0.92303908712E+01  0.98355899732E+02  0.41800000000E+01 0.  1.
         -5    1    3    3    0  502 -0.39326294652E+02  0.19993993770E+02  0.39535983251E+02  0.59387571171E+02  0.41800000000E+01 0.  1.
        -11    1    1    2    0    0  0.13014608501E+02 -0.48132515761E+01 -0.20658959736E+02  0.24886543403E+02  0.00000000000E+00 0.  1.
         11    1    1    2    0    0  0.16541773892E+02  0.82162769716E+02  0.64813018020E+02  0.10594847010E+03  0.00000000000E+00 0. -1.
</event>
<event>
 7    1  0.2648915E-009  0.1137132E+03  0.7561462E-02  0.1253844E+00
          1   -1    0    0  501    0  0.00000000000E+00  0.00000000000E+00  0.47001796431E+03  0.47001796431E+03  0.00000000000E+00 0. -1.
         -1   -1    0    0    0  501 -0.00000000000E+00 -0.00000000000E+00 -0.36287744175E+02  0.36287744175E+02  0.00000000000E+00 0.  1.
         25    2    1    2    0    0 -0.22554310224E+02 -0.42977710882E+02  0.14082728460E+03  0.19451221000E+03  0.12508755018E+03 0.  0.
          5    1    3    3  502    0  0.12961450671E+02 -0.75792580424E+02  0.50853971842E+02  0.92282789852E+02  0.41800000000E+01 0. -1.
         -5    1    3    3    0  502 -0.35515760895E+02  0.32814869541E+02  0.89973312762E+02  0.10222942015E+03  0.41800000000E+01 0. -1.
        -11    1    1    2    0    0  0.14344808131E+02  0.71128943055E+02  0.15985850239E+03  0.17555580551E+03  0.00000000000E+00 0.  1.
         11    1    1    2    0    0  0.82095020936E+01 -0.28151232173E+02  0.13304443314E+03  0.13623769298E+03  0.00000000000E+00 0. -1.
</event>
<event>
 7    1  0.2648915E-009  0.1367960E+03  0.7561462E-02  0.1217706E+00
          2   -1    0    0  501    0  0.00000000000E+00  0.00000000000E+00  0.54988546333E+03  0.54988546333E+03  0.00000000000E+00 0. -1.
         -2   -1    0    0    0  501 -0.00000000000E+00 -0.00000000000E+00 -0.45322510860E+02  0.45322510860E+02  0.00000000000E+00 0.  1.
         25    2    1    2    0    0 -0.48101340451E+02  0.10497110387E+03  0.30004424329E+03  0.34497407544E+03  0.12509153926E+03 0.  0.
          5    1    3    3  502    0 -0.65479608666E+02  0.17078762184E+02  0.67231610890E+02  0.95482067278E+02  0.41800000000E+01 0.  1.
         -5    1    3    3    0  502  0.17378268216E+02  0.87892341685E+02  0.23281263240E+03  0.24949200816E+03  0.41800000000E+01 0.  1.
        -11    1    1    2    0    0  0.33814060952E+02 -0.85557149089E+02  0.75581576797E+02  0.11906297170E+03  0.00000000000E+00 0.  1.
         11    1    1    2    0    0  0.14287279499E+02 -0.19413954780E+02  0.12893713238E+03  0.13117092705E+03  0.00000000000E+00 0. -1.
</event>
<event>
 7    1  0.2648915E-009  0.1579509E+03  0.7561462E-02  0.1191030E+00
         -1   -1    0    0    0  501 -0.00000000000E+00  0.00000000000E+00  0.20387882244E+03  0.20387882244E+03  0.00000000000E+00 0.  1.
          1   -1    0    0  501    0  0.00000000000E+00 -0.00000000000E+00 -0.26406051623E+03  0.26406051623E+03  0.00000000000E+00 0. -1.
         25    2    1    2    0    0 -0.10339097367E+03  0.96150389179E+02  0.11836343855E+03  0.22269352501E+03  0.12509161331E+03 0.  0.
          5    1    3    3  502    0 -0.44694746115E+02  0.77209980481E+02  0.13201352973E+03  0.15938646695E+03  0.41800000000E+01 0.  1.
         -5    1    3    3    0  502 -0.58696227556E+02  0.18940408699E+02 -0.13650091177E+02  0.63307058059E+02  0.41800000000E+01 0.  1.
        -11    1    1    2    0    0  0.74418571504E+02 -0.11500345841E+02 -0.57609487707E+02  0.94811575311E+02  0.00000000000E+00 0.  1.
         11    1    1    2    0    0  0.28972402167E+02 -0.84650043338E+02 -0.12093564464E+03  0.15043423835E+03  0.00000000000E+00 0. -1.
</event>
<event>
 7    1  0.2648915E-009  0.1068760E+03  0.7561462E-02  0.1266467E+00
          1   -1    0    0  501    0  0.00000000000E+00  0.00000000000E+00  0.22420814518E+02  0.22420814518E+02  0.00000000000E+00 0. -1.
         -1   -1    0    0    0  501 -0.00000000000E+00 -0.00000000000E+00 -0.76691430725E+03  0.76691430725E+03  0.00000000000E+00 0.  1.
         25    2    1    2    0    0  0.11816915453E+02 -0.61141188868E+02 -0.52806581355E+03  0.54624088417E+03  0.12509082954E+03 0.  0.
          5    1    3    3  502    0 -0.30814735286E+02 -0.18965561384E+01 -0.37832944432E+03  0.37961004422E+03  0.41800000000E+01 0. -1.
         -5    1    3    3    0  502  0.42631650739E+02 -0.59244632730E+02 -0.14973636923E+03  0.16663083995E+03  0.41800000000E+01 0. -1.
        -11    1    1    2    0    0  0.36623523021E+02  0.78188936413E+01 -0.91781977860E+02  0.99127942560E+02  0.00000000000E+00 0.  1.
         11    1    1    2    0    0 -0.48440438475E+02  0.53322295227E+02 -0.12464570132E+03  0.14396629503E+03  0.00000000000E+00 0. -1.
</event>
<event>
 7    1  0.2648915E-009  0.1221462E+03  0.7561462E-02  0.1239598E+00
          2   -1    0    0  501    0  0.00000000000E+00  0.00000000000E+00  0.43550613280E+03  0.43550613280E+03  0.00000000000E+00 0. -1.
         -2   -1    0    0    0  501 -0.00000000000E+00 -0.00000000000E+00 -0.38854491791E+02  0.38854491791E+02  0.00000000000E+00 0.  1.
         25    2    1    2    0    0  0.46507684063E+02 -0.34740831013E+02  0.29425632555E+03  0.32497068879E+03  0.12509705604E+03 0.  0.
          5    1    3    3  502    0  0.71098482985E+02  0.21221866643E+02  0.19038386805E+03  0.20437429271E+03  0.41800000000E+01 0.  1.
         -5    1    3    3    0  502 -0.24590798922E+02 -0.55962697656E+02  0.10387245749E+03  0.12059639607E+03  0.41800000000E+01 0.  1.
        -11    1    1    2    0    0  0.28008804122E+02  0.14244193477E+02  0.27183903983E+02  0.41549425891E+02  0.00000000000E+00 0.  1.
         11    1    1    2    0    0 -0.74516488184E+02  0.20496637535E+02  0.75211411480E+02  0.10784050991E+03  0.00000000000E+00 0. -1.
</event>
<event>
 7    1  0.2648915E-009  0.3813996E+03  0.7561462E-02  0.1050418E+00
          1   -1    0    0  501    0  0.00000000000E+00  0.00000000000E+00  0.11800573895E+04  0.11800573895E+04  0.00000000000E+00 0. -1.
         -1   -1    0    0    0  501 -0.00000000000E+00 -0.00000000000E+00 -0.17630142453E+03  0.17630142453E+03  0.00000000000E+00 0.  1.
         25    2    1    2    0    0  0.36243474331E+03 -0.55483845581E+02  0.87569381785E+03  0.95756167228E+03  0.12508914152E+03 0.  0.
          5    1    3    3  502    0  0.19048502792E+03 -0.89322272785E+02  0.43301259362E+03  0.48143576198E+03  0.41800000000E+01 0. -1.
         -5    1    3    3    0  502  0.17194971538E+03  0.33838427204E+02  0.44268122423E+03  0.47612591030E+03  0.41800000000E+01 0. -1.
        -11    1    1    2    0    0 -0.17110247884E+03  0.70704683659E+02  0.74148032650E+02  0.19943204683E+03  0.00000000000E+00 0. -1.
         11    1    1    2    0    0 -0.19133226447E+03 -0.15220838079E+02  0.53914114490E+02  0.19936509494E+03  0.00000000000E+00 0.  1.
</event>
<event>
 7    1  0.2648915E-009  0.8290472E+02  0.7561462E-02  0.1321005E+00
         -1   -1    0    0    0  501 -0.00000000000E+00  0.00000000000E+00  0.99087392105E+02  0.99087392105E+02  0.00000000000E+00 0. -1.
          1   -1    0    0  501    0  0.00000000000E+00 -0.00000000000E+00 -0.26527852380E+03  0.26527852380E+03  0.00000000000E+00 0.  1.
         25    2    1    2    0    0  0.33788343287E+01 -0.53961089852E+02  0.37693814771E+02  0.14139452991E+03  0.12509345977E+03 0.  0.
          5    1    3    3  502    0  0.23139954801E+02 -0.70263230049E+01 -0.40872269666E+02  0.47674328006E+02  0.41800000000E+01 0. -1.
         -5    1    3    3    0  502 -0.19761120473E+02 -0.46934766847E+02  0.78566084437E+02  0.93720201905E+02  0.41800000000E+01 0. -1.
        -11    1    1    2    0    0 -0.41100128894E+01 -0.17869926039E+02 -0.45600267307E+02  0.49148864087E+02  0.00000000000E+00 0. -1.
         11    1    1    2    0    0  0.73117856070E+00  0.71831015891E+02 -0.15828467916E+03  0.17382252191E+03  0.00000000000E+00 0.  1.
</event>
<event>
 7    1  0.2648915E-009  0.1458000E+03  0.7561462E-02  0.1205731E+00
          2   -1    0    0  501    0  0.00000000000E+00  0.00000000000E+00  0.44297237803E+02  0.44297237803E+02  0.00000000000E+00 0. -1.
         -2   -1    0    0    0  501 -0.00000000000E+00 -0.00000000000E+00 -0.64467654669E+03  0.64467654669E+03  0.00000000000E+00 0.  1.
         25    2    1    2    0    0 -0.10172306729E+03 -0.23030623787E+02 -0.15794759785E+03  0.22687901705E+03  0.12509457487E+03 0.  0.
          5    1    3    3  502    0  0.20762508929E+02  0.19286736358E+02 -0.10440361646E+02  0.30488252289E+02  0.41800000000E+01 0. -1.
         -5    1    3    3    0  502 -0.12248557622E+03 -0.42317360145E+02 -0.14750723621E+03  0.19639076476E+03  0.41800000000E+01 0. -1.
        -11    1    1    2    0    0  0.28536353291E+01 -0.23749343173E+02 -0.85076198428E+02  0.88374962940E+02  0.00000000000E+00 0. -1.
         11    1    1    2    0    0  0.98869431961E+02  0.46779966960E+02 -0.35735551260E+03  0.37371980450E+03  0.00000000000E+00 0.  1.
</event>
<event>
 7    1  0.2648915E-009  0.1031577E+03  0.7561462E-02  0.1273792E+00
          2   -1    0    0  501    0  0.00000000000E+00  0.00000000000E+00  0.16169236352E+03  0.16169236352E+03  0.00000000000E+00 0. -1.
         -2   -1    0    0    0  501 -0.00000000000E+00 -0.00000000000E+00 -0.81858965417E+02  0.81858965417E+02  0.00000000000E+00 0.  1.
         25    2    1    2    0    0 -0.27049646893E+02 -0.16903853055E+02  0.68246297746E+02  0.14602080438E+03  0.12508834682E+03 0.  0.
          5    1    3    3  502    0  0.37202294148E+02  0.12304090731E+02 -0.99060877160E+01  0.40632552374E+02  0.41800000000E+01 0. -1.
         -5    1    3    3    0  502 -0.64251941041E+02 -0.29207943786E+02  0.78152385462E+02  0.10538825201E+03  0.41800000000E+01 0. -1.
        -11    1    1    2    0    0  0.60059359576E+02  0.19366647008E+02  0.12872357294E+02  0.64404124645E+02  0.00000000000E+00 0. -1.
         11    1    1    2    0    0 -0.33009712683E+02 -0.24627939532E+01 -0.12852569380E+01  0.33126399909E+02  0.00000000000E+00 0.  1.
</event>
<event>
 7    1  0.2648915E-009  0.1577083E+03  0.7561462E-02  0.1191309E+00
         -1   -1    0    0    0  501 -0.00000000000E+00  0.00000000000E+00  0.28044929053E+02  0.28044929053E+02  0.00000000000E+00 0.  1.
          1   -1    0    0  501    0  0.00000000000E+00 -0.00000000000E+00 -0.10957707921E+04  0.10957707921E+04  0.00000000000E+00 0. -1.
         25    2    1    2    0    0 -0.11637176911E+03  0.41716069548E+02 -0.76363342764E+03  0.78362321816E+03  0.12508683833E+03 0.  0.
          5    1    3    3  502    0 -0.31528412054E+02  0.77432120559E+02 -0.35959475349E+03  0.36920947062E+03  0.41800000000E+01 0.  1.
         -5    1    3    3    0  502 -0.84843357051E+02 -0.35716051011E+02 -0.40403867415E+03  0.41441374754E+03  0.41800000000E+01 0. -1.
        -11    1    1    2    0    0  0.12452357381E+02 -0.33002705208E+02 -0.27918235124E+02  0.44985193207E+02  0.00000000000E+00 0.  1.
         11    1    1    2    0    0  0.10391941172E+03 -0.87133643396E+01 -0.27617420030E+03  0.29520730981E+03  0.00000000000E+00 0. -1.
</event>
<event>
 7    1  0.2648915E-009  0.8703249E+02  0.7561462E-02  0.1310201E+00
         -1   -1    0    0    0  501 -0.00000000000E+00  0.00000000000E+00  0.12237941769E+03  0.12237941769E+03  0.00000000000E+00 0.  1.
          1   -1    0    0  501    0  0.00000000000E+00 -0.00000000000E+00 -0.11302739763E+03  0.11302739763E+03  0.00000000000E+00 0. -1.
         25    2    1    2    0    0 -0.42982927318E+02  0.10870688178E+02  0.52150416879E+00  0.13271331638E+03  0.12508736337E+03 0.  0.
          5    1    3    3  502    0 -0.19295093391E+02 -0.43467031387E+02  0.39232564503E+02  0.61792798643E+02  0.41800000000E+01 0. -1.
         -5    1    3    3    0  502 -0.23687833927E+02  0.54337719565E+02 -0.38711060334E+02  0.70920517736E+02  0.41800000000E+01 0. -1.
        -11    1    1    2    0    0  0.54391304016E+02 -0.69300089965E+01  0.40914900274E+02  0.68413946252E+02  0.00000000000E+00 0.  1.
         11    1    1    2    0    0 -0.11408376698E+02 -0.39406791817E+01 -0.32084384383E+02  0.34279552689E+02  0.00000000000E+00 0. -1.
</event>
<event>
 7    1  0.2648915E-009  0.9972125E+02  0.7561462E-02  0.1280883E+00
         -1   -1    0    0    0  501 -0.00000000000E+00  0.00000000000E+00  0.19358669274E+03  0.19358669274E+03  0.00000000000E+00 0.  1.
          1   -1    0    0  501    0  0.00000000000E+00 -0.00000000000E+00 -0.91507042400E+02  0.91507042400E+02  0.00000000000E+00 0. -1.
         25    2    1    2    0    0 -0.37400557305E+02 -0.94476821480E+01 -0.15368032792E+02  0.13180140209E+03  0.12508945909E+03 0.  0.
          5    1    3    3  502    0 -0.48607783843E+02  0.50046573803E+02 -0.35871465248E+01  0.69983685382E+02  0.41800000000E+01 0.  1.
         -5    1    3    3    0  502  0.11207226538E+02 -0.59494255951E+02 -0.11780886267E+02  0.61817716708E+02  0.41800000000E+01 0.  1.
        -11    1    1    2    0    0  0.20254816233E+02 -0.23924452257E+02  0.11085075933E+03  0.11519777707E+03  0.00000000000E+00 0.  1.
         11    1    1    2    0    0  0.17145741071E+02  0.33372134405E+02  0.65969237950E+01  0.38094555979E+02  0.00000000000E+00 0. -1.
</event>
<event>
 7    1  0.2648915E-009  0.1316389E+03  0.7561462E-02  0.1225044E+00
         -2   -1    0    0    0  501 -0.00000000000E+00  0.00000000000E+00  0.26487445370E+02  0.26487445370E+02  0.00000000000E+00 0.  1.
          2   -1    0    0  501    0  0.00000000000E+00 -0.00000000000E+00 -0.96909809410E+03  0.96909809410E+03  0.00000000000E+00 0. -1.
         25    2    1    2    0    0 -0.90892345694E+02 -0.70317699987E+02 -0.57838478810E+03  0.60281193439E+03  0.12508903911E+03 0.  0.
          5    1    3    3  502    0 -0.82972675340E+02 -0.67003054599E+02 -0.58265646563E+03  0.59235116571E+03  0.41800000000E+01 0. -1.
         -5    1    3    3    0  502 -0.79196703540E+01 -0.33146453872E+01  0.42716775284E+01  0.10460768684E+02  0.41800000000E+01 0. -1.
        -11    1    1    2    0    0  0.27452297812E+02 -0.21865035050E+02 -0.85360665173E+02  0.92293832793E+02  0.00000000000E+00 0.  1.
         11    1    1    2    0    0  0.63440047882E+02  0.92182735036E+02 -0.27886519546E+03  0.30047977228E+03  0.00000000000E+00 0. -1.
</event>
<event>
 7    1  0.2648915E-009  0.1684770E+03  0.7561462E-02  0.1179445E+00
          1   -1    0    0  501    0  0.00000000000E+00  0.00000000000E+00  0.56415547850E+03  0.56415547850E+03  0.00000000000E+00 0. -1.
         -1   -1    0    0    0  501 -0.00000000000E+00 -0.00000000000E+00 -0.97107292439E+02  0.97107292439E+02  0.00000000000E+00 0.  1.
         25    2    1    2    0    0 -0.10658065972E+03 -0.73217896729E+02  0.47004332523E+03  0.50329740170E+03  0.12508896649E+03 0.  0.
          5    1    3    3  502    0 -0.53940646276E+02 -0.10506276057E+03  0.31549851456E+03  0.33690438120E+03  0.41800000000E+01 0. -1.
         -5    1    3    3    0  502 -0.52640013443E+02  0.31844863837E+02  0.15454481067E+03  0.16639302050E+03  0.41800000000E+01 0. -1.
        -11    1    1    2    0    0  0.70133178822E+02 -0.55199882255E+01 -0.93489851109E+01  0.70968560393E+02  0.00000000000E+00 0.  1.
         11    1    1    2    0    0  0.36447480897E+02  0.78737884955E+02  0.63538459407E+01  0.86996808845E+02  0.00000000000E+00 0. -1.
</event>
<event>
 7    1  0.2648915E-009  0.2214037E+03  0.7561462E-02  0.1132841E+00
          2   -1    0    0  501    0  0.00000000000E+00  0.00000000000E+00  0.94213005392E+03  0.94213005392E+03  0.00000000000E+00 0.  1.
         -2   -1    0    0    0  501 -0.00000000000E+00 -0.00000000000E+00 -0.62431106148E+02  0.62431106148E+02  0.00000000000E+00 0. -1.
         25    2    1    2    0    0 -0.17479835367E+03 -0.94632720418E+02  0.27751295344E+03  0.36355324260E+03  0.12509078565E+03 0.  0.
          5    1    3    3  502    0 -0.15190747273E+03 -0.16579462692E+02  0.16909992056E+03  0.22795397427E+03  0.41800000000E+01 0. -1.
         -5    1    3    3    0  502 -0.22890880947E+02 -0.78053257726E+02  0.10841303288E+03  0.13559926832E+03  0.41800000000E+01 0. -1.
        -11    1    1    2    0    0  0.81379435617E+01  0.27739779017E+02  0.31600518669E+02  0.42828894983E+02  0.00000000000E+00 0. -1.
         11    1    1    2    0    0  0.16666041011E+03  0.66892941401E+02  0.57058547566E+03  0.59817902249E+03  0.00000000000E+00 0.  1.
</event>
<event>
 7    1  0.2648915E-009  0.7708847E+02  0.7561462E-02  0.1337523E+00
         -1   -1    0    0    0  501 -0.00000000000E+00  0.00000000000E+00  0.81972380786E+02  0.81972380786E+02  0.00000000000E+00 0.  1.
          1   -1    0    0  501    0  0.00000000000E+00 -0.00000000000E+00 -0.19928961022E+03  0.19928961022E+03  0.00000000000E+00 0. -1.
         25    2    1    2    0    0 -0.75863721846E+01 -0.48165443859E+01 -0.13939144060E+03  0.18750637415E+03  0.12509162438E+03 0.  0.
          5    1    3    3  502    0 -0.30202577275E+02 -0.47449156519E+02 -0.12474004267E+03  0.13689838850E+03  0.41800000000E+01 0.  1.
         -5    1    3    3    0  502  0.22616205090E+02  0.42632612133E+02 -0.14651397932E+02  0.50607985648E+02  0.41800000000E+01 0.  1.
        -11    1    1    2    0    0 -0.19878752407E+02  0.85080837034E+01  0.49961995710E+02  0.54440364628E+02  0.00000000000E+00 0.  1.
         11    1    1    2    0    0  0.27465124591E+02 -0.36915393175E+01 -0.27887784546E+02  0.39315252235E+02  0.00000000000E+00 0. -1.
</event>
<event>
 7    1  0.2648915E-009  0.7679657E+02  0.7561462E-02  0.1338396E+00
          2   -1    0    0  501    0  0.00000000000E+00  0.00000000000E+00  0.35347183363E+03  0.35347183363E+03  0.00000000000E+00 0. -1.
         -2   -1    0    0    0  501 -0.00000000000E+00 -0.00000000000E+00 -0.41508869709E+02  0.41508869709E+02  0.00000000000E+00 0.  1.
         25    2    1    2    0    0 -0.27514824053E+02 -0.13068263396E+02  0.10224721126E+03  0.16440683097E+03  0.12508904352E+03 0.  0.
          5    1    3    3  502    0 -0.36346816754E+02 -0.39125952363E+02  0.11998898211E+03  0.13140304207E+03  0.41800000000E+01 0. -1.
         -5    1    3    3    0  502  0.88319927008E+01  0.26057688966E+02 -0.17741770848E+02  0.33003788906E+02  0.41800000000E+01 0. -1.
        -11    1    1    2    0    0  0.30025220770E+02 -0.21884321717E+02  0.30805371197E+02  0.48263944243E+02  0.00000000000E+00 0.  1.
         11    1    1    2    0    0 -0.25103967171E+01  0.34952585114E+02  0.17891038146E+03  0.18230992812E+03  0.00000000000E+00 0. -1.
</event>
<event>
 7    1  0.2648915E-009  0.1410078E+03  0.7561462E-02  0.1211979E+00
          2   -1    0    0  501    0  0.00000000000E+00  0.00000000000E+00  0.28460899921E+03  0.28460899921E+03  0.00000000000E+00 0. -1.
         -2   -1    0    0    0  501 -0.00000000000E+00 -0.00000000000E+00 -0.99745705935E+02  0.99745705935E+02  0.00000000000E+00 0.  1.
         25    2    1    2    0    0 -0.12248279586E+03  0.26213822442E+02  0.12704657321E+03  0.21789665536E+03  0.12509564695E+03 0.  0.
          5    1    3    3  502    0 -0.45969184402E+02  0.14908033505E+02 -0.19388392795E+02  0.52237893839E+02  0.41800000000E+01 0. -1.
         -5    1    3    3    0  502 -0.76513611462E+02  0.11305788937E+02  0.14643496600E+03  0.16565876153E+03  0.41800000000E+01 0. -1.
        -11    1    1    2    0    0  0.81983798696E+02 -0.61380525878E+02  0.36089663120E+02  0.10858810243E+03  0.00000000000E+00 0.  1.
         11    1    1    2    0    0  0.40498997168E+02  0.35166703436E+02  0.21727056946E+02  0.57869947345E+02  0.00000000000E+00 0. -1.
</event>
<event>
 7    1  0.2648915E-009  0.9985517E+02  0.7561462E-02  0.1280601E+00
         -3   -1    0    0    0  501 -0.00000000000E+00  0.00000000000E+00  0.16680334258E+03  0.16680334258E+03  0.00000000000E+00 0.  1.
          3   -1    0    0  501    0  0.00000000000E+00 -0.00000000000E+00 -0.72161584812E+02  0.72161584812E+02  0.00000000000E+00 0. -1.
         25    2    1    2    0    0 -0.40686749826E+02  0.18098626392E+02  0.48375178505E+02  0.14131954480E+03  0.12509230175E+03 0.  0.
          5    1    3    3  502    0  0.39308844036E+02  0.24645459007E+02 -0.17170212640E+01  0.46615495612E+02  0.41800000000E+01 0. -1.
         -5    1    3    3    0  502 -0.79995593863E+02 -0.65468326152E+01  0.50092199769E+02  0.94704049187E+02  0.41800000000E+01 0. -1.
        -11    1    1    2    0    0  0.93889004450E+01  0.20804309164E+02  0.41660677553E+02  0.47503502876E+02  0.00000000000E+00 0.  1.
         11    1    1    2    0    0  0.31297849381E+02 -0.38902935556E+02  0.46059017091E+01  0.50141879715E+02  0.00000000000E+00 0. -1.
</event>
<event>
 7    1  0.2648915E-009  0.9018173E+02  0.7561462E-02  0.1302412E+00
          2   -1    0    0  501    0  0.00000000000E+00  0.00000000000E+00  0.63637955620E+03  0.63637955620E+03  0.00000000000E+00 0. -1.
         -2   -1    0    0    0  501 -0.00000000000E+00 -0.00000000000E+00 -0.20386286727E+02  0.20386286727E+02  0.00000000000E+00 0.  1.
         25    2    1    2    0    0 -0.17517853580E+02 -0.30770235807E+02  0.33322504471E+03  0.35768694036E+03  0.12508930519E+03 0.  0.
          5    1    3    3  502    0  0.16880697923E+02  0.25911753034E+02  0.24636295151E+03  0.24833153885E+03  0.41800000000E+01 0.  1.
         -5    1    3    3    0  502 -0.34398551504E+02 -0.56681988840E+02  0.86862093196E+02  0.10935540151E+03  0.41800000000E+01 0.  1.
        -11    1    1    2    0    0  0.44936018043E+02  0.32176068771E+02  0.25135450675E+03  0.25735895784E+03  0.00000000000E+00 0. -1.
         11    1    1    2    0    0 -0.27418164463E+02 -0.14058329643E+01  0.31413718018E+02  0.41719944733E+02  0.00000000000E+00 0.  1.
</event>
<event>
 7    1  0.2648915E-009  0.1792007E+03  0.7561462E-02  0.1168579E+00
         -1   -1    0    0    0  501 -0.00000000000E+00  0.00000000000E+00  0.13366052494E+04  0.13366052494E+04  0.00000000000E+00 0.  1.
          1   -1    0    0  501    0  0.00000000000E+00 -0.00000000000E+00 -0.32188787669E+02  0.32188787669E+02  0.00000000000E+00 0. -1.
         25    2    1    2    0    0 -0.75332589728E+02 -0.87632941823E+02  0.37853651765E+03  0.41508079977E+03  0.12509054152E+03 0.  0.
          5    1    3    3  502    0 -0.25492941560E+02 -0.88660671756E+02  0.11828349998E+03  0.15006353172E+03  0.41800000000E+01 0. -1.
         -5    1    3    3    0  502 -0.49839648169E+02  0.10277299321E+01  0.26025301767E+03  0.26501726805E+03  0.41800000000E+01 0. -1.
        -11    1    1    2    0    0  0.41854515646E+02 -0.55228887064E+02  0.16749550976E+03  0.18126438215E+03  0.00000000000E+00 0. -1.
         11    1    1    2    0    0  0.33478074082E+02  0.14286182889E+03  0.75838443430E+03  0.77244885513E+03  0.00000000000E+00 0.  1.
</event>
<event>
 7    1  0.2648915E-009  0.1208593E+03  0.7561462E-02  0.1241686E+00
         -1   -1    0    0    0  501 -0.00000000000E+00  0.00000000000E+00  0.68368516541E+02  0.68368516541E+02  0.00000000000E+00 0.  1.
          1   -1    0    0  501    0  0.00000000000E+00 -0.00000000000E+00 -0.22924878780E+03  0.22924878780E+03  0.00000000000E+00 0. -1.
         25    2    1    2    0    0 -0.48759771371E+02  0.14164297963E+02 -0.12424417653E+03  0.18346875457E+03  0.12508407517E+03 0.  0.
          5    1    3    3  502    0 -0.88563764110E+02 -0.73253350682E+01 -0.73853837096E+02  0.11562466217E+03  0.41800000000E+01 0. -1.
         -5    1    3    3    0  502  0.39803992739E+02  0.21489633031E+02 -0.50390339432E+02  0.67844092402E+02  0.41800000000E+01 0. -1.
        -11    1    1    2    0    0 -0.11436824535E+02  0.30366969341E+02 -0.17486452527E+02  0.36860952299E+02  0.00000000000E+00 0. -1.
         11    1    1    2    0    0  0.60196595906E+02 -0.44531267304E+02 -0.19149642200E+02  0.77287597470E+02  0.00000000000E+00 0.  1.
</event>
<event>
 7    1  0.2648915E-009  0.1212838E+03  0.7561462E-02  0.1240994E+00
          2   -1    0    0  501    0  0.00000000000E+00  0.00000000000E+00  0.35174689745E+03  0.35174689745E+03  0.00000000000E+00 0. -1.
         -2   -1    0    0    0  501 -0.00000000000E+00 -0.00000000000E+00 -0.44945176569E+02  0.44945176569E+02  0.00000000000E+00 0.  1.
         25    2    1    2    0    0  0.51784058748E+02 -0.26233732577E+02  0.12911170828E+03  0.18891008377E+03  0.12508952422E+03 0.  0.
          5    1    3    3  502    0 -0.37754526666E+02 -0.28168166867E+02  0.34294037732E+02  0.58415779824E+02  0.41800000000E+01 0. -1.
         -5    1    3    3    0  502  0.89538585414E+02  0.19344342892E+01  0.94817670546E+02  0.13049430394E+03  0.41800000000E+01 0. -1.
        -11    1    1    2    0    0  0.20817506318E+02 -0.11517225665E+02  0.59011557826E+02  0.63626873359E+02  0.00000000000E+00 0. -1.
         11    1    1    2    0    0 -0.72601565066E+02  0.37750958242E+02  0.11867845478E+03  0.14415511689E+03  0.00000000000E+00 0.  1.
</event>
<event>
 7    1  0.2648915E-009  0.9545700E+02  0.7561462E-02  0.1290150E+00
         -1   -1    0    0    0  501 -0.00000000000E+00  0.00000000000E+00  0.13978577810E+03  0.13978577810E+03  0.00000000000E+00 0.  1.
          1   -1    0    0  501    0  0.00000000000E+00 -0.00000000000E+00 -0.10557791183E+03  0.10557791183E+03  0.00000000000E+00 0. -1.
         25    2    1    2    0    0 -0.48779279358E+02 -0.17313518383E+02  0.26858314675E+02  0.13801597944E+03  0.12509142857E+03 0.  0.
          5    1    3    3  502    0 -0.49146637990E+02 -0.63054204964E+02  0.41017065169E+02  0.89950524314E+02  0.41800000000E+01 0. -1.
         -5    1    3    3    0  502  0.36735863273E+00  0.45740686580E+02 -0.14158750494E+02  0.48065455129E+02  0.41800000000E+01 0. -1.
        -11    1    1    2    0    0 -0.32912618832E+01  0.12165111849E+02 -0.36792280590E+02  0.38890799195E+02  0.00000000000E+00 0. -1.
         11    1    1    2    0    0  0.52070541241E+02  0.51484065345E+01  0.44141832187E+02  0.68456911293E+02  0.00000000000E+00 0.  1.
</event>
<event>
 7    1  0.2648915E-009  0.9110723E+02  0.7561462E-02  0.1300192E+00
          2   -1    0    0  501    0  0.00000000000E+00  0.00000000000E+00  0.24031097045E+03  0.24031097045E+03  0.00000000000E+00 0. -1.
         -2   -1    0    0    0  501 -0.00000000000E+00 -0.00000000000E+00 -0.56264600737E+02  0.56264600737E+02  0.00000000000E+00 0.  1.
         25    2    1    2    0    0  0.30318063646E+02 -0.13570499043E+02  0.10322617710E+03  0.16555044495E+03  0.12509181731E+03 0.  0.
          5    1    3    3  502    0  0.51187574515E+02  0.11262739959E+02  0.11835975861E+03  0.12951263241E+03  0.41800000000E+01 0. -1.
         -5    1    3    3    0  502 -0.20869510869E+02 -0.24833239003E+02 -0.15133581510E+02  0.36037812539E+02  0.41800000000E+01 0. -1.
        -11    1    1    2    0    0 -0.32546507039E+02 -0.35296718499E+02  0.17705262820E+02  0.51172353754E+02  0.00000000000E+00 0.  1.
         11    1    1    2    0    0  0.22284433934E+01  0.48867217543E+02  0.63114929796E+02  0.79852772484E+02  0.00000000000E+00 0. -1.
</event>
<event>
 7    1  0.2648915E-009  0.1236614E+03  0.7561462E-02  0.1237176E+00
         -4   -1    0    0    0  501 -0.00000000000E+00  0.00000000000E+00  0.19346240206E+03  0.19346240206E+03  0.00000000000E+00 0.  1.
          4   -1    0    0  501    0  0.00000000000E+00 -0.00000000000E+00 -0.86848000759E+02  0.86848000759E+02  0.00000000000E+00 0. -1.
         25    2    1    2    0    0 -0.11924781126E+02  0.65686751641E+02  0.81282464627E+02  0.16343678002E+03  0.12509113582E+03 0.  0.
          5    1    3    3  502    0  0.22844731846E+02  0.93190477019E+02  0.65249960007E+02  0.11610932978E+03  0.41800000000E+01 0.  1.
         -5    1    3    3    0  502 -0.34769512972E+02 -0.27503725378E+02  0.16032504620E+02  0.47327450242E+02  0.41800000000E+01 0.  1.
        -11    1    1    2    0    0  0.48032026360E+02 -0.38385759717E+02  0.34765812148E+02  0.70634296200E+02  0.00000000000E+00 0.  1.
         11    1    1    2    0    0 -0.36107245235E+02 -0.27300991924E+02 -0.94338754707E+01  0.46239326605E+02  0.00000000000E+00 0. -1.
</event>
<event>
 7    1  0.2648915E-009  0.9351515E+02  0.7561462E-02  0.1294556E+00
          1   -1    0    0  501    0  0.00000000000E+00  0.00000000000E+00  0.13604737752E+03  0.13604737752E+03  0.00000000000E+00 0. -1.
         -1   -1    0    0    0  501 -0.00000000000E+00 -0.00000000000E+00 -0.97283711675E+02  0.97283711675E+02  0.00000000000E+00 0.  1.
         25    2    1    2    0    0  0.13833529476E+02 -0.33450141443E+02  0.54292351410E+01  0.13033267340E+03  0.12508737210E+03 0.  0.
          5    1    3    3  502    0  0.29682298014E+02  0.28632997140E+02  0.39830383727E+02  0.57487556988E+02  0.41800000000E+01 0.  1.
         -5    1    3    3    0  502 -0.15848768538E+02 -0.62083138583E+02 -0.34401148586E+02  0.72845116408E+02  0.41800000000E+01 0.  1.
        -11    1    1    2    0    0  0.18973474136E+01  0.54808101634E+02 -0.64108997343E+01  0.55214378267E+02  0.00000000000E+00 0.  1.
         11    1    1    2    0    0 -0.15730876890E+02 -0.21357960191E+02  0.39745330436E+02  0.47784037530E+02  0.00000000000E+00 0. -1.
</event>
<event>
 7    1  0.2648915E-009  0.1098538E+03  0.7561462E-02  0.1260841E+00
          4   -1    0    0  501    0  0.00000000000E+00  0.00000000000E+00  0.21349755012E+03  0.21349755012E+03  0.00000000000E+00 0. -1.
         -4   -1    0    0    0  501 -0.00000000000E+00 -0.00000000000E+00 -0.10237298932E+03  0.10237298932E+03  0.00000000000E+00 0.  1.
         25    2    1    2    0    0 -0.66172276186E+02 -0.33678395485E+01  0.13771719228E+03  0.19749310533E+03  0.12508952444E+03 0.  0.
          5    1    3    3  502    0 -0.14836345063E+01 -0.42897607671E+02  0.34737161635E+01  0.43265979929E+02  0.41800000000E+01 0.  1.
         -5    1    3    3    0  502 -0.64688641680E+02  0.39529768122E+02  0.13424347612E+03  0.15422712540E+03  0.41800000000E+01 0.  1.
        -11    1    1    2    0    0  0.19916159253E+01  0.30795627851E+02 -0.36593579729E+02  0.47868855283E+02  0.00000000000E+00 0.  1.
         11    1    1    2    0    0  0.64180660261E+02 -0.27427788302E+02  0.10000948244E+02  0.70508578829E+02  0.00000000000E+00 0. -1.
</event>
<event>
 7    1  0.2648915E-009  0.1506134E+03  0.7561462E-02  0.1199721E+00
         -2   -1    0    0    0  501 -0.00000000000E+00  0.00000000000E+00  0.24166381683E+02  0.24166381683E+02  0.00000000000E+00 0.  1.
          2   -1    0    0  501    0  0.00000000000E+00 -0.00000000000E+00 -0.10042967571E+04  0.10042967571E+04  0.00000000000E+00 0. -1.
         25    2    1    2    0    0  0.47495850882E+02 -0.98077531837E+02 -0.59105614330E+03  0.61389721181E+03  0.12508942415E+03 0.  0.
          5    1    3    3  502    0  0.75324414427E+02 -0.24382188991E+02 -0.20359400423E+03  0.21848626847E+03  0.41800000000E+01 0.  1.
         -5    1    3    3    0  502 -0.27828563545E+02 -0.73695342847E+02 -0.38746213907E+03  0.39541094335E+03  0.41800000000E+01 0.  1.
        -11    1    1    2    0    0 -0.69056662148E+02  0.37120751653E+02 -0.20671290024E+03  0.22108142372E+03  0.00000000000E+00 0.  1.
         11    1    1    2    0    0  0.21560811266E+02  0.60956780184E+02 -0.18236133187E+03  0.19348450324E+03  0.00000000000E+00 0. -1.
</event>
<event>
 7    1  0.2648915E-009  0.1052966E+03  0.7561462E-02  0.1269536E+00
          1   -1    0    0  501    0  0.00000000000E+00  0.00000000000E+00  0.79180066730E+03  0.79180066730E+03  0.00000000000E+00 0. -1.
         -1   -1    0    0    0  501 -0.00000000000E+00 -0.00000000000E+00 -0.17834955137E+02  0.17834955137E+02  0.00000000000E+00 0.  1.
         25    2    1    2    0    0 -0.46132780666E+02  0.18165170589E+02  0.44323933373E+03  0.46321392424E+03  0.12509126973E+03 0.  0.
          5    1    3    3  502    0 -0.86407249268E+02 -0.30290340079E+01  0.24718436028E+03  0.26190259284E+03  0.41800000000E+01 0. -1.
         -5    1    3    3    0  502  0.40274468602E+02  0.21194204597E+02  0.19605497345E+03  0.20131133139E+03  0.41800000000E+01 0. -1.
        -11    1    1    2    0    0  0.59325139815E+02 -0.47506767929E+01  0.31843304329E+03  0.32394697746E+03  0.00000000000E+00 0. -1.
         11    1    1    2    0    0 -0.13192359150E+02 -0.13414493796E+02  0.12293335141E+02  0.22474720746E+02  0.00000000000E+00 0.  1.
</event>
<event>
 7    1  0.2648915E-009  0.1329413E+03  0.7561462E-02  0.1223156E+00
          2   -1    0    0  501    0  0.00000000000E+00  0.00000000000E+00  0.90227303109E+02  0.90227303109E+02  0.00000000000E+00 0. -1.
         -2   -1    0    0    0  501 -0.00000000000E+00 -0.00000000000E+00 -0.31633051652E+03  0.31633051652E+03  0.00000000000E+00 0.  1.
         25    2    1    2    0    0  0.11340301704E+03 -0.16118770544E+02 -0.48682520052E+02  0.17646009481E+03  0.12509243888E+03 0.  0.
          5    1    3    3  502    0  0.87397198245E+02 -0.38867670443E+02 -0.83640931120E+02  0.12713081383E+03  0.41800000000E+01 0.  1.
         -5    1    3    3    0  502  0.26005818793E+02  0.22748899899E+02  0.34958411069E+02  0.49329280982E+02  0.41800000000E+01 0.  1.
        -11    1    1    2    0    0  0.59646453069E-01 -0.17109323367E+02 -0.26178282830E+00  0.17111429923E+02  0.00000000000E+00 0. -1.
         11    1    1    2    0    0 -0.11346266349E+03  0.33228093911E+02 -0.17715891053E+03  0.21298629489E+03  0.00000000000E+00 0.  1.
</event>
<event>
 7    1  0.2648915E-009  0.9311414E+02  0.7561462E-02  0.1295481E+00
         -1   -1    0    0    0  501 -0.00000000000E+00  0.00000000000E+00  0.71560084898E+02  0.71560084898E+02  0.00000000000E+00 0.  1.
          1   -1    0    0  501    0  0.00000000000E+00 -0.00000000000E+00 -0.22556529158E+03  0.22556529158E+03  0.00000000000E+00 0. -1.
         25    2    1    2    0    0 -0.79176683007E+01 -0.19870466254E+02 -0.15623559601E+03  0.20128245552E+03  0.12509012966E+03 0.  0.
          5    1    3    3  502    0  0.21428974736E+02  0.45761068242E+02 -0.90708500371E+02  0.10391718224E+03  0.41800000000E+01 0.  1.
         -5    1    3    3    0  502 -0.29346643037E+02 -0.65631534496E+02 -0.65527095634E+02  0.97365273276E+02  0.41800000000E+01 0.  1.
        -11    1    1    2    0    0  0.12949896112E+00 -0.21456081409E+02 -0.34086923183E+02  0.40277767211E+02  0.00000000000E+00 0. -1.
         11    1    1    2    0    0  0.77881693396E+01  0.41326547663E+02  0.36317312509E+02  0.55565153750E+02  0.00000000000E+00 0.  1.
</event>
<event>
 7    1  0.2648915E-009  0.1014270E+03  0.7561462E-02  0.1277323E+00
          2   -1    0    0  501    0  0.00000000000E+00  0.00000000000E+00  0.79343696845E+02  0.79343696845E+02  0.00000000000E+00 0. -1.
         -2   -1    0    0    0  501 -0.00000000000E+00 -0.00000000000E+00 -0.21300629483E+03  0.21300629483E+03  0.00000000000E+00 0.  1.
         25    2    1    2    0    0  0.99520135666E+01 -0.10514756417E+02  0.43008755605E+01  0.12599923920E+03  0.12509079930E+03 0.  0.
          5    1    3    3  502    0  0.61677286758E+02 -0.29879906974E+02 -0.83975338263E+01  0.69172881369E+02  0.41800000000E+01 0.  1.
         -5    1    3    3    0  502 -0.51725273191E+02  0.19365150556E+02  0.12698409387E+02  0.56826357826E+02  0.41800000000E+01 0.  1.
        -11    1    1    2    0    0  0.31475929657E+02 -0.93830798170E+01 -0.17068952484E+02  0.37015205977E+02  0.00000000000E+00 0.  1.
         11    1    1    2    0    0 -0.41427943224E+02  0.19897836234E+02 -0.12089452106E+03  0.12933554650E+03  0.00000000000E+00 0. -1.
</event>
<event>
 7    1  0.2648915E-009  0.1002824E+03  0.7561462E-02  0.1279703E+00
         -2   -1    0    0    0  501 -0.00000000000E+00  0.00000000000E+00  0.19071389294E+02  0.19071389294E+02  0.00000000000E+00 0.  1.
          2   -1    0    0  501    0  0.00000000000E+00 -0.00000000000E+00 -0.14653302018E+04  0.14653302018E+04  0.00000000000E+00 0. -1.
         25    2    1    2    0    0  0.67742349612E+02  0.25492820589E+02 -0.12872595690E+04  0.12953462292E+04  0.12508295535E+03 0.  0.
          5    1    3    3  502    0 -0.11337816022E+02  0.15774616773E+02 -0.88646046359E+03  0.88668315114E+03  0.41800000000E+01 0. -1.
         -5    1    3    3    0  502  0.79080165634E+02  0.97182038161E+01 -0.40079910537E+03  0.40866307804E+03  0.41800000000E+01 0. -1.
        -11    1    1    2    0    0 -0.14546357188E+01 -0.34041357500E+02 -0.39762681010E+02  0.52364117357E+02  0.00000000000E+00 0. -1.
         11    1    1    2    0    0 -0.66287713893E+02  0.85485369113E+01 -0.11923656258E+03  0.13669124461E+03  0.00000000000E+00 0.  1.
</event>
<event>
 7    1  0.4139562E-009  0.1514725E+03  0.7561462E-02  0.1198675E+00
         -1   -1    0    0    0  501 -0.00000000000E+00  0.00000000000E+00  0.17570373181E+02  0.17570373181E+02  0.00000000000E+00 0.  1.
          1   -1    0    0  501    0  0.00000000000E+00 -0.00000000000E+00 -0.19978875970E+04  0.19978875970E+04  0.00000000000E+00 0. -1.
         25    2    1    2    0    0 -0.16635234384E+02 -0.10785402767E+03 -0.16117247951E+04  0.16202511863E+04  0.12509144272E+03 0.  0.
          5    1    3    3  502    0 -0.37974488702E+02  0.14917854525E+02 -0.44300813018E+03  0.44490255110E+03  0.41800000000E+01 0.  1.
         -5    1    3    3    0  502  0.21339254318E+02 -0.12277188219E+03 -0.11687166650E+04  0.11753486352E+04  0.41800000000E+01 0.  1.
        -11    1    1    2    0    0  0.39773568221E+02  0.16584953190E+02 -0.17071746590E+03  0.17607228789E+03  0.00000000000E+00 0. -1.
         11    1    1    2    0    0 -0.23138333837E+02  0.91269074476E+02 -0.19787496278E+03  0.21913449602E+03  0.00000000000E+00 0.  1.
</event>
<event>
 7    1  0.2648915E-009  0.1116384E+03  0.7561462E-02  0.1257565E+00
         -2   -1    0    0    0  501 -0.00000000000E+00  0.00000000000E+00  0.19291475079E+03  0.19291475079E+03  0.00000000000E+00 0.  1.
          2   -1    0    0  501    0  0.00000000000E+00 -0.00000000000E+00 -0.78830520157E+02  0.78830520157E+02  0.00000000000E+00 0. -1.
         25    2    1    2    0    0 -0.26528187340E+02  0.25486667039E+02  0.11480523328E+03  0.17372538797E+03  0.12508778485E+03 0.  0.
          5    1    3    3  502    0  0.66266648141E+01  0.70997381253E+02  0.47066437316E+02  0.85541000421E+02  0.41800000000E+01 0. -1.
         -5    1    3    3    0  502 -0.33154852154E+02 -0.45510714214E+02  0.67738795961E+02  0.88184387552E+02  0.41800000000E+01 0. -1.
        -11    1    1    2    0    0  0.59222966593E+02 -0.16626878581E+02  0.10361113607E+02  0.62379207582E+02  0.00000000000E+00 0.  1.
         11    1    1    2    0    0 -0.32694779253E+02 -0.88597884581E+01 -0.11082116250E+02  0.35640675393E+02  0.00000000000E+00 0. -1.
</event>
<event>
 7    1  0.2648915E-009  0.1294462E+03  0.7561462E-02  0.1228280E+00
          1   -1    0    0  501    0  0.00000000000E+00  0.00000000000E+00  0.26666476425E+02  0.26666476425E+02  0.00000000000E+00 0. -1.
         -1   -1    0    0    0  501 -0.00000000000E+00 -0.00000000000E+00 -0.86217077167E+03  0.86217077167E+03  0.00000000000E+00 0.  1.
         25    2    1    2    0    0 -0.48503361632E+02  0.90086701328E+02 -0.37295015498E+03  0.40645839280E+03  0.12509363347E+03 0.  0.
          5    1    3    3  502    0 -0.56049671190E+02 -0.65037417334E+01 -0.20352200455E+03  0.21124048626E+03  0.41800000000E+01 0. -1.
         -5    1    3    3    0  502  0.75463095582E+01  0.96590443062E+02 -0.16942815043E+03  0.19521790654E+03  0.41800000000E+01 0. -1.
        -11    1    1    2    0    0  0.46293917465E+02 -0.63102662986E+02 -0.44067060872E+03  0.44756637302E+03  0.00000000000E+00 0.  1.
         11    1    1    2    0    0  0.22094441668E+01 -0.26984038342E+02 -0.21883531541E+02  0.34812482265E+02  0.00000000000E+00 0. -1.
</event>
<event>
 7    1  0.2648915E-009  0.1246137E+03  0.7561462E-02  0.1235674E+00
          2   -1    0    0  501    0  0.00000000000E+00  0.00000000000E+00  0.54869258634E+03  0.54869258634E+03  0.00000000000E+00 0. -1.
         -2   -1    0    0    0  501 -0.00000000000E+00 -0.00000000000E+00 -0.40148960182E+02  0.40148960182E+02  0.00000000000E+00 0.  1.
         25    2    1    2    0    0  0.40639040310E+02  0.90560048090E+02  0.31464965378E+03  0.35285860913E+03  0.12510851092E+03 0.  0.
          5    1    3    3  502    0  0.35627986046E+02  0.10873097719E+03  0.15854900215E+03  0.19556849765E+03  0.41800000000E+01 0. -1.
         -5    1    3    3    0  502  0.50110542639E+01 -0.18170929101E+02  0.15610065163E+03  0.15729011148E+03  0.41800000000E+01 0. -1.
        -11    1    1    2    0    0 -0.49943135514E+02 -0.39919592575E+02  0.44321317832E+02  0.77796335844E+02  0.00000000000E+00 0. -1.
         11    1    1    2    0    0  0.93040952040E+01 -0.50640455514E+02  0.14957265455E+03  0.15818660155E+03  0.00000000000E+00 0.  1.
</event>
<event>
 7    1  0.2648915E-009  0.1459077E+03  0.7561462E-02  0.1205594E+00
         -2   -1    0    0    0  501 -0.00000000000E+00  0.00000000000E+00  0.30184272326E+03  0.30184272326E+03  0.00000000000E+00 0.  1.
          2   -1    0    0  501    0  0.00000000000E+00 -0.00000000000E+00 -0.76654336745E+02  0.76654336745E+02  0.00000000000E+00 0. -1.
         25    2    1    2    0    0  0.40588321339E+02 -0.94957909027E+02  0.14353763488E+03  0.21660020038E+03  0.12509267710E+03 0.  0.
          5    1    3    3  502    0  0.23570912523E+02 -0.12306181780E+03  0.13062414789E+03  0.18105231103E+03  0.41800000000E+01 0. -1.
         -5    1    3    3    0  502  0.17017408816E+02  0.28103908776E+02  0.12913486993E+02  0.35547889355E+02  0.41800000000E+01 0. -1.
        -11    1    1    2    0    0 -0.46584741367E+02  0.93551007821E+01  0.53571722340E+02  0.71607160768E+02  0.00000000000E+00 0.  1.
         11    1    1    2    0    0  0.59964200272E+01  0.85602808244E+02  0.28079029296E+02  0.90289698851E+02  0.00000000000E+00 0. -1.
</event>
<event>
 7    1  0.2648915E-009  0.1131023E+03  0.7561462E-02  0.1254930E+00
         -2   -1    0    0    0  501 -0.00000000000E+00  0.00000000000E+00  0.23323428137E+02  0.23323428137E+02  0.00000000000E+00 0.  1.
          2   -1    0    0  501    0  0.00000000000E+00 -0.00000000000E+00 -0.11398185073E+04  0.11398185073E+04  0.00000000000E+00 0. -1.
         25    2    1    2    0    0  0.15866622897E+02  0.55305286295E+02 -0.98014638719E+03  0.98976973296E+03  0.12508700794E+03 0.  0.
          5    1    3    3  502    0 -0.38343165098E+02  0.60228175189E+02 -0.34817474251E+03  0.35544444731E+03  0.41800000000E+01 0. -1.
         -5    1    3    3    0  502  0.54209787995E+02 -0.49228888936E+01 -0.63197164467E+03  0.63432528565E+03  0.41800000000E+01 0. -1.
        -11    1    1    2    0    0 -0.37118431657E+02  0.37704623331E+01 -0.82943013282E+02  0.90947995070E+02  0.00000000000E+00 0. -1.
         11    1    1    2    0    0  0.21251808760E+02 -0.59075748628E+02 -0.53405678725E+02  0.82424207437E+02  0.00000000000E+00 0.  1.
</event>
<event>
 7    1  0.2648915E-009  0.1375922E+03  0.7561462E-02  0.1216606E+00
          1   -1    0    0  501    0  0.00000000000E+00  0.00000000000E+00  0.51266711463E+03  0.51266711463E+03  0.00000000000E+00 0. -1.
         -1   -1    0    0    0  501 -0.00000000000E+00 -0.00000000000E+00 -0.68169791253E+02  0.68169791253E+02  0.00000000000E+00 0.  1.
         25    2    1    2    0    0  0.98251581032E+02  0.64074699858E+02  0.37798040758E+03  0.41505945435E+03  0.12508485837E+03 0.  0.
          5    1    3    3  502    0  0.87569696914E+02  0.39378879941E+02  0.37562831301E+03  0.38772831975E+03  0.41800000000E+01 0. -1.
         -5    1    3    3    0  502  0.10681884118E+02  0.24695819917E+02  0.23520945749E+01  0.27331134601E+02  0.41800000000E+01 0. -1.
        -11    1    1    2    0    0 -0.36728684737E+01 -0.56876696489E+02  0.25065643970E+02  0.62263432880E+02  0.00000000000E+00 0.  1.
         11    1    1    2    0    0 -0.94578712558E+02 -0.71980033686E+01  0.41451271821E+02  0.10351401865E+03  0.00000000000E+00 0. -1.
</event>
<event>
 7    1  0.2648915E-009  0.1072112E+03  0.7561462E-02  0.1265823E+00
         -2   -1    0    0    0  501 -0.00000000000E+00  0.00000000000E+00  0.53465755989E+02  0.53465755989E+02  0.00000000000E+00 0.  1.
          2   -1    0    0  501    0  0.00000000000E+00 -0.00000000000E+00 -0.42190730782E+03  0.42190730782E+03  0.00000000000E+00 0. -1.
         25    2    1    2    0    0 -0.87749356885E+02  0.35278489613E+02 -0.13312006516E+03  0.20570239548E+03  0.12509197534E+03 0.  0.
          5    1    3    3  502    0 -0.24263505575E+02  0.48087812320E+02  0.38225423842E+01  0.54159390938E+02  0.41800000000E+01 0. -1.
         -5    1    3    3    0  502 -0.63485851311E+02 -0.12809322706E+02 -0.13694260754E+03  0.15154300454E+03  0.41800000000E+01 0. -1.
        -11    1    1    2    0    0  0.51147165066E+02 -0.27527180364E+02 -0.39346909710E+02  0.70156663666E+02  0.00000000000E+00 0.  1.
         11    1    1    2    0    0  0.36602191820E+02 -0.77513092494E+01 -0.19597457697E+03  0.19951400467E+03  0.00000000000E+00 0. -1.
</event>
<event>
 7    1  0.2648915E-009  0.9937069E+02  0.7561462E-02  0.1281625E+00
         -2   -1    0    0    0  501 -0.00000000000E+00  0.00000000000E+00  0.84045635729E+02  0.84045635729E+02  0.00000000000E+00 0.  1.
          2   -1    0    0  501    0  0.00000000000E+00 -0.00000000000E+00 -0.15341396227E+03  0.15341396227E+03  0.00000000000E+00 0. -1.
         25    2    1    2    0    0  0.32945257654E+02  0.13432209991E+02 -0.29564418754E+02  0.13337120502E+03  0.12509200296E+03 0.  0.
          5    1    3    3  502    0  0.44020594624E+02 -0.32662554656E+02  0.25492262278E+02  0.60596889885E+02  0.41800000000E+01 0. -1.
         -5    1    3    3    0  502 -0.11075336970E+02  0.46094764646E+02 -0.55056681032E+02  0.72774315133E+02  0.41800000000E+01 0. -1.
        -11    1    1    2    0    0  0.30802411220E+02  0.98946755711E+00 -0.12651813670E+02  0.33314200758E+02  0.00000000000E+00 0. -1.
         11    1    1    2    0    0 -0.63747668874E+02 -0.14421677548E+02 -0.27152094119E+02  0.70774192226E+02  0.00000000000E+00 0.  1.
</event>
<event>
 7    1  0.2648915E-009  0.1213857E+03  0.7561462E-02  0.1240828E+00
          2   -1    0    0  501    0  0.00000000000E+00  0.00000000000E+00  0.25629680533E+03  0.25629680533E+03  0.00000000000E+00 0. -1.
         -2   -1    0    0    0  501 -0.00000000000E+00 -0.00000000000E+00 -0.75079399142E+02  0.75079399142E+02  0.00000000000E+00 0.  1.
         25    2    1    2    0    0 -0.45980619224E+02  0.71666451105E+02  0.99457515046E+02  0.18108471807E+03  0.12509828240E+03 0.  0.
          5    1    3    3  502    0  0.22057192892E+02 -0.22940235616E+02  0.85147363753E+01  0.33207639241E+02  0.41800000000E+01 0.  1.
         -5    1    3    3    0  502 -0.68037812116E+02  0.94606686721E+02  0.90942778671E+02  0.14787707883E+03  0.41800000000E+01 0.  1.
        -11    1    1    2    0    0 -0.39266254035E+01 -0.26397783558E+02  0.78411542346E+02  0.82828928141E+02  0.00000000000E+00 0. -1.
         11    1    1    2    0    0  0.49907244627E+02 -0.45268667547E+02  0.33483487951E+01  0.67462558263E+02  0.00000000000E+00 0.  1.
</event>
<event>
 7    1  0.2648915E-009  0.1331142E+03  0.7561462E-02  0.1222907E+00
         -1   -1    0    0    0  501 -0.00000000000E+00  0.00000000000E+00  0.51339414726E+02  0.51339414726E+02  0.00000000000E+00 0.  1.
          1   -1    0    0  501    0  0.00000000000E+00 -0.00000000000E+00 -0.57870466045E+03  0.57870466045E+03  0.00000000000E+00 0. -1.
         25    2    1    2    0    0 -0.26265968888E+02 -0.10088174912E+03 -0.42326611345E+03  0.45350734207E+03  0.12509067945E+03 0.  0.
          5    1    3    3  502    0  0.74264271407E+01  0.23625704403E+02 -0.27554670129E+02  0.37283481256E+02  0.41800000000E+01 0.  1.
         -5    1    3    3    0  502 -0.33692396028E+02 -0.12450745353E+03 -0.39571144332E+03  0.41622386081E+03  0.41800000000E+01 0.  1.
        -11    1    1    2    0    0 -0.32664130253E+00  0.74834974793E+02 -0.10198790343E+02  0.75527448462E+02  0.00000000000E+00 0.  1.
         11    1    1    2    0    0  0.26592610190E+02  0.26046774332E+02 -0.93900341931E+02  0.10100928465E+03  0.00000000000E+00 0. -1.
</event>
<event>
 7    1  0.2648915E-009  0.8967620E+02  0.7561462E-02  0.1303638E+00
         -1   -1    0    0    0  501 -0.00000000000E+00  0.00000000000E+00  0.27427459592E+03  0.27427459592E+03  0.00000000000E+00 0.  1.
          1   -1    0    0  501    0  0.00000000000E+00 -0.00000000000E+00 -0.44982216808E+02  0.44982216808E+02  0.00000000000E+00 0. -1.
         25    2    1    2    0    0  0.36701599089E+01  0.20051427489E+02  0.11496390399E+03  0.17111869620E+03  0.12509747859E+03 0.  0.
          5    1    3    3  502    0  0.52195963295E+02  0.32065501438E+02  0.21524477844E+02  0.65064510397E+02  0.41800000000E+01 0.  1.
         -5    1    3    3    0  502 -0.48525803386E+02 -0.12014073949E+02  0.93439426147E+02  0.10605418580E+03  0.41800000000E+01 0.  1.
        -11    1    1    2    0    0 -0.32078591697E+02 -0.22634884854E+02  0.10752949201E+02  0.40706264556E+02  0.00000000000E+00 0. -1.
         11    1    1    2    0    0  0.28408431788E+02  0.25834573646E+01  0.10357552593E+03  0.10743185198E+03  0.00000000000E+00 0.  1.
</event>
<event>
 7    1  0.2648915E-009  0.4706301E+02  0.7561462E-02  0.1461859E+00
         -2   -1    0    0    0  501 -0.00000000000E+00  0.00000000000E+00  0.36271231577E+02  0.36271231577E+02  0.00000000000E+00 0.  1.
          2   -1    0    0  501    0  0.00000000000E+00 -0.00000000000E+00 -0.34662585722E+03  0.34662585722E+03  0.00000000000E+00 0. -1.
         25    2    1    2    0    0  0.18631900020E+01  0.14579070653E+02 -0.18038235500E+03  0.22000218556E+03  0.12508855613E+03 0.  0.
          5    1    3    3  502    0  0.14539723478E+02  0.18219061089E+02  0.12394912466E+02  0.26729085298E+02  0.41800000000E+01 0. -1.
         -5    1    3    3    0  502 -0.12676533476E+02 -0.36399904368E+01 -0.19277726747E+03  0.19327310026E+03  0.41800000000E+01 0. -1.
        -11    1    1    2    0    0  0.19596390953E+02  0.11589407092E+02  0.53649853577E+01  0.23390510106E+02  0.00000000000E+00 0.  1.
         11    1    1    2    0    0 -0.21459580955E+02 -0.26168477745E+02 -0.13533725600E+03  0.13950439314E+03  0.00000000000E+00 0. -1.
</event>
<event>
 7    1  0.2648915E-009  0.2059429E+03  0.7561462E-02  0.1144820E+00
          1   -1    0    0  501    0  0.00000000000E+00  0.00000000000E+00  0.26412708644E+03  0.26412708644E+03  0.00000000000E+00 0. -1.
         -1   -1    0    0    0  501 -0.00000000000E+00 -0.00000000000E+00 -0.16565404159E+03  0.16565404159E+03  0.00000000000E+00 0.  1.
         25    2    1    2    0    0 -0.16932777603E+03  0.47024347677E+02  0.18844476836E+02  0.21653466483E+03  0.12509581031E+03 0.  0.
          5    1    3    3  502    0  0.13324655200E+02  0.28549412003E+02  0.68477578581E+01  0.32511221902E+02  0.41800000000E+01 0. -1.
         -5    1    3    3    0  502 -0.18265243123E+03  0.18474935674E+02  0.11996718978E+02  0.18402344293E+03  0.41800000000E+01 0. -1.
        -11    1    1    2    0    0  0.27648436560E+02 -0.47304891090E+02  0.33616440534E+02  0.64282609152E+02  0.00000000000E+00 0. -1.
         11    1    1    2    0    0  0.14167933947E+03  0.28054341290E+00  0.46012127483E+02  0.14896385405E+03  0.00000000000E+00 0.  1.
</event>
<event>
 7    1  0.2648915E-009  0.2040836E+03  0.7561462E-02  0.1146339E+00
          4   -1    0    0  501    0  0.00000000000E+00  0.00000000000E+00  0.41607372851E+03  0.41607372851E+03  0.00000000000E+00 0. -1.
         -4   -1    0    0    0  501 -0.00000000000E+00 -0.00000000000E+00 -0.11643927926E+03  0.11643927926E+03  0.00000000000E+00 0.  1.
         25    2    1    2    0    0 -0.12023834151E+03  0.13136213356E+03  0.72608670794E+02  0.22942642983E+03  0.12510475103E+03 0.  0.
          5    1    3    3  502    0 -0.58236286205E+02 -0.86739813008E+01 -0.19137342793E+01  0.59057918703E+02  0.41800000000E+01 0.  1.
         -5    1    3    3    0  502 -0.62002055300E+02  0.14003611486E+03  0.74522405073E+02  0.17036851113E+03  0.41800000000E+01 0.  1.
        -11    1    1    2    0    0  0.48269716448E+02 -0.24958829051E+01  0.87579227449E+02  0.10003157521E+03  0.00000000000E+00 0. -1.
         11    1    1    2    0    0  0.71968625058E+02 -0.12886625065E+03  0.13944655100E+03  0.20305500273E+03  0.00000000000E+00 0.  1.
</event>
<event>
 7    1  0.2648915E-009  0.1460018E+03  0.7561462E-02  0.1205474E+00
          1   -1    0    0  501    0  0.00000000000E+00  0.00000000000E+00  0.10964906430E+04  0.10964906430E+04  0.00000000000E+00 0. -1.
         -1   -1    0    0    0  501 -0.00000000000E+00 -0.00000000000E+00 -0.21311747942E+02  0.21311747942E+02  0.00000000000E+00 0.  1.
         25    2    1    2    0    0  0.49525685379E+02  0.90196588583E+02  0.68185849228E+03  0.70083333800E+03  0.12509254998E+03 0.  0.
          5    1    3    3  502    0 -0.36725365532E+02 -0.16097686566E+00  0.16123763641E+03  0.16542015047E+03  0.41800000000E+01 0. -1.
         -5    1    3    3    0  502  0.86251050911E+02  0.90357565448E+02  0.52062085587E+03  0.53541318753E+03  0.41800000000E+01 0. -1.
        -11    1    1    2    0    0 -0.22372650924E+01 -0.82038559201E+02  0.31135660428E+03  0.32199109550E+03  0.00000000000E+00 0.  1.
         11    1    1    2    0    0 -0.47288420287E+02 -0.81580293816E+01  0.81963798544E+02  0.94977957487E+02  0.00000000000E+00 0. -1.
</event>
<event>
 7    1  0.2648915E-009  0.1241758E+03  0.7561462E-02  0.1236363E+00
         -2   -1    0    0    0  501 -0.00000000000E+00  0.00000000000E+00  0.12018772642E+02  0.12018772642E+02  0.00000000000E+00 0.  1.
          2   -1    0    0  501    0  0.00000000000E+00 -0.00000000000E+00 -0.14476626740E+04  0.14476626740E+04  0.00000000000E+00 0. -1.
         25    2    1    2    0    0 -0.57197196018E+02  0.40653629497E+02 -0.92971126718E+03  0.94070953758E+03  0.12508859638E+03 0.  0.
          5    1    3    3  502    0  0.18325465008E+01  0.73293392792E+02 -0.56929598284E+03  0.57401277697E+03  0.41800000000E+01 0.  1.
         -5    1    3    3    0  502 -0.59029742519E+02 -0.32639763294E+02 -0.36041528434E+03  0.36669676061E+03  0.41800000000E+01 0.  1.
        -11    1    1    2    0    0 -0.12826015909E+02 -0.34774744582E+02 -0.93191962052E+02  0.10029222969E+03  0.00000000000E+00 0.  1.
         11    1    1    2    0    0  0.70023211927E+02 -0.58788849154E+01 -0.41274067216E+03  0.41867967941E+03  0.00000000000E+00 0. -1.
</event>
<event>
 7    1  0.2648915E-009  0.1156378E+03  0.7561462E-02  0.1250472E+00
         -2   -1    0    0    0  501 -0.00000000000E+00  0.00000000000E+00  0.53657555886E+02  0.53657555886E+02  0.00000000000E+00 0.  1.
          2   -1    0    0  501    0  0.00000000000E+00 -0.00000000000E+00 -0.61664377618E+03  0.61664377618E+03  0.00000000000E+00 0. -1.
         25    2    1    2    0    0  0.11225341627E+01  0.84618679403E+02 -0.51520534914E+03  0.53688526091E+03  0.12509056963E+03 0.  0.
          5    1    3    3  502    0 -0.37722098517E+02  0.66629329848E+02 -0.46270442857E+03  0.46901522889E+03  0.41800000000E+01 0. -1.
         -5    1    3    3    0  502  0.38844632679E+02  0.17989349556E+02 -0.52500920568E+02  0.67870032016E+02  0.41800000000E+01 0. -1.
        -11    1    1    2    0    0 -0.35576157096E+02 -0.58014010017E+02 -0.57175571703E+02  0.88883824803E+02  0.00000000000E+00 0. -1.
         11    1    1    2    0    0  0.34453622934E+02 -0.26604669387E+02  0.93947005538E+01  0.44532246349E+02  0.00000000000E+00 0.  1.
</event>
<event>
 7    1  0.2648915E-009  0.1112294E+03  0.7561462E-02  0.1258310E+00
          1   -1    0    0  501    0  0.00000000000E+00  0.00000000000E+00  0.19598724314E+03  0.19598724314E+03  0.00000000000E+00 0. -1.
         -1   -1    0    0    0  501 -0.00000000000E+00 -0.00000000000E+00 -0.82354038680E+02  0.82354038680E+02  0.00000000000E+00 0.  1.
         25    2    1    2    0    0 -0.61557341397E+02 -0.98154562582E+01  0.87695586197E+02  0.16499477194E+03  0.12508840661E+03 0.  0.
          5    1    3    3  502    0 -0.25094686381E+02  0.56713032253E+02  0.27092934814E+02  0.67805684339E+02  0.41800000000E+01 0. -1.
         -5    1    3    3    0  502 -0.36462655016E+02 -0.66528488511E+02  0.60602651383E+02  0.97189087602E+02  0.41800000000E+01 0. -1.
        -11    1    1    2    0    0  0.27221358853E+02 -0.23881188091E+02 -0.24440015193E+02  0.43687845736E+02  0.00000000000E+00 0.  1.
         11    1    1    2    0    0  0.34335982544E+02  0.33696644349E+02  0.50377633459E+02  0.69658664145E+02  0.00000000000E+00 0. -1.
</event>
<event>
 7    1  0.2648915E-009  0.1055664E+03  0.7561462E-02  0.1269008E+00
         -1   -1    0    0    0  501 -0.00000000000E+00  0.00000000000E+00  0.15217384177E+03  0.15217384177E+03  0.00000000000E+00 0.  1.
          1   -1    0    0  501    0  0.00000000000E+00 -0.00000000000E+00 -0.11810926126E+03  0.11810926126E+03  0.00000000000E+00 0. -1.
         25    2    1    2    0    0 -0.66447556128E+02  0.38123359876E+01 -0.21747574183E+02  0.14335360793E+03  0.12508992086E+03 0.  0.
          5    1    3    3  502    0  0.22235857370E+01  0.26844493012E+02  0.39781586801E+02  0.48224663679E+02  0.41800000000E+01 0.  1.
         -5    1    3    3    0  502 -0.68671141866E+02 -0.23032157024E+02 -0.61529160984E+02  0.95128944248E+02  0.41800000000E+01 0.  1.
        -11    1    1    2    0    0 -0.17076074452E+02 -0.19944049450E+02  0.25561893719E+02  0.36643796714E+02  0.00000000000E+00 0.  1.
         11    1    1    2    0    0  0.83523630581E+02  0.16131713462E+02  0.30250260975E+02  0.90285698389E+02  0.00000000000E+00 0. -1.
</event>
<event>
 7    1  0.2648915E-009  0.1070135E+03  0.7561462E-02  0.1266203E+00
          1   -1    0    0  501    0  0.00000000000E+00  0.00000000000E+00  0.16811511822E+03  0.16811511822E+03  0.00000000000E+00 0. -1.
         -1   -1    0    0    0  501 -0.00000000000E+00 -0.00000000000E+00 -0.13825692944E+03  0.13825692944E+03  0.00000000000E+00 0.  1.
         25    2    1    2    0    0 -0.54093058850E+02  0.55606433583E+02 -0.54375063367E+02  0.15691652182E+03  0.12509201746E+03 0.  0.
          5    1    3    3  502    0 -0.21879357927E+02  0.86809975731E+02 -0.64908658030E+02  0.11065841349E+03  0.41800000000E+01 0.  1.
         -5    1    3    3    0  502 -0.32213700923E+02 -0.31203542147E+02  0.10533594663E+02  0.46258108330E+02  0.41800000000E+01 0.  1.
        -11    1    1    2    0    0  0.14339365405E+02 -0.54000110412E+01 -0.21163908211E+02  0.26128308981E+02  0.00000000000E+00 0.  1.
         11    1    1    2    0    0  0.39753693445E+02 -0.50206422542E+02  0.10539716036E+03  0.12332721686E+03  0.00000000000E+00 0. -1.
</event>
<event>
 7    1  0.2648915E-009  0.1103286E+03  0.7561462E-02  0.1259963E+00
          2   -1    0    0  501    0  0.00000000000E+00  0.00000000000E+00  0.79467184698E+02  0.79467184698E+02  0.00000000000E+00 0. -1.
         -2   -1    0    0    0  501 -0.00000000000E+00 -0.00000000000E+00 -0.16182238303E+03  0.16182238303E+03  0.00000000000E+00 0.  1.
         25    2    1    2    0    0  0.32304494799E+02  0.93273892510E+01 -0.45144934583E+02  0.13717145351E+03  0.12508941588E+03 0.  0.
          5    1    3    3  502    0  0.28843231993E+02 -0.53234413763E+02 -0.15212477832E+01  0.60709319180E+02  0.41800000000E+01 0.  1.
         -5    1    3    3    0  502  0.34612628060E+01  0.62561803014E+02 -0.43623686799E+02  0.76462134331E+02  0.41800000000E+01 0.  1.
        -11    1    1    2    0    0  0.20364192977E+02  0.26536967152E+02 -0.10918539713E+02  0.35187007413E+02  0.00000000000E+00 0.  1.
         11    1    1    2    0    0 -0.52668687775E+02 -0.35864356403E+02 -0.26291724035E+02  0.68931106802E+02  0.00000000000E+00 0. -1.
</event>
<event>
 7    1  0.2648915E-009  0.1683171E+03  0.7561462E-02  0.1179614E+00
         -2   -1    0    0    0  501 -0.00000000000E+00  0.00000000000E+00  0.15882262528E+03  0.15882262528E+03  0.00000000000E+00 0.  1.
          2   -1    0    0  501    0  0.00000000000E+00 -0.00000000000E+00 -0.23685054631E+03  0.23685054631E+03  0.00000000000E+00 0. -1.
         25    2    1    2    0    0 -0.89970320085E+02  0.10428297142E+03 -0.12517187177E+03  0.22424150966E+03  0.12508661219E+03 0.  0.
          5    1    3    3  502    0 -0.22678308444E+02  0.10867149745E+03 -0.10708077480E+03  0.15429700180E+03  0.41800000000E+01 0.  1.
         -5    1    3    3    0  502 -0.67292011641E+02 -0.43885260246E+01 -0.18091096965E+02  0.69944507867E+02  0.41800000000E+01 0.  1.
        -11    1    1    2    0    0  0.99083134534E+02 -0.10934072806E+03  0.55929525586E+02  0.15780042520E+03  0.00000000000E+00 0.  1.
         11    1    1    2    0    0 -0.91128144492E+01  0.50577566339E+01 -0.87855748512E+01  0.13631236731E+02  0.00000000000E+00 0. -1.
</event>
<event>
 7    1  0.2648915E-009  0.9346856E+02  0.7561462E-02  0.1294663E+00
          1   -1    0    0  501    0  0.00000000000E+00  0.00000000000E+00  0.47294431725E+02  0.47294431725E+02  0.00000000000E+00 0. -1.
         -1   -1    0    0    0  501 -0.00000000000E+00 -0.00000000000E+00 -0.26368767527E+03  0.26368767527E+03  0.00000000000E+00 0.  1.
         25    2    1    2    0    0  0.28204673703E+01 -0.33931125969E+02 -0.10223717590E+03  0.16510215622E+03  0.12508799106E+03 0.  0.
          5    1    3    3  502    0 -0.54975251614E+01  0.40758354634E+02 -0.42694058333E+01  0.41559192504E+02  0.41800000000E+01 0.  1.
         -5    1    3    3    0  502  0.83179925317E+01 -0.74689480603E+02 -0.97967770063E+02  0.12354296372E+03  0.41800000000E+01 0.  1.
        -11    1    1    2    0    0 -0.32205108986E+02  0.16988111107E+02 -0.12153958665E+02  0.38385982793E+02  0.00000000000E+00 0. -1.
         11    1    1    2    0    0  0.29384641616E+02  0.16943014862E+02 -0.10200210899E+03  0.10749396798E+03  0.00000000000E+00 0.  1.
</event>
<event>
 7    1  0.2648915E-009  0.5624065E+02  0.7561462E-02  0.1414321E+00
          1   -1    0    0  501    0  0.00000000000E+00  0.00000000000E+00  0.19967369579E+03  0.19967369579E+03  0.00000000000E+00 0. -1.
         -1   -1    0    0    0  501 -0.00000000000E+00 -0.00000000000E+00 -0.97412942404E+02  0.97412942404E+02  0.00000000000E+00 0.  1.
         25    2    1    2    0    0 -0.21440303005E+02 -0.18614247995E+02  0.14288252751E+03  0.19201523745E+03  0.12509299709E+03 0.  0.
          5    1    3    3  502    0  0.45721677193E+01  0.25135368254E+02 -0.12288534721E+02  0.28656097789E+02  0.41800000000E+01 0.  1.
         -5    1    3    3    0  502 -0.26012470724E+02 -0.43749616249E+02  0.15517106223E+03  0.16335913966E+03  0.41800000000E+01 0.  1.
        -11    1    1    2    0    0  0.16510322259E+02  0.25312268815E+00  0.28743052767E+02  0.33148422203E+02  0.00000000000E+00 0. -1.
         11    1    1    2    0    0  0.49299807454E+01  0.18361125307E+02 -0.69364826893E+02  0.71922978544E+02  0.00000000000E+00 0.  1.
</event>
<event>
 7    1  0.2648915E-009  0.1882399E+03  0.7561462E-02  0.1160058E+00
          1   -1    0    0  501    0  0.00000000000E+00  0.00000000000E+00  0.81720623307E+03  0.81720623307E+03  0.00000000000E+00 0. -1.
         -1   -1    0    0    0  501 -0.00000000000E+00 -0.00000000000E+00 -0.90055137978E+02  0.90055137978E+02  0.00000000000E+00 0.  1.
         25    2    1    2    0    0 -0.15829031070E+03  0.60203219765E+02  0.69309751552E+02  0.22166359491E+03  0.12510258797E+03 0.  0.
          5    1    3    3  502    0 -0.17233530944E+03  0.51862734536E+02  0.34936093804E+02  0.18337722095E+03  0.41800000000E+01 0. -1.
         -5    1    3    3    0  502  0.14044998744E+02  0.83404852289E+01  0.34373657748E+02  0.38286373954E+02  0.41800000000E+01 0. -1.
        -11    1    1    2    0    0  0.14468158719E+03 -0.71984774519E+02  0.64061443743E+03  0.66068254622E+03  0.00000000000E+00 0. -1.
         11    1    1    2    0    0  0.13608723507E+02  0.11781554754E+02  0.17226906114E+02  0.24915229924E+02  0.00000000000E+00 0.  1.
</event>
<event>
 7    1  0.2648915E-009  0.1383550E+03  0.7561462E-02  0.1215560E+00
          4   -1    0    0  501    0  0.00000000000E+00  0.00000000000E+00  0.70950439612E+03  0.70950439612E+03  0.00000000000E+00 0. -1.
         -4   -1    0    0    0  501 -0.00000000000E+00 -0.00000000000E+00 -0.35821481294E+02  0.35821481294E+02  0.00000000000E+00 0.  1.
         25    2    1    2    0    0 -0.10467165537E+03  0.30999621974E+02  0.25911541203E+03  0.30774198551E+03  0.12508877207E+03 0.  0.
          5    1    3    3  502    0 -0.51640797675E+02  0.57559551690E+02  0.54589386711E+02  0.94748865517E+02  0.41800000000E+01 0.  1.
         -5    1    3    3    0  502 -0.53030857692E+02 -0.26559929716E+02  0.20452602532E+03  0.21299312000E+03  0.41800000000E+01 0.  1.
        -11    1    1    2    0    0 -0.40310242163E+01  0.19526842315E+02  0.50695027633E+02  0.54475063595E+02  0.00000000000E+00 0. -1.
         11    1    1    2    0    0  0.10870267958E+03 -0.50526464289E+02  0.36387247516E+03  0.38310882830E+03  0.00000000000E+00 0.  1.
</event>
<event>
 7    1  0.2648915E-009  0.1095622E+03  0.7561462E-02  0.1261383E+00
          2   -1    0    0  501    0  0.00000000000E+00  0.00000000000E+00  0.10787208225E+03  0.10787208225E+03  0.00000000000E+00 0.  1.
         -2   -1    0    0    0  501 -0.00000000000E+00 -0.00000000000E+00 -0.16141059326E+03  0.16141059326E+03  0.00000000000E+00 0. -1.
         25    2    1    2    0    0 -0.69779400548E+02 -0.47014574569E+01  0.85414866332E+00  0.14331476983E+03  0.12508846965E+03 0.  0.
          5    1    3    3  502    0 -0.21432623757E+02 -0.59962349867E+02  0.20792156851E+02  0.67116517708E+02  0.41800000000E+01 0. -1.
         -5    1    3    3    0  502 -0.48346776791E+02  0.55260892410E+02 -0.19938008187E+02  0.76198252122E+02  0.41800000000E+01 0. -1.
        -11    1    1    2    0    0  0.21707888224E+02  0.21780419421E+02  0.19325245004E+02  0.36319198446E+02  0.00000000000E+00 0.  1.
         11    1    1    2    0    0  0.48071512324E+02 -0.17078961964E+02 -0.73717904676E+02  0.89648707234E+02  0.00000000000E+00 0. -1.
</event>
<event>
 7    1  0.2648915E-009  0.6095986E+02  0.7561462E-02  0.1393847E+00
         -1   -1    0    0    0  501 -0.00000000000E+00  0.00000000000E+00  0.10289152169E+03  0.10289152169E+03  0.00000000000E+00 0.  1.
          1   -1    0    0  501    0  0.00000000000E+00 -0.00000000000E+00 -0.12746052829E+03  0.12746052829E+03  0.00000000000E+00 0. -1.
         25    2    1    2    0    0 -0.12928053865E+01 -0.20938446611E+01 -0.50382018107E+02  0.13485957911E+03  0.12507079115E+03 0.  0.
          5    1    3    3  502    0 -0.14250179474E+02  0.22757145742E+02  0.35337671125E+02  0.44577782559E+02  0.41800000000E+01 0.  1.
         -5    1    3    3    0  502  0.12957374087E+02 -0.24850990403E+02 -0.85719689232E+02  0.90281796555E+02  0.41800000000E+01 0.  1.
        -11    1    1    2    0    0  0.33791334126E+02  0.27631728402E+01 -0.19966493821E+02  0.39346540657E+02  0.00000000000E+00 0. -1.
         11    1    1    2    0    0 -0.32498528740E+02 -0.66932817909E+00  0.45779505335E+02  0.56145930210E+02  0.00000000000E+00 0.  1.
</event>
<event>
 7    1  0.2648915E-009  0.1410157E+03  0.7561462E-02  0.1211969E+00
         -2   -1    0    0    0  501 -0.00000000000E+00  0.00000000000E+00  0.89882797974E+02  0.89882797974E+02  0.00000000000E+00 0. -1.
          2   -1    0    0  501    0  0.00000000000E+00 -0.00000000000E+00 -0.34084159307E+03  0.34084159307E+03  0.00000000000E+00 0.  1.
         25    2    1    2    0    0 -0.45949381604E+02  0.11514281295E+03 -0.20437378328E+03  0.26979165064E+03  0.12509867474E+03 0.  0.
          5    1    3    3  502    0 -0.49743315307E+02  0.76245652230E+02 -0.21108542077E+03  0.22991808142E+03  0.41800000000E+01 0.  1.
         -5    1    3    3    0  502  0.37939337027E+01  0.38897160716E+02  0.67116374942E+01  0.39873569223E+02  0.41800000000E+01 0.  1.
        -11    1    1    2    0    0 -0.41020061618E+01 -0.98881757763E+02 -0.16557864593E+02  0.10034237067E+03  0.00000000000E+00 0. -1.
         11    1    1    2    0    0  0.50051387766E+02 -0.16261055183E+02 -0.30027147223E+02  0.60590369724E+02  0.00000000000E+00 0.  1.
</event>
<event>
 7    1  0.2648915E-009  0.6892939E+02  0.7561462E-02  0.1363772E+00
          2   -1    0    0  501    0  0.00000000000E+00  0.00000000000E+00  0.88523617447E+03  0.88523617447E+03  0.00000000000E+00 0. -1.
         -2   -1    0    0    0  501 -0.00000000000E+00 -0.00000000000E+00 -0.14010507776E+02  0.14010507776E+02  0.00000000000E+00 0.  1.
         25    2    1    2    0    0  0.85619385413E+01  0.29037561265E+02  0.52762911423E+03  0.54309696781E+03  0.12508136352E+03 0.  0.
          5    1    3    3  502    0  0.84543812615E+01  0.36457832551E+02  0.53213186862E+03  0.53346269609E+03  0.41800000000E+01 0. -1.
         -5    1    3    3    0  502  0.10755727980E+00 -0.74202712854E+01 -0.45027543859E+01  0.96342717201E+01  0.41800000000E+01 0. -1.
        -11    1    1    2    0    0  0.32350125762E+02 -0.37893260619E+02  0.22289431897E+03  0.22839506839E+03  0.00000000000E+00 0. -1.
         11    1    1    2    0    0 -0.40912064303E+02  0.88556993538E+01  0.12070223349E+03  0.12775464604E+03  0.00000000000E+00 0.  1.
</event>
<event>
 7    1  0.2680484E-009  0.2821691E+03  0.7561462E-02  0.1094510E+00
         -2   -1    0    0    0  501 -0.00000000000E+00  0.00000000000E+00  0.63415933911E+02  0.63415933911E+02  0.00000000000E+00 0.  1.
          2   -1    0    0  501    0  0.00000000000E+00 -0.00000000000E+00 -0.13282536620E+04  0.13282536620E+04  0.00000000000E+00 0. -1.
         25    2    1    2    0    0 -0.26100737710E+03  0.60605879945E+02 -0.59515242716E+03  0.66457010829E+03  0.12509633764E+03 0.  0.
          5    1    3    3  502    0 -0.23673352307E+03  0.92866030412E+02 -0.49526030151E+03  0.55674688971E+03  0.41800000000E+01 0. -1.
         -5    1    3    3    0  502 -0.24273854030E+02 -0.32260150467E+02 -0.99892125652E+02  0.10782321858E+03  0.41800000000E+01 0. -1.
        -11    1    1    2    0    0  0.17380086709E+03 -0.53845106367E+02 -0.54669253456E+03  0.57617598372E+03  0.00000000000E+00 0.  1.
         11    1    1    2    0    0  0.87206510008E+02 -0.67607735775E+01 -0.12299276635E+03  0.15092350387E+03  0.00000000000E+00 0. -1.
</event>
<event>
 7    1  0.2648915E-009  0.1651920E+03  0.7561462E-02  0.1182957E+00
          1   -1    0    0  501    0  0.00000000000E+00  0.00000000000E+00  0.42937986501E+02  0.42937986501E+02  0.00000000000E+00 0. -1.
         -1   -1    0    0    0  501 -0.00000000000E+00 -0.00000000000E+00 -0.89487484514E+03  0.89487484514E+03  0.00000000000E+00 0.  1.
         25    2    1    2    0    0  0.11140961421E+03 -0.76293885754E+02 -0.22944514986E+03  0.29414864678E+03  0.12508193502E+03 0.  0.
          5    1    3    3  502    0  0.53410617310E+02  0.30569718863E+02 -0.89759414843E+02  0.10891017724E+03  0.41800000000E+01 0.  1.
         -5    1    3    3    0  502  0.57998996896E+02 -0.10686360462E+03 -0.13968573502E+03  0.18523846955E+03  0.41800000000E+01 0.  1.
        -11    1    1    2    0    0 -0.37153939361E+02 -0.43623236665E+01 -0.60905043276E+02  0.71476355351E+02  0.00000000000E+00 0. -1.
         11    1    1    2    0    0 -0.74255674845E+02  0.80656209421E+02 -0.56158666551E+03  0.57218782951E+03  0.00000000000E+00 0.  1.
</event>
<event>
 7    1  0.2648915E-009  0.4571841E+03  0.7561462E-02  0.1025601E+00
          2   -1    0    0  501    0  0.00000000000E+00  0.00000000000E+00  0.11591389569E+04  0.11591389569E+04  0.00000000000E+00 0.  1.
         -2   -1    0    0    0  501 -0.00000000000E+00 -0.00000000000E+00 -0.18103573490E+03  0.18103573490E+03  0.00000000000E+00 0. -1.
         25    2    1    2    0    0  0.16384496210E+03 -0.41386662078E+03  0.50032533200E+03  0.68125199824E+03  0.12509234936E+03 0.  0.
          5    1    3    3  502    0  0.37694809333E+01 -0.16706737783E+03  0.20314850520E+03  0.26308269667E+03  0.41800000000E+01 0.  1.
         -5    1    3    3    0  502  0.16007548117E+03 -0.24679924295E+03  0.29717682679E+03  0.41816930157E+03  0.41800000000E+01 0.  1.
        -11    1    1    2    0    0 -0.58730191335E+01  0.11335058288E+03  0.13664139561E+03  0.17763366232E+03  0.00000000000E+00 0.  1.
         11    1    1    2    0    0 -0.15797194297E+03  0.30051603790E+03  0.34113649444E+03  0.48128903129E+03  0.00000000000E+00 0. -1.
</event>
<event>
 7    1  0.2648915E-009  0.1131537E+03  0.7561462E-02  0.1254839E+00
         -2   -1    0    0    0  501 -0.00000000000E+00  0.00000000000E+00  0.27716825208E+03  0.27716825208E+03  0.00000000000E+00 0. -1.
          2   -1    0    0  501    0  0.00000000000E+00 -0.00000000000E+00 -0.51749443353E+02  0.51749443353E+02  0.00000000000E+00 0.  1.
         25    2    1    2    0    0 -0.27070269490E+02 -0.38318280044E+02  0.10170045657E+03  0.16790744811E+03  0.12509531640E+03 0.  0.
          5    1    3    3  502    0 -0.59618549788E+02 -0.66885229991E+02  0.62292307090E+02  0.10920535423E+03  0.41800000000E+01 0.  1.
         -5    1    3    3    0  502  0.32548280298E+02  0.28566949946E+02  0.39408149485E+02  0.58702093876E+02  0.41800000000E+01 0.  1.
        -11    1    1    2    0    0 -0.11635192456E+02 -0.19982872280E+02  0.67170348075E+02  0.71039063540E+02  0.00000000000E+00 0.  1.
         11    1    1    2    0    0  0.38705461946E+02  0.58301152324E+02  0.56548004074E+02  0.89971183784E+02  0.00000000000E+00 0. -1.
</event>
<event>
 7    1  0.2648915E-009  0.1179181E+03  0.7561462E-02  0.1246572E+00
         -2   -1    0    0    0  501 -0.00000000000E+00  0.00000000000E+00  0.47866700765E+02  0.47866700765E+02  0.00000000000E+00 0.  1.
          2   -1    0    0  501    0  0.00000000000E+00 -0.00000000000E+00 -0.86398957745E+03  0.86398957745E+03  0.00000000000E+00 0. -1.
         25    2    1    2    0    0 -0.82781519545E+02  0.19716626826E+02 -0.76704330733E+03  0.78182116106E+03  0.12508943687E+03 0.  0.
          5    1    3    3  502    0  0.20061204698E+02  0.17950437330E+02 -0.39082099739E+03  0.39176931290E+03  0.41800000000E+01 0.  1.
         -5    1    3    3    0  502 -0.10284272424E+03  0.17661894962E+01 -0.37622230994E+03  0.39005184816E+03  0.41800000000E+01 0.  1.
        -11    1    1    2    0    0 -0.84258324901E+01  0.66222664285E+01  0.12815500652E+02  0.16705870907E+02  0.00000000000E+00 0.  1.
         11    1    1    2    0    0  0.91207352035E+02 -0.26338893255E+02 -0.61895070010E+02  0.11332924625E+03  0.00000000000E+00 0. -1.
</event>
<event>
 7    1  0.2648915E-009  0.1103074E+03  0.7561462E-02  0.1260002E+00
         -1   -1    0    0    0  501 -0.00000000000E+00  0.00000000000E+00  0.32100541152E+02  0.32100541152E+02  0.00000000000E+00 0.  1.
          1   -1    0    0  501    0  0.00000000000E+00 -0.00000000000E+00 -0.97716230114E+03  0.97716230114E+03  0.00000000000E+00 0. -1.
         25    2    1    2    0    0  0.54192500898E+02  0.38344549962E+02 -0.85162509130E+03  0.86331924252E+03  0.12509071395E+03 0.  0.
          5    1    3    3  502    0  0.81574079290E+01 -0.32475363746E+02 -0.51954176462E+03  0.52063644719E+03  0.41800000000E+01 0.  1.
         -5    1    3    3    0  502  0.46035092969E+02  0.70819913708E+02 -0.33208332667E+03  0.34268279533E+03  0.41800000000E+01 0.  1.
        -11    1    1    2    0    0 -0.73376783618E+02 -0.39014847369E+02 -0.46490200179E+02  0.95224205967E+02  0.00000000000E+00 0.  1.
         11    1    1    2    0    0  0.19184282720E+02  0.67029740682E+00 -0.46946468511E+02  0.50719393803E+02  0.00000000000E+00 0. -1.
</event>
<event>
 7    1  0.2895983E-009  0.1559548E+03  0.7561462E-02  0.1193341E+00
          1   -1    0    0  501    0  0.00000000000E+00  0.00000000000E+00  0.26582173658E+03  0.26582173658E+03  0.00000000000E+00 0. -1.
         -1   -1    0    0    0  501 -0.00000000000E+00 -0.00000000000E+00 -0.15033485370E+03  0.15033485370E+03  0.00000000000E+00 0.  1.
         25    2    1    2    0    0  0.13744473244E+03  0.34472595323E+02  0.15340748669E+03  0.24343897236E+03  0.12509701031E+03 0.  0.
          5    1    3    3  502    0  0.11344526925E+03 -0.14445612801E+02  0.15002124134E+03  0.18868585029E+03  0.41800000000E+01 0. -1.
         -5    1    3    3    0  502  0.23999463190E+02  0.48918208124E+02  0.33862453466E+01  0.54753122075E+02  0.41800000000E+01 0. -1.
        -11    1    1    2    0    0 -0.52110705899E+02 -0.42023404783E+01 -0.59938697546E+02  0.79535104188E+02  0.00000000000E+00 0. -1.
         11    1    1    2    0    0 -0.85334026537E+02 -0.30270254844E+02  0.22018093737E+02  0.93182513730E+02  0.00000000000E+00 0.  1.
</event>
<event>
 7    1  0.2984514E-009  0.1173002E+03  0.7561462E-02  0.1247619E+00
         -1   -1    0    0    0  501 -0.00000000000E+00  0.00000000000E+00  0.15992444062E+02  0.15992444062E+02  0.00000000000E+00 0.  1.
          1   -1    0    0  501    0  0.00000000000E+00 -0.00000000000E+00 -0.12224585200E+04  0.12224585200E+04  0.00000000000E+00 0. -1.
         25    2    1    2    0    0 -0.38025888841E+01 -0.71403389046E+02 -0.88400398533E+03  0.89566905859E+03  0.12508841981E+03 0.  0.
          5    1    3    3  502    0 -0.49178274792E+02 -0.17110561311E+02 -0.62380686413E+03  0.62599021570E+03  0.41800000000E+01 0. -1.
         -5    1    3    3    0  502  0.45375685908E+02 -0.54292827736E+02 -0.26019712121E+03  0.26967884289E+03  0.41800000000E+01 0. -1.
        -11    1    1    2    0    0 -0.36668344997E+02  0.10116806521E+02 -0.16049844930E+03  0.16494444376E+03  0.00000000000E+00 0. -1.
         11    1    1    2    0    0  0.40470933881E+02  0.61286582526E+02 -0.16196364133E+03  0.17783746174E+03  0.00000000000E+00 0.  1.
</event>
<event>
 7    1  0.2648915E-009  0.8919184E+02  0.7561462E-02  0.1304821E+00
         -2   -1    0    0    0  501 -0.00000000000E+00  0.00000000000E+00  0.19316440005E+02  0.19316440005E+02  0.00000000000E+00 0.  1.
          2   -1    0    0  501    0  0.00000000000E+00 -0.00000000000E+00 -0.94188023190E+03  0.94188023190E+03  0.00000000000E+00 0. -1.
         25    2    1    2    0    0 -0.29021064855E+02 -0.62572298110E+02 -0.63467410243E+03  0.65055041317E+03  0.12508840506E+03 0.  0.
          5    1    3    3  502    0 -0.41808687392E+02 -0.34210818472E+02 -0.60478112574E+03  0.60720344934E+03  0.41800000000E+01 0. -1.
         -5    1    3    3    0  502  0.12787622537E+02 -0.28361479638E+02 -0.29892976689E+02  0.43346963824E+02  0.41800000000E+01 0. -1.
        -11    1    1    2    0    0 -0.12978582397E+02 -0.44457191720E+01 -0.18134380982E+01  0.13838228851E+02  0.00000000000E+00 0.  1.
         11    1    1    2    0    0  0.41999647252E+02  0.67018017282E+02 -0.28607625137E+03  0.29680802989E+03  0.00000000000E+00 0. -1.
</event>
<event>
 7    1  0.2648915E-009  0.1787399E+03  0.7561462E-02  0.1169028E+00
         -1   -1    0    0    0  501 -0.00000000000E+00  0.00000000000E+00  0.22376555885E+02  0.22376555885E+02  0.00000000000E+00 0.  1.
          1   -1    0    0  501    0  0.00000000000E+00 -0.00000000000E+00 -0.21138049713E+04  0.21138049713E+04  0.00000000000E+00 0. -1.
         25    2    1    2    0    0  0.34298783011E+02  0.15871435461E+03 -0.15567001278E+04  0.15701362919E+04  0.12508410945E+03 0.  0.
          5    1    3    3  502    0  0.68091529430E+02  0.78204052807E+02 -0.55424288858E+03  0.56387497036E+03  0.41800000000E+01 0.  1.
         -5    1    3    3    0  502 -0.33792746419E+02  0.80510301799E+02 -0.10024572392E+04  0.10062613215E+04  0.41800000000E+01 0.  1.
        -11    1    1    2    0    0 -0.32849307115E+02 -0.67571309151E+02 -0.12127334648E+03  0.14266107866E+03  0.00000000000E+00 0. -1.
         11    1    1    2    0    0 -0.14494758959E+01 -0.91143045454E+02 -0.41345494116E+03  0.42338415663E+03  0.00000000000E+00 0.  1.
</event>
<event>
 7    1  0.2648915E-009  0.4054503E+03  0.7561462E-02  0.1041909E+00
          2   -1    0    0  501    0  0.00000000000E+00  0.00000000000E+00  0.92252800983E+03  0.92252800983E+03  0.00000000000E+00 0. -1.
         -2   -1    0    0    0  501 -0.00000000000E+00 -0.00000000000E+00 -0.20007144330E+03  0.20007144330E+03  0.00000000000E+00 0.  1.
         25    2    1    2    0    0  0.10848349637E+03  0.38737005199E+03  0.22893160783E+03  0.47946089940E+03  0.12509535094E+03 0.  0.
          5    1    3    3  502    0  0.49175590156E+02  0.29232476150E+03  0.11050762685E+03  0.31638807317E+03  0.41800000000E+01 0. -1.
         -5    1    3    3    0  502  0.59307906214E+02  0.95045290492E+02  0.11842398098E+03  0.16307282623E+03  0.41800000000E+01 0. -1.
        -11    1    1    2    0    0 -0.14972852332E+02 -0.45418488233E+02  0.11490351958E+03  0.12445820259E+03  0.00000000000E+00 0.  1.
         11    1    1    2    0    0 -0.93510644037E+02 -0.34195156376E+03  0.37862143912E+03  0.51868035115E+03  0.00000000000E+00 0. -1.
</event>
<event>
 7    1  0.2648915E-009  0.3027875E+03  0.7561462E-02  0.1083855E+00
          1   -1    0    0  501    0  0.00000000000E+00  0.00000000000E+00  0.14813762194E+04  0.14813762194E+04  0.00000000000E+00 0. -1.
         -1   -1    0    0    0  501 -0.00000000000E+00 -0.00000000000E+00 -0.66213821089E+02  0.66213821089E+02  0.00000000000E+00 0.  1.
         25    2    1    2    0    0  0.15007077357E+03  0.24272015819E+03  0.54905340780E+03  0.63130068079E+03  0.12508634090E+03 0.  0.
          5    1    3    3  502    0  0.11607546234E+02 -0.12083598017E+02  0.12294289343E+02  0.21198358924E+02  0.41800000000E+01 0. -1.
         -5    1    3    3    0  502  0.13846322734E+03  0.25480375620E+03  0.53675911846E+03  0.61010232187E+03  0.41800000000E+01 0. -1.
        -11    1    1    2    0    0  0.68662840036E+01 -0.46579965182E+02  0.16254273743E+03  0.16922464508E+03  0.00000000000E+00 0.  1.
         11    1    1    2    0    0 -0.15693705757E+03 -0.19614019300E+03  0.70356625311E+03  0.74706471464E+03  0.00000000000E+00 0. -1.
</event>
<event>
 7    1  0.2648915E-009  0.1058946E+03  0.7561462E-02  0.1268367E+00
          2   -1    0    0  501    0  0.00000000000E+00  0.00000000000E+00  0.55966180628E+03  0.55966180628E+03  0.00000000000E+00 0. -1.
         -2   -1    0    0    0  501 -0.00000000000E+00 -0.00000000000E+00 -0.32018259019E+02  0.32018259019E+02  0.00000000000E+00 0.  1.
         25    2    1    2    0    0 -0.79042764837E+02 -0.14114419065E+01  0.29056293345E+03  0.32607344646E+03  0.12508926153E+03 0.  0.
          5    1    3    3  502    0 -0.56187549884E+02  0.22370297205E+02  0.28618937076E+03  0.29253939785E+03  0.41800000000E+01 0. -1.
         -5    1    3    3    0  502 -0.22855214953E+02 -0.23781739111E+02  0.43735626950E+01  0.33534048613E+02  0.41800000000E+01 0. -1.
        -11    1    1    2    0    0 -0.11730315964E+02 -0.21329193469E+02  0.69909521233E+02  0.74026184325E+02  0.00000000000E+00 0.  1.
         11    1    1    2    0    0  0.90773080801E+02  0.22740635376E+02  0.16717109258E+03  0.19158043451E+03  0.00000000000E+00 0. -1.
</event>
<event>
 7    1  0.2648915E-009  0.9094723E+02  0.7561462E-02  0.1300574E+00
         -1   -1    0    0    0  501 -0.00000000000E+00  0.00000000000E+00  0.18894417958E+02  0.18894417958E+02  0.00000000000E+00 0.  1.
          1   -1    0    0  501    0  0.00000000000E+00 -0.00000000000E+00 -0.62525824507E+03  0.62525824507E+03  0.00000000000E+00 0. -1.
         25    2    1    2    0    0 -0.18085542613E+02  0.41834156080E+01 -0.34565302159E+03  0.36806003862E+03  0.12509033886E+03 0.  0.
          5    1    3    3  502    0  0.38646085773E+02 -0.12538652017E+02 -0.26405248757E+03  0.26719267642E+03  0.41800000000E+01 0. -1.
         -5    1    3    3    0  502 -0.56731628386E+02  0.16722067625E+02 -0.81600534018E+02  0.10086736220E+03  0.41800000000E+01 0. -1.
        -11    1    1    2    0    0 -0.19191881431E+02  0.27021927905E+02 -0.51021545088E+02  0.60841687713E+02  0.00000000000E+00 0. -1.
         11    1    1    2    0    0  0.37277424045E+02 -0.31205343513E+02 -0.20968926044E+03  0.21525093670E+03  0.00000000000E+00 0.  1.
</event>
<event>
 7    1  0.2648915E-009  0.1195445E+03  0.7561462E-02  0.1243850E+00
          1   -1    0    0  501    0  0.00000000000E+00  0.00000000000E+00  0.32594738276E+03  0.32594738276E+03  0.00000000000E+00 0. -1.
         -1   -1    0    0    0  501 -0.00000000000E+00 -0.00000000000E+00 -0.53031978348E+02  0.53031978348E+02  0.00000000000E+00 0.  1.
         25    2    1    2    0    0 -0.62263079207E+02 -0.34202737807E+02  0.17864858168E+03  0.22936851437E+03  0.12509229131E+03 0.  0.
          5    1    3    3  502    0 -0.37929020863E+02 -0.79490318569E+02  0.13769127440E+03  0.16350437553E+03  0.41800000000E+01 0. -1.
         -5    1    3    3    0  502 -0.24334058344E+02  0.45287580762E+02  0.40957307272E+02  0.65864138844E+02  0.41800000000E+01 0. -1.
        -11    1    1    2    0    0  0.38092115936E+02  0.55367661643E+02  0.22317403571E+02  0.70814220001E+02  0.00000000000E+00 0.  1.
         11    1    1    2    0    0  0.24170963271E+02 -0.21164923836E+02  0.71949419163E+02  0.78796626732E+02  0.00000000000E+00 0. -1.
</event>
<event>
 7    1  0.2648915E-009  0.1831335E+03  0.7561462E-02  0.1164804E+00
          2   -1    0    0  501    0  0.00000000000E+00  0.00000000000E+00  0.94561980297E+03  0.94561980297E+03  0.00000000000E+00 0. -1.
         -2   -1    0    0    0  501 -0.00000000000E+00 -0.00000000000E+00 -0.39257584350E+02  0.39257584350E+02  0.00000000000E+00 0.  1.
         25    2    1    2    0    0  0.37415066160E+02  0.53470777465E+02  0.44886909240E+03  0.47052107709E+03  0.12509040992E+03 0.  0.
          5    1    3    3  502    0  0.66621534959E+02 -0.71449308893E+01  0.29481631510E+03  0.30236337577E+03  0.41800000000E+01 0.  1.
         -5    1    3    3    0  502 -0.29206468799E+02  0.60615708354E+02  0.15405277731E+03  0.16815770133E+03  0.41800000000E+01 0.  1.
        -11    1    1    2    0    0  0.93681144770E+02 -0.31226731985E+02  0.15305055222E+03  0.18214207974E+03  0.00000000000E+00 0.  1.
         11    1    1    2    0    0 -0.13109621093E+03 -0.22244045479E+02  0.30444257400E+03  0.33221423050E+03  0.00000000000E+00 0. -1.
</event>
<event>
 7    1  0.2648915E-009  0.3543255E+03  0.7561462E-02  0.1060854E+00
         -2   -1    0    0    0  501 -0.00000000000E+00  0.00000000000E+00  0.10540266812E+03  0.10540266812E+03  0.00000000000E+00 0.  1.
          2   -1    0    0  501    0  0.00000000000E+00 -0.00000000000E+00 -0.12756021383E+04  0.12756021383E+04  0.00000000000E+00 0. -1.
         25    2    1    2    0    0  0.23037864190E+03  0.26316925170E+03 -0.56744582225E+03  0.67821451717E+03  0.12509115246E+03 0.  0.
          5    1    3    3  502    0  0.18510992415E+03  0.24682570122E+03 -0.40753806071E+03  0.51116861614E+03  0.41800000000E+01 0. -1.
         -5    1    3    3    0  502  0.45268717752E+02  0.16343550484E+02 -0.15990776154E+03  0.16704590103E+03  0.41800000000E+01 0. -1.
        -11    1    1    2    0    0 -0.13924035822E+03 -0.13054621345E+03 -0.40587845681E+03  0.44851701518E+03  0.00000000000E+00 0.  1.
         11    1    1    2    0    0 -0.91138283683E+02 -0.13262303825E+03 -0.19687519112E+03  0.25427327406E+03  0.00000000000E+00 0. -1.
</event>
<event>
 7    1  0.2648915E-009  0.1080868E+03  0.7561462E-02  0.1264154E+00
         -2   -1    0    0    0  501 -0.00000000000E+00  0.00000000000E+00  0.86278229687E+01  0.86278229687E+01  0.00000000000E+00 0.  1.
          2   -1    0    0  501    0  0.00000000000E+00 -0.00000000000E+00 -0.19452000900E+04  0.19452000900E+04  0.00000000000E+00 0. -1.
         25    2    1    2    0    0 -0.37316062816E+02 -0.29588304606E+02 -0.14751619855E+04  0.14812220815E+04  0.12509202545E+03 0.  0.
          5    1    3    3  502    0  0.38078481177E+02 -0.13058643334E+02 -0.89740316704E+03  0.89831532076E+03  0.41800000000E+01 0.  1.
         -5    1    3    3    0  502 -0.75394543993E+02 -0.16529661273E+02 -0.57775881847E+03  0.58290676072E+03  0.41800000000E+01 0.  1.
        -11    1    1    2    0    0  0.47068030543E+02 -0.17575178252E+02 -0.17096417664E+03  0.17819381607E+03  0.00000000000E+00 0.  1.
         11    1    1    2    0    0 -0.97519677272E+01  0.47163482858E+02 -0.29044610485E+03  0.29441201540E+03  0.00000000000E+00 0. -1.
</event>
<event>
 7    1  0.2648915E-009  0.8466657E+02  0.7561462E-02  0.1316307E+00
         -4   -1    0    0    0  501 -0.00000000000E+00  0.00000000000E+00  0.86197870056E+02  0.86197870056E+02  0.00000000000E+00 0.  1.
          4   -1    0    0  501    0  0.00000000000E+00 -0.00000000000E+00 -0.14199826216E+03  0.14199826216E+03  0.00000000000E+00 0. -1.
         25    2    1    2    0    0  0.20425362036E+02 -0.18762329742E+02 -0.22156424239E+02  0.13002558608E+03  0.12508607224E+03 0.  0.
          5    1    3    3  502    0  0.27825899584E+02  0.31353702328E+02 -0.55168814412E+02  0.69414737779E+02  0.41800000000E+01 0.  1.
         -5    1    3    3    0  502 -0.74005375484E+01 -0.50116032070E+02  0.33012390173E+02  0.60610848298E+02  0.41800000000E+01 0.  1.
        -11    1    1    2    0    0 -0.78142852348E+01 -0.27413788116E+02  0.13004735934E+02  0.31332123919E+02  0.00000000000E+00 0.  1.
         11    1    1    2    0    0 -0.12611076801E+02  0.46176117858E+02 -0.46648703796E+02  0.66838422216E+02  0.00000000000E+00 0. -1.
</event>
<event>
 7    1  0.2648915E-009  0.1936942E+03  0.7561462E-02  0.1155171E+00
         -2   -1    0    0    0  501 -0.00000000000E+00  0.00000000000E+00  0.21163887147E+03  0.21163887147E+03  0.00000000000E+00 0.  1.
          2   -1    0    0  501    0  0.00000000000E+00 -0.00000000000E+00 -0.18086764251E+03  0.18086764251E+03  0.00000000000E+00 0. -1.
         25    2    1    2    0    0 -0.11203369748E+03 -0.11484854541E+03 -0.82779151624E+01  0.20360836336E+03  0.12508438750E+03 0.  0.
          5    1    3    3  502    0 -0.10060447037E+02 -0.99464642829E+02  0.69831906363E-01  0.10005950752E+03  0.41800000000E+01 0.  1.
         -5    1    3    3    0  502 -0.10197325044E+03 -0.15383902577E+02 -0.83477470688E+01  0.10354885584E+03  0.41800000000E+01 0.  1.
        -11    1    1    2    0    0  0.95319726816E+01 -0.15559539124E+02  0.89324459901E+01  0.20316159881E+02  0.00000000000E+00 0.  1.
         11    1    1    2    0    0  0.10250172480E+03  0.13040808453E+03  0.30116698137E+02  0.16858199075E+03  0.00000000000E+00 0. -1.
</event>
<event>
 7    1  0.2648915E-009  0.1966946E+03  0.7561462E-02  0.1152558E+00
          2   -1    0    0  501    0  0.00000000000E+00  0.00000000000E+00  0.44588008117E+03  0.44588008117E+03  0.00000000000E+00 0. -1.
         -2   -1    0    0    0  501 -0.00000000000E+00 -0.00000000000E+00 -0.10969549050E+03  0.10969549050E+03  0.00000000000E+00 0.  1.
         25    2    1    2    0    0  0.16574411155E+03  0.67566190161E+02  0.88780208200E+02  0.23572398265E+03  0.12509024766E+03 0.  0.
          5    1    3    3  502    0  0.58250144311E+02  0.80901486229E+02  0.78275822975E+02  0.12681761174E+03  0.41800000000E+01 0.  1.
         -5    1    3    3    0  502  0.10749396724E+03 -0.13335296067E+02  0.10504385225E+02  0.10890637090E+03  0.41800000000E+01 0.  1.
        -11    1    1    2    0    0 -0.48565087615E+02 -0.44324026547E+02  0.31064574431E+02  0.72719975584E+02  0.00000000000E+00 0.  1.
         11    1    1    2    0    0 -0.11717902393E+03 -0.23242163614E+02  0.21633980804E+03  0.24713161344E+03  0.00000000000E+00 0. -1.
</event>
<event>
 7    1  0.2648915E-009  0.1060507E+03  0.7561462E-02  0.1268063E+00
         -1   -1    0    0    0  501 -0.00000000000E+00  0.00000000000E+00  0.17937880276E+02  0.17937880276E+02  0.00000000000E+00 0.  1.
          1   -1    0    0  501    0  0.00000000000E+00 -0.00000000000E+00 -0.18651036031E+04  0.18651036031E+04  0.00000000000E+00 0. -1.
         25    2    1    2    0    0  0.85082813835E+02 -0.11657980538E+02 -0.15863481953E+04  0.15935880863E+04  0.12508956217E+03 0.  0.
          5    1    3    3  502    0  0.32066240145E+02 -0.64443294149E+00 -0.13747812205E+04  0.13751616398E+04  0.41800000000E+01 0. -1.
         -5    1    3    3    0  502  0.53016573690E+02 -0.11013547596E+02 -0.21156697480E+03  0.21842644652E+03  0.41800000000E+01 0. -1.
        -11    1    1    2    0    0  0.18138827122E+02  0.12833064899E+02 -0.42333213449E+02  0.47810098985E+02  0.00000000000E+00 0. -1.
         11    1    1    2    0    0 -0.10322164096E+03 -0.11750843615E+01 -0.21848431414E+03  0.24164329808E+03  0.00000000000E+00 0.  1.
</event>
<event>
 7    1  0.2648915E-009  0.9040098E+02  0.7561462E-02  0.1301884E+00
         -3   -1    0    0    0  501 -0.00000000000E+00  0.00000000000E+00  0.40058534822E+03  0.40058534822E+03  0.00000000000E+00 0.  1.
          3   -1    0    0  501    0  0.00000000000E+00 -0.00000000000E+00 -0.44778524891E+02  0.44778524891E+02  0.00000000000E+00 0. -1.
         25    2    1    2    0    0 -0.32574605588E+02 -0.21061562922E+02  0.83827131188E+02  0.15549567052E+03  0.12508885348E+03 0.  0.
          5    1    3    3  502    0 -0.44853275538E+02 -0.44896404092E+02 -0.38488760152E+01  0.63716478822E+02  0.41800000000E+01 0. -1.
         -5    1    3    3    0  502  0.12278669950E+02  0.23834841169E+02  0.87676007203E+02  0.91779191696E+02  0.41800000000E+01 0. -1.
        -11    1    1    2    0    0 -0.19897049848E+02  0.30830037356E+02  0.17842985395E+03  0.18216365328E+03  0.00000000000E+00 0.  1.
         11    1    1    2    0    0  0.52471655436E+02 -0.97684744335E+01  0.93549838191E+02  0.10770454931E+03  0.00000000000E+00 0. -1.
</event>
<event>
 7    1  0.2648915E-009  0.7085478E+02  0.7561462E-02  0.1357210E+00
          1   -1    0    0  501    0  0.00000000000E+00  0.00000000000E+00  0.33047562872E+03  0.33047562872E+03  0.00000000000E+00 0.  1.
         -1   -1    0    0    0  501 -0.00000000000E+00 -0.00000000000E+00 -0.40868193951E+02  0.40868193951E+02  0.00000000000E+00 0. -1.
         25    2    1    2    0    0  0.35389799379E+01 -0.12123063029E+02  0.10018520186E+03  0.16075998572E+03  0.12508878967E+03 0.  0.
          5    1    3    3  502    0 -0.19959034330E+02  0.41775340225E+01 -0.24856687128E+02  0.32421322257E+02  0.41800000000E+01 0. -1.
         -5    1    3    3    0  502  0.23498014268E+02 -0.16300597052E+02  0.12504188898E+03  0.12833866346E+03  0.41800000000E+01 0. -1.
        -11    1    1    2    0    0  0.37163060953E+02 -0.18060577226E+02  0.86804276545E+02  0.96136673417E+02  0.00000000000E+00 0.  1.
         11    1    1    2    0    0 -0.40702040891E+02  0.30183640255E+02  0.10261795636E+03  0.11444716353E+03  0.00000000000E+00 0. -1.
</event>
<event>
 7    1  0.2648915E-009  0.7489998E+02  0.7561462E-02  0.1344181E+00
         -3   -1    0    0    0  501 -0.00000000000E+00  0.00000000000E+00  0.13570760571E+03  0.13570760571E+03  0.00000000000E+00 0.  1.
          3   -1    0    0  501    0  0.00000000000E+00 -0.00000000000E+00 -0.11728830983E+03  0.11728830983E+03  0.00000000000E+00 0. -1.
         25    2    1    2    0    0  0.16445189035E+02  0.18608181570E+02 -0.50228935601E+02  0.13706328579E+03  0.12508672862E+03 0.  0.
          5    1    3    3  502    0 -0.27818032081E+02  0.36929472527E+02  0.21136732901E+02  0.51008457414E+02  0.41800000000E+01 0. -1.
         -5    1    3    3    0  502  0.44263221115E+02 -0.18321290957E+02 -0.71365668502E+02  0.86054828375E+02  0.41800000000E+01 0. -1.
        -11    1    1    2    0    0 -0.92109094697E+01 -0.35626335759E+02  0.84123521867E+02  0.91819625268E+02  0.00000000000E+00 0.  1.
         11    1    1    2    0    0 -0.72342795649E+01  0.17018154189E+02 -0.15475290385E+02  0.24113004486E+02  0.00000000000E+00 0. -1.
</event>
<event>
 7    1  0.2648915E-009  0.1735255E+03  0.7561462E-02  0.1174220E+00
          2   -1    0    0  501    0  0.00000000000E+00  0.00000000000E+00  0.13310182677E+03  0.13310182677E+03  0.00000000000E+00 0. -1.
         -2   -1    0    0    0  501 -0.00000000000E+00 -0.00000000000E+00 -0.25215722143E+03  0.25215722143E+03  0.00000000000E+00 0.  1.
         25    2    1    2    0    0  0.63718249076E+02 -0.12692303949E+03 -0.20877548950E+02  0.19040002608E+03  0.12508726820E+03 0.  0.
          5    1    3    3  502    0  0.83297725544E+02 -0.13435265334E+03  0.32646003333E+01  0.15816850684E+03  0.41800000000E+01 0.  1.
         -5    1    3    3    0  502 -0.19579476468E+02  0.74296138540E+01 -0.24142149284E+02  0.32231519245E+02  0.41800000000E+01 0.  1.
        -11    1    1    2    0    0  0.22573574909E+02  0.33372621100E+02 -0.15932522235E+02  0.43326012833E+02  0.00000000000E+00 0.  1.
         11    1    1    2    0    0 -0.86291823985E+02  0.93550418386E+02 -0.82245323478E+02  0.15153300928E+03  0.00000000000E+00 0. -1.
</event>
<event>
 7    1  0.2648915E-009  0.1455586E+03  0.7561462E-02  0.1206039E+00
          2   -1    0    0  501    0  0.00000000000E+00  0.00000000000E+00  0.77865366175E+03  0.77865366175E+03  0.00000000000E+00 0. -1.
         -2   -1    0    0    0  501 -0.00000000000E+00 -0.00000000000E+00 -0.43883279173E+02  0.43883279173E+02  0.00000000000E+00 0.  1.
         25    2    1    2    0    0  0.11605531744E+03  0.59938329507E+02  0.23164564297E+03  0.29388469458E+03  0.12508824785E+03 0.  0.
          5    1    3    3  502    0  0.95509228966E+02  0.49888277831E+02  0.24456642907E+03  0.26728461181E+03  0.41800000000E+01 0. -1.
         -5    1    3    3    0  502  0.20546088472E+02  0.10050051676E+02 -0.12920786095E+02  0.26600082772E+02  0.41800000000E+01 0. -1.
        -11    1    1    2    0    0 -0.12913515988E+03 -0.38209436279E+02  0.38613797961E+03  0.40894790601E+03  0.00000000000E+00 0.  1.
         11    1    1    2    0    0  0.13079842439E+02 -0.21728893228E+02  0.11698676000E+03  0.11970434033E+03  0.00000000000E+00 0. -1.
</event>
<event>
 7    1  0.2648915E-009  0.1837982E+03  0.7561462E-02  0.1164177E+00
         -2   -1    0    0    0  501 -0.00000000000E+00  0.00000000000E+00  0.15567846144E+03  0.15567846144E+03  0.00000000000E+00 0.  1.
          2   -1    0    0  501    0  0.00000000000E+00 -0.00000000000E+00 -0.24522231044E+03  0.24522231044E+03  0.00000000000E+00 0. -1.
         25    2    1    2    0    0  0.15270448230E+03 -0.45163595074E+02 -0.79777803563E+02  0.21764387014E+03  0.12508376006E+03 0.  0.
          5    1    3    3  502    0  0.27494642018E+02 -0.64143537002E+02 -0.40508042839E+01  0.70030208441E+02  0.41800000000E+01 0.  1.
         -5    1    3    3    0  502  0.12520984029E+03  0.18979941928E+02 -0.75726999279E+02  0.14761366170E+03  0.41800000000E+01 0.  1.
        -11    1    1    2    0    0 -0.65077665347E+02  0.51685273937E+02  0.27888147000E+02  0.87659676089E+02  0.00000000000E+00 0.  1.
         11    1    1    2    0    0 -0.87626816957E+02 -0.65216788623E+01 -0.37654192430E+02  0.95597225655E+02  0.00000000000E+00 0. -1.
</event>
<event>
 7    1  0.2648915E-009  0.1391949E+03  0.7561462E-02  0.1214416E+00
          1   -1    0    0  501    0  0.00000000000E+00  0.00000000000E+00  0.46038637434E+03  0.46038637434E+03  0.00000000000E+00 0. -1.
         -1   -1    0    0    0  501 -0.00000000000E+00 -0.00000000000E+00 -0.56559517412E+02  0.56559517412E+02  0.00000000000E+00 0.  1.
         25    2    1    2    0    0 -0.52634941412E+02 -0.10506036258E+03  0.25648661800E+03  0.30861164425E+03  0.12509054685E+03 0.  0.
          5    1    3    3  502    0 -0.28131310890E+02  0.18475826665E+02  0.16865331510E+02  0.37876623797E+02  0.41800000000E+01 0.  1.
         -5    1    3    3    0  502 -0.24503630522E+02 -0.12353618925E+03  0.23962128649E+03  0.27073502045E+03  0.41800000000E+01 0.  1.
        -11    1    1    2    0    0  0.14912986600E+02  0.16711499633E+02 -0.95664900148E+01  0.24355474138E+02  0.00000000000E+00 0.  1.
         11    1    1    2    0    0  0.37721954812E+02  0.88348862951E+02  0.15690672894E+03  0.18397877336E+03  0.00000000000E+00 0. -1.
</event>
<event>
 7    1  0.2648915E-009  0.9510002E+02  0.7561462E-02  0.1290951E+00
         -1   -1    0    0    0  501 -0.00000000000E+00  0.00000000000E+00  0.30381120119E+02  0.30381120119E+02  0.00000000000E+00 0.  1.
          1   -1    0    0  501    0  0.00000000000E+00 -0.00000000000E+00 -0.47588239559E+03  0.47588239559E+03  0.00000000000E+00 0. -1.
         25    2    1    2    0    0 -0.12103417667E+02 -0.41145900687E+02 -0.30968694083E+03  0.33673953130E+03  0.12509209709E+03 0.  0.
          5    1    3    3  502    0 -0.58248191478E+02 -0.32557070148E+01 -0.22854528892E+03  0.23591073084E+03  0.41800000000E+01 0.  1.
         -5    1    3    3    0  502  0.46144773811E+02 -0.37890193672E+02 -0.81141651910E+02  0.10082880046E+03  0.41800000000E+01 0.  1.
        -11    1    1    2    0    0  0.73795220763E+01 -0.14363090380E+02  0.59476573985E+01  0.17208438043E+02  0.00000000000E+00 0.  1.
         11    1    1    2    0    0  0.47238955904E+01  0.55508991067E+02 -0.14176199204E+03  0.15231554637E+03  0.00000000000E+00 0. -1.
</event>
<event>
 7    1  0.2648915E-009  0.1066467E+03  0.7561462E-02  0.1266909E+00
         -2   -1    0    0    0  501 -0.00000000000E+00  0.00000000000E+00  0.20546892991E+02  0.20546892991E+02  0.00000000000E+00 0.  1.
          2   -1    0    0  501    0  0.00000000000E+00 -0.00000000000E+00 -0.91842931535E+03  0.91842931535E+03  0.00000000000E+00 0. -1.
         25    2    1    2    0    0 -0.55459952770E+02  0.47134110147E+02 -0.63837179493E+03  0.65457146570E+03  0.12509126445E+03 0.  0.
          5    1    3    3  502    0 -0.66817478917E+02  0.61381092536E+02 -0.62505523582E+03  0.63161992863E+03  0.41800000000E+01 0.  1.
         -5    1    3    3    0  502  0.11357526147E+02 -0.14246982389E+02 -0.13316559104E+02  0.22951537067E+02  0.41800000000E+01 0.  1.
        -11    1    1    2    0    0  0.73921306210E+02 -0.39281604419E+02 -0.24690884671E+03  0.26071321897E+03  0.00000000000E+00 0. -1.
         11    1    1    2    0    0 -0.18461353440E+02 -0.78525057275E+01 -0.12601780718E+02  0.23691523681E+02  0.00000000000E+00 0.  1.
</event>
<event>
 7    1  0.2648915E-009  0.1257704E+03  0.7561462E-02  0.1233870E+00
         -2   -1    0    0    0  501 -0.00000000000E+00  0.00000000000E+00  0.15952090949E+02  0.15952090949E+02  0.00000000000E+00 0.  1.
          2   -1    0    0  501    0  0.00000000000E+00 -0.00000000000E+00 -0.11532635254E+04  0.11532635254E+04  0.00000000000E+00 0. -1.
         25    2    1    2    0    0  0.78039895446E+02 -0.19208022408E+02 -0.75114488700E+03  0.76571837360E+03  0.12508722152E+03 0.  0.
          5    1    3    3  502    0  0.10328336768E+03 -0.38302535938E+02 -0.66001899963E+03  0.66916148318E+03  0.41800000000E+01 0.  1.
         -5    1    3    3    0  502 -0.25243472237E+02  0.19094513530E+02 -0.91125887376E+02  0.96556890420E+02  0.41800000000E+01 0.  1.
        -11    1    1    2    0    0 -0.14693848669E+02 -0.27156733128E+02 -0.54227931964E+02  0.62402451458E+02  0.00000000000E+00 0. -1.
         11    1    1    2    0    0 -0.63346046776E+02  0.46364755536E+02 -0.33193861545E+03  0.34109479127E+03  0.00000000000E+00 0.  1.
</event>
<event>
 7    1  0.2648915E-009  0.1235614E+03  0.7561462E-02  0.1237335E+00
          2   -1    0    0  501    0  0.00000000000E+00  0.00000000000E+00  0.26542213453E+03  0.26542213453E+03  0.00000000000E+00 0.  1.
         -2   -1    0    0    0  501 -0.00000000000E+00 -0.00000000000E+00 -0.94249581699E+02  0.94249581699E+02  0.00000000000E+00 0. -1.
         25    2    1    2    0    0 -0.36745595815E+02 -0.84455909328E+02  0.17041836297E+03  0.23059319927E+03  0.12509102957E+03 0.  0.
          5    1    3    3  502    0 -0.54671608658E+02 -0.11024179826E+03  0.14292108476E+03  0.18864291067E+03  0.41800000000E+01 0. -1.
         -5    1    3    3    0  502  0.17926012844E+02  0.25785888933E+02  0.27497278209E+02  0.41950288598E+02  0.41800000000E+01 0. -1.
        -11    1    1    2    0    0  0.25975924013E+02  0.52124980571E+02  0.44737567708E+02  0.73438492579E+02  0.00000000000E+00 0.  1.
         11    1    1    2    0    0  0.10769671801E+02  0.32330928757E+02 -0.43983377853E+02  0.55640024375E+02  0.00000000000E+00 0. -1.
</event>
<event>
 7    1  0.2648915E-009  0.1361480E+03  0.7561462E-02  0.1218608E+00
          2   -1    0    0  501    0  0.00000000000E+00  0.00000000000E+00  0.30441763886E+03  0.30441763886E+03  0.00000000000E+00 0. -1.
         -2   -1    0    0    0  501 -0.00000000000E+00 -0.00000000000E+00 -0.10200666948E+03  0.10200666948E+03  0.00000000000E+00 0.  1.
         25    2    1    2    0    0  0.88441649152E+02  0.34157267686E+02 -0.88478371426E+01  0.15720794217E+03  0.12508960237E+03 0.  0.
          5    1    3    3  502    0  0.16894205962E+02  0.71548377620E+02  0.96991238138E+01  0.74270653275E+02  0.41800000000E+01 0. -1.
         -5    1    3    3    0  502  0.71547443191E+02 -0.37391109934E+02 -0.18546960956E+02  0.82937288899E+02  0.41800000000E+01 0. -1.
        -11    1    1    2    0    0 -0.85598734101E+02 -0.20824925519E+01  0.91970873348E+02  0.12565875059E+03  0.00000000000E+00 0.  1.
         11    1    1    2    0    0 -0.28429150511E+01 -0.32074775134E+02  0.11928793317E+03  0.12355761558E+03  0.00000000000E+00 0. -1.
</event>
<event>
 7    1  0.2648915E-009  0.1285622E+03  0.7561462E-02  0.1229605E+00
         -3   -1    0    0    0  501 -0.00000000000E+00  0.00000000000E+00  0.77808540753E+03  0.77808540753E+03  0.00000000000E+00 0.  1.
          3   -1    0    0  501    0  0.00000000000E+00 -0.00000000000E+00 -0.28854402675E+02  0.28854402675E+02  0.00000000000E+00 0. -1.
         25    2    1    2    0    0 -0.72024702205E+02 -0.25096474304E+02  0.21917424370E+03  0.26363237890E+03  0.12508913362E+03 0.  0.
          5    1    3    3  502    0 -0.10141433087E+02 -0.64459252655E+02  0.14586891064E+03  0.15985323084E+03  0.41800000000E+01 0.  1.
         -5    1    3    3    0  502 -0.61883269118E+02  0.39362778351E+02  0.73305333057E+02  0.10377914805E+03  0.41800000000E+01 0.  1.
        -11    1    1    2    0    0  0.15316828607E+02  0.52934349193E+02  0.21255244325E+03  0.21957957941E+03  0.00000000000E+00 0.  1.
         11    1    1    2    0    0  0.56707873598E+02 -0.27837874889E+02  0.31750431790E+03  0.32372785189E+03  0.00000000000E+00 0. -1.
</event>
<event>
 7    1  0.2648915E-009  0.8651015E+02  0.7561462E-02  0.1311530E+00
         -2   -1    0    0    0  501 -0.00000000000E+00  0.00000000000E+00  0.40092453158E+02  0.40092453158E+02  0.00000000000E+00 0.  1.
          2   -1    0    0  501    0  0.00000000000E+00 -0.00000000000E+00 -0.41995707229E+03  0.41995707229E+03  0.00000000000E+00 0. -1.
         25    2    1    2    0    0  0.31558413010E+02 -0.60558857136E+02 -0.17382059857E+03  0.22478067969E+03  0.12509774124E+03 0.  0.
          5    1    3    3  502    0  0.21585638408E+02 -0.78545075995E+02 -0.42841786874E+02  0.92131209973E+02  0.41800000000E+01 0.  1.
         -5    1    3    3    0  502  0.99727746023E+01  0.17986218859E+02 -0.13097881170E+03  0.13264946971E+03  0.41800000000E+01 0.  1.
        -11    1    1    2    0    0 -0.12410875766E+02  0.86122406047E+01  0.58967450110E+01  0.16216415363E+02  0.00000000000E+00 0.  1.
         11    1    1    2    0    0 -0.19147537245E+02  0.51946616532E+02 -0.21194076557E+03  0.21905243039E+03  0.00000000000E+00 0. -1.
</event>
<event>
 7    1  0.2648915E-009  0.1254776E+03  0.7561462E-02  0.1234325E+00
          2   -1    0    0  501    0  0.00000000000E+00  0.00000000000E+00  0.30072094497E+03  0.30072094497E+03  0.00000000000E+00 0. -1.
         -2   -1    0    0    0  501 -0.00000000000E+00 -0.00000000000E+00 -0.83555578746E+02  0.83555578746E+02  0.00000000000E+00 0.  1.
         25    2    1    2    0    0 -0.47327703595E+02  0.82517630340E+02  0.19596867749E+03  0.25119925593E+03  0.12509305648E+03 0.  0.
          5    1    3    3  502    0  0.81849571224E+01 -0.18581237141E+02 -0.32314383930E+01  0.20980240487E+02  0.41800000000E+01 0. -1.
         -5    1    3    3    0  502 -0.55512660718E+02  0.10109886748E+03  0.19920011588E+03  0.23021901545E+03  0.41800000000E+01 0. -1.
        -11    1    1    2    0    0  0.42395213114E+02 -0.11914930092E+02 -0.22953607293E+02  0.49660726352E+02  0.00000000000E+00 0.  1.
         11    1    1    2    0    0  0.49324904813E+01 -0.70602700248E+02  0.44150296028E+02  0.83416541429E+02  0.00000000000E+00 0. -1.
</event>
<event>
 7    1  0.2648915E-009  0.1181617E+03  0.7561462E-02  0.1246161E+00
          2   -1    0    0  501    0  0.00000000000E+00  0.00000000000E+00  0.64849618345E+03  0.64849618345E+03  0.00000000000E+00 0. -1.
         -2   -1    0    0    0  501 -0.00000000000E+00 -0.00000000000E+00 -0.24955038863E+02  0.24955038863E+02  0.00000000000E+00 0.  1.
         25    2    1    2    0    0 -0.58296838931E+02  0.22485174665E+02  0.26573977230E+03  0.30028307720E+03  0.12509274705E+03 0.  0.
          5    1    3    3  502    0 -0.67676645288E+02  0.60557724348E+02  0.12792909158E+03  0.15694168079E+03  0.41800000000E+01 0.  1.
         -5    1    3    3    0  502  0.93798063576E+01 -0.38072549683E+02  0.13781068072E+03  0.14334139642E+03  0.41800000000E+01 0.  1.
        -11    1    1    2    0    0  0.35436738010E+02  0.31462148221E+02  0.15816127979E+03  0.16510790289E+03  0.00000000000E+00 0. -1.
         11    1    1    2    0    0  0.22860100921E+02 -0.53947322885E+02  0.19964009250E+03  0.20806024223E+03  0.00000000000E+00 0.  1.
</event>
<event>
 7    1  0.2648915E-009  0.1476214E+03  0.7561462E-02  0.1203427E+00
          2   -1    0    0  501    0  0.00000000000E+00  0.00000000000E+00  0.10648116937E+03  0.10648116937E+03  0.00000000000E+00 0. -1.
         -2   -1    0    0    0  501 -0.00000000000E+00 -0.00000000000E+00 -0.21542495386E+03  0.21542495386E+03  0.00000000000E+00 0.  1.
         25    2    1    2    0    0  0.94431017169E+02 -0.46430507212E+02 -0.56613559643E+02  0.17297627523E+03  0.12507073061E+03 0.  0.
          5    1    3    3  502    0  0.12020417820E+03 -0.25750352003E+02 -0.22026649847E+02  0.12495907646E+03  0.41800000000E+01 0. -1.
         -5    1    3    3    0  502 -0.25773161033E+02 -0.20680155209E+02 -0.34586909796E+02  0.48017198776E+02  0.41800000000E+01 0. -1.
        -11    1    1    2    0    0 -0.89281356915E+02 -0.29055004293E+01 -0.27549451314E+02  0.93480344956E+02  0.00000000000E+00 0. -1.
         11    1    1    2    0    0 -0.51496602537E+01  0.49336007641E+02 -0.24780773537E+02  0.55449503044E+02  0.00000000000E+00 0.  1.
</event>
<event>
 7    1  0.2648915E-009  0.1473147E+03  0.7561462E-02  0.1203812E+00
         -2   -1    0    0    0  501 -0.00000000000E+00  0.00000000000E+00  0.63230278301E+02  0.63230278301E+02  0.00000000000E+00 0.  1.
          2   -1    0    0  501    0  0.00000000000E+00 -0.00000000000E+00 -0.41398785269E+03  0.41398785269E+03  0.00000000000E+00 0. -1.
         25    2    1    2    0    0  0.11209759815E+03  0.43922202134E+02 -0.20720287474E+03  0.27032457333E+03  0.12508921735E+03 0.  0.
          5    1    3    3  502    0  0.67477836026E+02  0.67348938909E+02 -0.55452467403E+02  0.11037022455E+03  0.41800000000E+01 0. -1.
         -5    1    3    3    0  502  0.44619762123E+02 -0.23426736775E+02 -0.15175040733E+03  0.15995434878E+03  0.41800000000E+01 0. -1.
        -11    1    1    2    0    0 -0.12689154656E+03 -0.36255241737E+02 -0.12267965272E+03  0.18018380708E+03  0.00000000000E+00 0.  1.
         11    1    1    2    0    0  0.14793948415E+02 -0.76669603968E+01 -0.20875046933E+02  0.26709750577E+02  0.00000000000E+00 0. -1.
</event>
<event>
 7    1  0.2648915E-009  0.1984356E+03  0.7561462E-02  0.1151066E+00
         -2   -1    0    0    0  501 -0.00000000000E+00  0.00000000000E+00  0.45215979079E+02  0.45215979079E+02  0.00000000000E+00 0.  1.
          2   -1    0    0  501    0  0.00000000000E+00 -0.00000000000E+00 -0.97722164057E+03  0.97722164057E+03  0.00000000000E+00 0. -1.
         25    2    1    2    0    0 -0.14505770307E+03 -0.10323179660E+03 -0.54396197644E+03  0.58586755920E+03  0.12509046348E+03 0.  0.
          5    1    3    3  502    0  0.14180983341E+01 -0.41453981489E+02 -0.41428852600E+02  0.58773002407E+02  0.41800000000E+01 0. -1.
         -5    1    3    3    0  502 -0.14647580141E+03 -0.61777815111E+02 -0.50253312384E+03  0.52709455679E+03  0.41800000000E+01 0. -1.
        -11    1    1    2    0    0  0.66785419853E+02  0.22486507106E+00 -0.17514051316E+03  0.18744210365E+03  0.00000000000E+00 0. -1.
         11    1    1    2    0    0  0.78272283218E+02  0.10300693153E+03 -0.21290317189E+03  0.24912795681E+03  0.00000000000E+00 0.  1.
</event>
<event>
 7    1  0.2648915E-009  0.1557763E+03  0.7561462E-02  0.1193549E+00
          2   -1    0    0  501    0  0.00000000000E+00  0.00000000000E+00  0.48246837851E+03  0.48246837851E+03  0.00000000000E+00 0. -1.
         -2   -1    0    0    0  501 -0.00000000000E+00 -0.00000000000E+00 -0.76853256585E+02  0.76853256585E+02  0.00000000000E+00 0.  1.
         25    2    1    2    0    0  0.15316393537E+03  0.25388701240E+02  0.13780761049E+03  0.24236747417E+03  0.12508907937E+03 0.  0.
          5    1    3    3  502    0  0.20747774420E+02  0.29514141624E+01  0.10073739310E+03  0.10297900639E+03  0.41800000000E+01 0.  1.
         -5    1    3    3    0  502  0.13241616095E+03  0.22437287078E+02  0.37070217394E+02  0.13938846778E+03  0.41800000000E+01 0.  1.
        -11    1    1    2    0    0 -0.43924373367E+02 -0.13378880833E+02  0.29634883696E+02  0.54649532108E+02  0.00000000000E+00 0.  1.
         11    1    1    2    0    0 -0.10923956201E+03 -0.12009820408E+02  0.23817262774E+03  0.26230462881E+03  0.00000000000E+00 0. -1.
</event>
<event>
 7    1  0.3550145E-009  0.1066579E+03  0.7561462E-02  0.1266887E+00
         -1   -1    0    0    0  501 -0.00000000000E+00  0.00000000000E+00  0.50186327218E+02  0.50186327218E+02  0.00000000000E+00 0.  1.
          1   -1    0    0  501    0  0.00000000000E+00 -0.00000000000E+00 -0.42481331992E+03  0.42481331992E+03  0.00000000000E+00 0. -1.
         25    2    1    2    0    0 -0.27339615982E+02  0.60218121478E+02 -0.31987093046E+03  0.34976989847E+03  0.12509153833E+03 0.  0.
          5    1    3    3  502    0  0.29242494987E+02  0.62470276850E+02 -0.25188222765E+03  0.26118918050E+03  0.41800000000E+01 0. -1.
         -5    1    3    3    0  502 -0.56582110969E+02 -0.22521553714E+01 -0.67988702812E+02  0.88580717967E+02  0.41800000000E+01 0. -1.
        -11    1    1    2    0    0 -0.18024781288E+02 -0.17036373072E+02  0.16936589210E+02  0.30032961926E+02  0.00000000000E+00 0.  1.
         11    1    1    2    0    0  0.45364397270E+02 -0.43181748406E+02 -0.71692651454E+02  0.95196786750E+02  0.00000000000E+00 0. -1.
</event>
<event>
 7    1  0.2648915E-009  0.9013463E+02  0.7561462E-02  0.1302526E+00
          1   -1    0    0  501    0  0.00000000000E+00  0.00000000000E+00  0.54548764998E+03  0.54548764998E+03  0.00000000000E+00 0. -1.
         -1   -1    0    0    0  501 -0.00000000000E+00 -0.00000000000E+00 -0.29773091153E+02  0.29773091153E+02  0.00000000000E+00 0.  1.
         25    2    1    2    0    0 -0.79350041912E+01  0.34681926414E+02  0.15628652412E+03  0.20331993302E+03  0.12509083592E+03 0.  0.
          5    1    3    3  502    0  0.28658091902E+02  0.41059421897E+02  0.15810455995E+03  0.16589661429E+03  0.41800000000E+01 0. -1.
         -5    1    3    3    0  502 -0.36593096093E+02 -0.63774954831E+01 -0.18180358258E+01  0.37423318727E+02  0.41800000000E+01 0. -1.
        -11    1    1    2    0    0 -0.17750818780E+02 -0.56325036008E+02  0.27072525272E+03  0.27709161609E+03  0.00000000000E+00 0. -1.
         11    1    1    2    0    0  0.25685822971E+02  0.21643109594E+02  0.88702781983E+02  0.94849192016E+02  0.00000000000E+00 0.  1.
</event>
<event>
 7    1  0.2648915E-009  0.1108573E+03  0.7561462E-02  0.1258991E+00
          2   -1    0    0  501    0  0.00000000000E+00  0.00000000000E+00  0.10835274922E+03  0.10835274922E+03  0.00000000000E+00 0. -1.
         -2   -1    0    0    0  501 -0.00000000000E+00 -0.00000000000E+00 -0.14261489151E+03  0.14261489151E+03  0.00000000000E+00 0.  1.
         25    2    1    2    0    0  0.22851329016E+02 -0.84309993946E+02 -0.37623471469E+02  0.15714241480E+03  0.12509138502E+03 0.  0.
          5    1    3    3  502    0 -0.39253215343E+02 -0.24807107882E+02 -0.51999489021E+02  0.69840008410E+02  0.41800000000E+01 0. -1.
         -5    1    3    3    0  502  0.62104544359E+02 -0.59502886064E+02  0.14376017552E+02  0.87302406385E+02  0.41800000000E+01 0. -1.
        -11    1    1    2    0    0 -0.11106767168E+02  0.67894409711E+02  0.15157259912E+02  0.70446814512E+02  0.00000000000E+00 0.  1.
         11    1    1    2    0    0 -0.11744561848E+02  0.16415584235E+02 -0.11795930732E+02  0.23378411422E+02  0.00000000000E+00 0. -1.
</event>
<event>
 7    1  0.2648915E-009  0.6714276E+02  0.7561462E-02  0.1370088E+00
          1   -1    0    0  501    0  0.00000000000E+00  0.00000000000E+00  0.10130241669E+03  0.10130241669E+03  0.00000000000E+00 0. -1.
         -1   -1    0    0    0  501 -0.00000000000E+00 -0.00000000000E+00 -0.12852954227E+03  0.12852954227E+03  0.00000000000E+00 0.  1.
         25    2    1    2    0    0  0.15150260103E+02 -0.10891191462E+02 -0.48193136310E+02  0.13534565159E+03  0.12509084132E+03 0.  0.
          5    1    3    3  502    0 -0.38574828954E+02  0.15694891840E+02 -0.60930848524E+02  0.73921497282E+02  0.41800000000E+01 0. -1.
         -5    1    3    3    0  502  0.53725089057E+02 -0.26586083302E+02  0.12737712214E+02  0.61424154304E+02  0.41800000000E+01 0. -1.
        -11    1    1    2    0    0  0.33447922192E+01  0.13278584188E+02 -0.33887459743E+02  0.36549532977E+02  0.00000000000E+00 0.  1.
         11    1    1    2    0    0 -0.18495052323E+02 -0.23873927257E+01  0.54853470469E+02  0.57936774392E+02  0.00000000000E+00 0. -1.
</event>
<event>
 7    1  0.2648915E-009  0.1266902E+03  0.7561462E-02  0.1232451E+00
         -2   -1    0    0    0  501 -0.00000000000E+00  0.00000000000E+00  0.15185710184E+02  0.15185710184E+02  0.00000000000E+00 0.  1.
          2   -1    0    0  501    0  0.00000000000E+00 -0.00000000000E+00 -0.12760620632E+04  0.12760620632E+04  0.00000000000E+00 0. -1.
         25    2    1    2    0    0  0.80560143480E+02  0.34478195107E+02 -0.75095018841E+03  0.76632447231E+03  0.12509328012E+03 0.  0.
          5    1    3    3  502    0 -0.20487641470E+02 -0.99463880956E+01 -0.33999829934E+03  0.34078584190E+03  0.41800000000E+01 0. -1.
         -5    1    3    3    0  502  0.10104778495E+03  0.44424583202E+02 -0.41095188908E+03  0.42553863041E+03  0.41800000000E+01 0. -1.
        -11    1    1    2    0    0 -0.38859389044E+02 -0.59549700853E+02 -0.22806009002E+03  0.23888830789E+03  0.00000000000E+00 0.  1.
         11    1    1    2    0    0 -0.41700754436E+02  0.25071505747E+02 -0.28186607458E+03  0.28603499318E+03  0.00000000000E+00 0. -1.
</event>
<event>
 7    1  0.3174280E-009  0.1494049E+03  0.7561462E-02  0.1201206E+00
         -2   -1    0    0    0  501 -0.00000000000E+00  0.00000000000E+00  0.13974583897E+02  0.13974583897E+02  0.00000000000E+00 0. -1.
          2   -1    0    0  501    0  0.00000000000E+00 -0.00000000000E+00 -0.32017551805E+04  0.32017551805E+04  0.00000000000E+00 0.  1.
         25    2    1    2    0    0  0.98033387317E+02  0.43285706480E+02 -0.27672249429E+04  0.27721228041E+04  0.12508700432E+03 0.  0.
          5    1    3    3  502    0  0.62185918087E+02  0.84791184348E+02 -0.14883388323E+04  0.14920544848E+04  0.41800000000E+01 0.  1.
         -5    1    3    3    0  502  0.35847469231E+02 -0.41505477867E+02 -0.12788861106E+04  0.12800683193E+04  0.41800000000E+01 0.  1.
        -11    1    1    2    0    0 -0.41079871749E+02 -0.65603646338E+02 -0.19221638054E+03  0.20721614615E+03  0.00000000000E+00 0. -1.
         11    1    1    2    0    0 -0.56953515568E+02  0.22317939857E+02 -0.22833927313E+03  0.23639081418E+03  0.00000000000E+00 0.  1.
</event>
<event>
 7    1  0.2648915E-009  0.1565096E+03  0.7561462E-02  0.1192695E+00
          2   -1    0    0  501    0  0.00000000000E+00  0.00000000000E+00  0.25595718523E+03  0.25595718523E+03  0.00000000000E+00 0. -1.
         -2   -1    0    0    0  501 -0.00000000000E+00 -0.00000000000E+00 -0.13378252842E+03  0.13378252842E+03  0.00000000000E+00 0.  1.
         25    2    1    2    0    0  0.12782014500E+03  0.55347769786E+02  0.17415067022E+02  0.18802020218E+03  0.12508775632E+03 0.  0.
          5    1    3    3  502    0  0.64175462141E+02  0.38824463585E+01  0.66416678894E+02  0.92532215828E+02  0.41800000000E+01 0. -1.
         -5    1    3    3    0  502  0.63644682862E+02  0.51465323427E+02 -0.49001611872E+02  0.95487986355E+02  0.41800000000E+01 0. -1.
        -11    1    1    2    0    0 -0.10524305350E+03  0.17262925142E+01  0.40288115105E+02  0.11270409316E+03  0.00000000000E+00 0.  1.
         11    1    1    2    0    0 -0.22577091501E+02 -0.57074062300E+02  0.64471474685E+02  0.89015418305E+02  0.00000000000E+00 0. -1.
</event>
<event>
 7    1  0.2648915E-009  0.1788200E+03  0.7561462E-02  0.1168950E+00
         -3   -1    0    0    0  501 -0.00000000000E+00  0.00000000000E+00  0.19452023946E+03  0.19452023946E+03  0.00000000000E+00 0.  1.
          3   -1    0    0  501    0  0.00000000000E+00 -0.00000000000E+00 -0.27132320531E+03  0.27132320531E+03  0.00000000000E+00 0. -1.
         25    2    1    2    0    0  0.16759452118E+03  0.41818995347E+02  0.66830039405E+02  0.22349616568E+03  0.12509008756E+03 0.  0.
          5    1    3    3  502    0  0.95813406052E+02  0.47290286227E+02 -0.21909638120E+02  0.10915165868E+03  0.41800000000E+01 0.  1.
         -5    1    3    3    0  502  0.71781115123E+02 -0.54712908802E+01  0.88739677525E+02  0.11434450699E+03  0.41800000000E+01 0.  1.
        -11    1    1    2    0    0 -0.82509608638E+02  0.27352917747E+01 -0.18496421707E+02  0.84601625012E+02  0.00000000000E+00 0.  1.
         11    1    1    2    0    0 -0.85084912537E+02 -0.44554287122E+02 -0.12513658355E+03  0.15774565409E+03  0.00000000000E+00 0. -1.
</event>
<event>
 7    1  0.2648915E-009  0.8869269E+02  0.7561462E-02  0.1306049E+00
         -2   -1    0    0    0  501 -0.00000000000E+00  0.00000000000E+00  0.55660732656E+02  0.55660732656E+02  0.00000000000E+00 0.  1.
          2   -1    0    0  501    0  0.00000000000E+00 -0.00000000000E+00 -0.34517794528E+03  0.34517794528E+03  0.00000000000E+00 0. -1.
         25    2    1    2    0    0  0.63895221141E+02 -0.44272233471E+02 -0.20804503814E+03  0.25489692553E+03  0.12508826808E+03 0.  0.
          5    1    3    3  502    0  0.71463839502E+01 -0.39721798052E+02 -0.14940417690E+01  0.40602913748E+02  0.41800000000E+01 0. -1.
         -5    1    3    3    0  502  0.56748837191E+02 -0.45504354190E+01 -0.20655099637E+03  0.21429401179E+03  0.41800000000E+01 0. -1.
        -11    1    1    2    0    0 -0.46494365598E+02  0.41062991589E+02 -0.10166381663E+03  0.11909419349E+03  0.00000000000E+00 0. -1.
         11    1    1    2    0    0 -0.17400855543E+02  0.32092418822E+01  0.20191642147E+02  0.26847558914E+02  0.00000000000E+00 0.  1.
</event>
<event>
 7    1  0.2648915E-009  0.1339954E+03  0.7561462E-02  0.1221645E+00
         -2   -1    0    0    0  501 -0.00000000000E+00  0.00000000000E+00  0.34107303665E+03  0.34107303665E+03  0.00000000000E+00 0.  1.
          2   -1    0    0  501    0  0.00000000000E+00 -0.00000000000E+00 -0.13357092101E+03  0.13357092101E+03  0.00000000000E+00 0. -1.
         25    2    1    2    0    0  0.16633301446E+01  0.10105739886E+03  0.27810022701E+03  0.32125072804E+03  0.12508768713E+03 0.  0.
          5    1    3    3  502    0  0.26387892006E+02 -0.17894086156E+02  0.25931062931E+02  0.41308735016E+02  0.41800000000E+01 0. -1.
         -5    1    3    3    0  502 -0.24724561861E+02  0.11895148502E+03  0.25216916408E+03  0.27994199303E+03  0.41800000000E+01 0. -1.
        -11    1    1    2    0    0 -0.26247888943E+02 -0.69325312457E+02 -0.83092635995E+02  0.11135230926E+03  0.00000000000E+00 0. -1.
         11    1    1    2    0    0  0.24584558798E+02 -0.31732086406E+02  0.12494524631E+02  0.42040920360E+02  0.00000000000E+00 0.  1.
</event>
<event>
 7    1  0.2648915E-009  0.9450837E+02  0.7561462E-02  0.1292287E+00
          1   -1    0    0  501    0  0.00000000000E+00  0.00000000000E+00  0.31110205894E+03  0.31110205894E+03  0.00000000000E+00 0. -1.
         -1   -1    0    0    0  501 -0.00000000000E+00 -0.00000000000E+00 -0.38844727817E+02  0.38844727817E+02  0.00000000000E+00 0.  1.
         25    2    1    2    0    0 -0.23909683127E+02 -0.83265754447E+01  0.14039451956E+03  0.18973596603E+03  0.12509240935E+03 0.  0.
          5    1    3    3  502    0 -0.29374662558E+02  0.40284868351E+02  0.13035128396E+03  0.13962331843E+03  0.41800000000E+01 0. -1.
         -5    1    3    3    0  502  0.54649794303E+01 -0.48611443796E+02  0.10043235598E+02  0.50112647599E+02  0.41800000000E+01 0. -1.
        -11    1    1    2    0    0  0.13587202398E+02  0.47485983746E+02  0.84680036952E+02  0.98031828401E+02  0.00000000000E+00 0.  1.
         11    1    1    2    0    0  0.10322480730E+02 -0.39159408301E+02  0.47182774605E+02  0.62178992323E+02  0.00000000000E+00 0. -1.
</event>
<event>
 7    1  0.2648915E-009  0.1310902E+03  0.7561462E-02  0.1225847E+00
          1   -1    0    0  501    0  0.00000000000E+00  0.00000000000E+00  0.11186513910E+03  0.11186513910E+03  0.00000000000E+00 0. -1.
         -1   -1    0    0    0  501 -0.00000000000E+00 -0.00000000000E+00 -0.20737148445E+03  0.20737148445E+03  0.00000000000E+00 0.  1.
         25    2    1    2    0    0  0.43912398737E+02 -0.10599947232E+03 -0.71805402945E+02  0.18430392361E+03  0.12509090082E+03 0.  0.
          5    1    3    3  502    0  0.18973442487E+01  0.81707238070E+01 -0.61423708777E+02  0.62134572040E+02  0.41800000000E+01 0. -1.
         -5    1    3    3    0  502  0.42015054488E+02 -0.11417019613E+03 -0.10381694169E+02  0.12216935157E+03  0.41800000000E+01 0. -1.
        -11    1    1    2    0    0 -0.44766534336E+02  0.27419463323E+02 -0.20268015209E+02  0.56273101975E+02  0.00000000000E+00 0. -1.
         11    1    1    2    0    0  0.85413559906E+00  0.78580009002E+02 -0.34329271940E+01  0.78659597961E+02  0.00000000000E+00 0.  1.
</event>
<event>
 7    1  0.2648915E-009  0.6162822E+02  0.7561462E-02  0.1391123E+00
          1   -1    0    0  501    0  0.00000000000E+00  0.00000000000E+00  0.23274147347E+03  0.23274147347E+03  0.00000000000E+00 0. -1.
         -1   -1    0    0    0  501 -0.00000000000E+00 -0.00000000000E+00 -0.58460071309E+02  0.58460071309E+02  0.00000000000E+00 0.  1.
         25    2    1    2    0    0  0.22227612359E+02 -0.94916810972E+01  0.54108926632E+02  0.13841125011E+03  0.12508293031E+03 0.  0.
          5    1    3    3  502    0  0.25001167257E+02 -0.67143213423E+01 -0.37975083050E+02  0.46148887397E+02  0.41800000000E+01 0.  1.
         -5    1    3    3    0  502 -0.27735548982E+01 -0.27773597549E+01  0.92084009682E+02  0.92262362711E+02  0.41800000000E+01 0.  1.
        -11    1    1    2    0    0  0.32765886459E+02 -0.77445971854E+01  0.26662645078E+02  0.42947395073E+02  0.00000000000E+00 0. -1.
         11    1    1    2    0    0 -0.54993498818E+02  0.17236278283E+02  0.93509830454E+02  0.10984289960E+03  0.00000000000E+00 0.  1.
</event>
<event>
 7    1  0.2648915E-009  0.1056839E+03  0.7561462E-02  0.1268778E+00
         -1   -1    0    0    0  501 -0.00000000000E+00  0.00000000000E+00  0.44702965147E+03  0.44702965147E+03  0.00000000000E+00 0.  1.
          1   -1    0    0  501    0  0.00000000000E+00 -0.00000000000E+00 -0.33028890518E+02  0.33028890518E+02  0.00000000000E+00 0. -1.
         25    2    1    2    0    0 -0.52701154622E+02  0.62528194484E+01  0.20666386103E+03  0.24733528714E+03  0.12509309876E+03 0.  0.
          5    1    3    3  502    0  0.37215395753E+02 -0.19276767131E+02  0.70504747211E+02  0.82127773691E+02  0.41800000000E+01 0.  1.
         -5    1    3    3    0  502 -0.89916550375E+02  0.25529586579E+02  0.13615911382E+03  0.16520751345E+03  0.41800000000E+01 0.  1.
        -11    1    1    2    0    0  0.34278703764E+02 -0.30052912277E+02  0.19489550658E+03  0.20015610296E+03  0.00000000000E+00 0.  1.
         11    1    1    2    0    0  0.18422450857E+02  0.23800092828E+02  0.12441393346E+02  0.32567151896E+02  0.00000000000E+00 0. -1.
</event>
<event>
 7    1  0.2648915E-009  0.9870209E+02  0.7561462E-02  0.1283049E+00
          2   -1    0    0  501    0  0.00000000000E+00  0.00000000000E+00  0.41719705557E+03  0.41719705557E+03  0.00000000000E+00 0. -1.
         -2   -1    0    0    0  501 -0.00000000000E+00 -0.00000000000E+00 -0.32876794396E+02  0.32876794396E+02  0.00000000000E+00 0.  1.
         25    2    1    2    0    0  0.38726207684E+02 -0.24319326515E+02  0.18365939929E+03  0.22686767501E+03  0.12508804184E+03 0.  0.
          5    1    3    3  502    0  0.67020034243E+02 -0.52648572898E+02  0.15667449085E+03  0.17840382760E+03  0.41800000000E+01 0.  1.
         -5    1    3    3    0  502 -0.28293826560E+02  0.28329246383E+02  0.26984908441E+02  0.48463847408E+02  0.41800000000E+01 0.  1.
        -11    1    1    2    0    0 -0.48711102323E+02  0.36298060673E+01  0.19285286098E+03  0.19894263739E+03  0.00000000000E+00 0. -1.
         11    1    1    2    0    0  0.99848946396E+01  0.20689520448E+02  0.78080008943E+01  0.24263537567E+02  0.00000000000E+00 0.  1.
</event>
<event>
 7    1  0.2648915E-009  0.9824460E+02  0.7561462E-02  0.1284031E+00
         -2   -1    0    0    0  501 -0.00000000000E+00  0.00000000000E+00  0.14447078739E+02  0.14447078739E+02  0.00000000000E+00 0. -1.
          2   -1    0    0  501    0  0.00000000000E+00 -0.00000000000E+00 -0.18091709626E+04  0.18091709626E+04  0.00000000000E+00 0.  1.
         25    2    1    2    0    0 -0.61061026151E+01 -0.32999455759E+02 -0.16248389007E+04  0.16299927164E+04  0.12509417882E+03 0.  0.
          5    1    3    3  502    0  0.47897906431E+02 -0.28663832185E+02 -0.12481676939E+04  0.12494222221E+04  0.41800000000E+01 0. -1.
         -5    1    3    3    0  502 -0.54004009046E+02 -0.43356235738E+01 -0.37667120684E+03  0.38057049424E+03  0.41800000000E+01 0. -1.
        -11    1    1    2    0    0 -0.36730849201E+02  0.13906670902E+02 -0.42439508605E+02  0.57824412399E+02  0.00000000000E+00 0. -1.
         11    1    1    2    0    0  0.42836951816E+02  0.19092784857E+02 -0.12744547457E+03  0.13580091260E+03  0.00000000000E+00 0.  1.
</event>
<event>
 7    1  0.2648915E-009  0.1570977E+03  0.7561462E-02  0.1192013E+00
         -2   -1    0    0    0  501 -0.00000000000E+00  0.00000000000E+00  0.29739425212E+03  0.29739425212E+03  0.00000000000E+00 0.  1.
          2   -1    0    0  501    0  0.00000000000E+00 -0.00000000000E+00 -0.94447372376E+02  0.94447372376E+02  0.00000000000E+00 0. -1.
         25    2    1    2    0    0 -0.12333561919E+03  0.19351058430E+01  0.66708590634E+02  0.18791643405E+03  0.12508849079E+03 0.  0.
          5    1    3    3  502    0 -0.24695652026E+02  0.57255919861E+02  0.24765276768E+02  0.67222815483E+02  0.41800000000E+01 0. -1.
         -5    1    3    3    0  502 -0.98639967161E+02 -0.55320814018E+02  0.41943313866E+02  0.12069361857E+03  0.41800000000E+01 0. -1.
        -11    1    1    2    0    0  0.80472962069E+02  0.29141098388E+02  0.40864078675E+02  0.94841837632E+02  0.00000000000E+00 0. -1.
         11    1    1    2    0    0  0.42862657119E+02 -0.31076204231E+02  0.95374210439E+02  0.10908335282E+03  0.00000000000E+00 0.  1.
</event>
<event>
 7    1  0.2648915E-009  0.1761952E+03  0.7561462E-02  0.1171537E+00
         -2   -1    0    0    0  501 -0.00000000000E+00  0.00000000000E+00  0.23163944596E+02  0.23163944596E+02  0.00000000000E+00 0.  1.
          2   -1    0    0  501    0  0.00000000000E+00 -0.00000000000E+00 -0.17115967941E+04  0.17115967941E+04  0.00000000000E+00 0. -1.
         25    2    1    2    0    0  0.14501175090E+03  0.45503606353E+02 -0.11746195561E+04  0.11909985107E+04  0.12508942745E+03 0.  0.
          5    1    3    3  502    0 -0.13480223164E+02 -0.17218059855E+02 -0.74860404721E+02  0.78100772062E+02  0.41800000000E+01 0. -1.
         -5    1    3    3    0  502  0.15849197406E+03  0.62721666209E+02 -0.10997591513E+04  0.11128977386E+04  0.41800000000E+01 0. -1.
        -11    1    1    2    0    0 -0.11062040556E+03 -0.11425821436E+02 -0.22571495142E+03  0.25162405055E+03  0.00000000000E+00 0.  1.
         11    1    1    2    0    0 -0.34391345338E+02 -0.34077784917E+02 -0.28809834206E+03  0.29213817751E+03  0.00000000000E+00 0. -1.
</event>
<event>
 7    1  0.2648915E-009  0.1003096E+03  0.7561462E-02  0.1279646E+00
         -2   -1    0    0    0  501 -0.00000000000E+00  0.00000000000E+00  0.57019649373E+02  0.57019649373E+02  0.00000000000E+00 0.  1.
          2   -1    0    0  501    0  0.00000000000E+00 -0.00000000000E+00 -0.18696571515E+03  0.18696571515E+03  0.00000000000E+00 0. -1.
         25    2    1    2    0    0  0.18692996357E+02 -0.17209981993E+02 -0.99161639934E+02  0.16163043450E+03  0.12508299217E+03 0.  0.
          5    1    3    3  502    0  0.35145255208E+02  0.48081874849E+02 -0.53505705942E+02  0.80170996133E+02  0.41800000000E+01 0.  1.
         -5    1    3    3    0  502 -0.16452258851E+02 -0.65291856842E+02 -0.45655933992E+02  0.81459438372E+02  0.41800000000E+01 0.  1.
        -11    1    1    2    0    0 -0.14273772934E+02 -0.26190817598E+02 -0.16056259455E+01  0.29871015298E+02  0.00000000000E+00 0.  1.
         11    1    1    2    0    0 -0.44192234235E+01  0.43400799591E+02 -0.29178799896E+02  0.52483914719E+02  0.00000000000E+00 0. -1.
</event>
<event>
 7    1  0.2648915E-009  0.9034481E+02  0.7561462E-02  0.1302019E+00
          3   -1    0    0  501    0  0.00000000000E+00  0.00000000000E+00  0.48464600431E+03  0.48464600431E+03  0.00000000000E+00 0. -1.
         -3   -1    0    0    0  501 -0.00000000000E+00 -0.00000000000E+00 -0.33356997906E+02  0.33356997906E+02  0.00000000000E+00 0.  1.
         25    2    1    2    0    0 -0.11555728766E+02  0.56099506759E+02  0.32206329104E+03  0.35021813920E+03  0.12508913648E+03 0.  0.
          5    1    3    3  502    0 -0.17597156402E+02  0.62694012421E+02  0.33071548930E+03  0.33709109506E+03  0.41800000000E+01 0.  1.
         -5    1    3    3    0  502  0.60414276367E+01 -0.65945056623E+01 -0.86521982671E+01  0.13127044133E+02  0.41800000000E+01 0.  1.
        -11    1    1    2    0    0  0.33146329959E+02  0.11122325890E+02  0.30409607285E+02  0.46337129153E+02  0.00000000000E+00 0.  1.
         11    1    1    2    0    0 -0.21590601193E+02 -0.67221832648E+02  0.98816108083E+02  0.12144773387E+03  0.00000000000E+00 0. -1.
</event>
<event>
 7    1  0.2648915E-009  0.1228749E+03  0.7561462E-02  0.1238428E+00
         -2   -1    0    0    0  501 -0.00000000000E+00  0.00000000000E+00  0.80770489654E+02  0.80770489654E+02  0.00000000000E+00 0.  1.
          2   -1    0    0  501    0  0.00000000000E+00 -0.00000000000E+00 -0.31081431805E+03  0.31081431805E+03  0.00000000000E+00 0. -1.
         25    2    1    2    0    0 -0.78129895507E+02  0.84527388371E+01 -0.21684366150E+03  0.26238536915E+03  0.12509667878E+03 0.  0.
          5    1    3    3  502    0 -0.10389602092E+03 -0.16570439663E+02 -0.19044835426E+03  0.21761665992E+03  0.41800000000E+01 0.  1.
         -5    1    3    3    0  502  0.25766125418E+02  0.25023178500E+02 -0.26395307241E+02  0.44768709224E+02  0.41800000000E+01 0.  1.
        -11    1    1    2    0    0  0.33167267733E+02  0.30311815306E+02  0.31510762767E+02  0.54879886718E+02  0.00000000000E+00 0.  1.
         11    1    1    2    0    0  0.44962627774E+02 -0.38764554144E+02 -0.44710929660E+02  0.74319551838E+02  0.00000000000E+00 0. -1.
</event>
<event>
 7    1  0.2648915E-009  0.1211877E+03  0.7561462E-02  0.1241151E+00
         -1   -1    0    0    0  501 -0.00000000000E+00  0.00000000000E+00  0.18625576721E+02  0.18625576721E+02  0.00000000000E+00 0.  1.
          1   -1    0    0  501    0  0.00000000000E+00 -0.00000000000E+00 -0.89176509319E+03  0.89176509319E+03  0.00000000000E+00 0. -1.
         25    2    1    2    0    0  0.47119053131E+02  0.29428929044E+02 -0.33898201368E+03  0.36557247150E+03  0.12509260285E+03 0.  0.
          5    1    3    3  502    0  0.61227294957E+02  0.69680150761E+02 -0.20872229292E+03  0.22844380713E+03  0.41800000000E+01 0. -1.
         -5    1    3    3    0  502 -0.14108241826E+02 -0.40251221717E+02 -0.13025972077E+03  0.13712866437E+03  0.41800000000E+01 0. -1.
        -11    1    1    2    0    0 -0.63025457613E+00 -0.54054512335E+02 -0.29905357032E+03  0.30390018994E+03  0.00000000000E+00 0. -1.
         11    1    1    2    0    0 -0.46488798555E+02  0.24625583292E+02 -0.23510393247E+03  0.24091800847E+03  0.00000000000E+00 0.  1.
</event>
<event>
 7    1  0.2648915E-009  0.9134635E+02  0.7561462E-02  0.1299624E+00
          1   -1    0    0  501    0  0.00000000000E+00  0.00000000000E+00  0.15872901034E+03  0.15872901034E+03  0.00000000000E+00 0. -1.
         -1   -1    0    0    0  501 -0.00000000000E+00 -0.00000000000E+00 -0.76455756964E+02  0.76455756964E+02  0.00000000000E+00 0.  1.
         25    2    1    2    0    0  0.39853502181E+01  0.27713715819E+01  0.31041125575E+02  0.12897255768E+03  0.12508719216E+03 0.  0.
          5    1    3    3  502    0 -0.36531279278E+02 -0.45775296683E+02  0.29201252769E+02  0.65575130312E+02  0.41800000000E+01 0.  1.
         -5    1    3    3    0  502  0.40516629496E+02  0.48546668265E+02  0.18398728052E+01  0.63397427371E+02  0.41800000000E+01 0.  1.
        -11    1    1    2    0    0  0.17458525532E+02  0.21842738538E+02  0.65017770267E+02  0.70775813603E+02  0.00000000000E+00 0. -1.
         11    1    1    2    0    0 -0.21443875751E+02 -0.24614110120E+02 -0.13785642469E+02  0.35436396014E+02  0.00000000000E+00 0.  1.
</event>
<event>
 7    1  0.2648915E-009  0.1796884E+03  0.7561462E-02  0.1168105E+00
          2   -1    0    0  501    0  0.00000000000E+00  0.00000000000E+00  0.89782910618E+03  0.89782910618E+03  0.00000000000E+00 0.  1.
         -2   -1    0    0    0  501 -0.00000000000E+00 -0.00000000000E+00 -0.56675790321E+02  0.56675790321E+02  0.00000000000E+00 0. -1.
         25    2    1    2    0    0 -0.16439759535E+03 -0.30313134540E+02  0.66018783654E+03  0.69241652687E+03  0.12508881518E+03 0.  0.
          5    1    3    3  502    0 -0.13752577295E+03  0.14055375370E+02  0.32487362454E+03  0.35308814214E+03  0.41800000000E+01 0.  1.
         -5    1    3    3    0  502 -0.26871822408E+02 -0.44368509910E+02  0.33531421201E+03  0.33932838473E+03  0.41800000000E+01 0.  1.
        -11    1    1    2    0    0  0.98535423286E+02  0.30571398075E+02  0.48177123787E+02  0.11386340623E+03  0.00000000000E+00 0. -1.
         11    1    1    2    0    0  0.65862172068E+02 -0.25826353553E+00  0.13278835553E+03  0.14822496340E+03  0.00000000000E+00 0.  1.
</event>
<event>
 7    1  0.2648915E-009  0.1415480E+03  0.7561462E-02  0.1211261E+00
          2   -1    0    0  501    0  0.00000000000E+00  0.00000000000E+00  0.51253935697E+03  0.51253935697E+03  0.00000000000E+00 0. -1.
         -2   -1    0    0    0  501 -0.00000000000E+00 -0.00000000000E+00 -0.65614262608E+02  0.65614262608E+02  0.00000000000E+00 0.  1.
         25    2    1    2    0    0  0.12434338062E+03 -0.43536363569E+02  0.13173406468E+03  0.22440619780E+03  0.12509031360E+03 0.  0.
          5    1    3    3  502    0  0.44090279520E+02 -0.38505879323E+02 -0.11770660710E+02  0.59855462108E+02  0.41800000000E+01 0. -1.
         -5    1    3    3    0  502  0.80253101098E+02 -0.50304842461E+01  0.14350472539E+03  0.16455073569E+03  0.41800000000E+01 0. -1.
        -11    1    1    2    0    0 -0.82719738748E+02  0.56639688256E+02  0.13386043041E+03  0.16724002001E+03  0.00000000000E+00 0.  1.
         11    1    1    2    0    0 -0.41623641870E+02 -0.13103324687E+02  0.18133059927E+03  0.18650740176E+03  0.00000000000E+00 0. -1.
</event>
<event>
 7    1  0.2648915E-009  0.1128559E+03  0.7561462E-02  0.1255371E+00
          2   -1    0    0  501    0  0.00000000000E+00  0.00000000000E+00  0.18372097088E+03  0.18372097088E+03  0.00000000000E+00 0. -1.
         -2   -1    0    0    0  501 -0.00000000000E+00 -0.00000000000E+00 -0.74451522172E+02  0.74451522172E+02  0.00000000000E+00 0.  1.
         25    2    1    2    0    0  0.63065080953E+01  0.41814536064E+02  0.68581004991E+02  0.14879422728E+03  0.12509252717E+03 0.  0.
          5    1    3    3  502    0  0.49961207454E+02  0.59006386064E+02  0.65794030964E+02  0.10160808411E+03  0.41800000000E+01 0.  1.
         -5    1    3    3    0  502 -0.43654699359E+02 -0.17191850000E+02  0.27869740278E+01  0.47186143164E+02  0.41800000000E+01 0.  1.
        -11    1    1    2    0    0  0.27759284064E+02 -0.57367017063E+02  0.29976291777E+02  0.70428194405E+02  0.00000000000E+00 0.  1.
         11    1    1    2    0    0 -0.34065792159E+02  0.15552480999E+02  0.10712151942E+02  0.38950071372E+02  0.00000000000E+00 0. -1.
</event>
<event>
 7    1  0.2648915E-009  0.9459060E+02  0.7561462E-02  0.1292101E+00
         -2   -1    0    0    0  501 -0.00000000000E+00  0.00000000000E+00  0.34902297401E+03  0.34902297401E+03  0.00000000000E+00 0.  1.
          2   -1    0    0  501    0  0.00000000000E+00 -0.00000000000E+00 -0.45326213355E+02  0.45326213355E+02  0.00000000000E+00 0. -1.
         25    2    1    2    0    0 -0.17763390340E+02  0.56695070126E+02  0.13024285673E+03  0.19011407818E+03  0.12510112701E+03 0.  0.
          5    1    3    3  502    0  0.13148731337E+02 -0.43474977418E+01 -0.20167342480E+02  0.24819024459E+02  0.41800000000E+01 0.  1.
         -5    1    3    3    0  502 -0.30912121676E+02  0.61042567868E+02  0.15041019921E+03  0.16529505372E+03  0.41800000000E+01 0.  1.
        -11    1    1    2    0    0 -0.10471276291E+02 -0.72874237216E+02  0.10276726706E+03  0.12641761450E+03  0.00000000000E+00 0. -1.
         11    1    1    2    0    0  0.28234666630E+02  0.16179167090E+02  0.70686636865E+02  0.77817494683E+02  0.00000000000E+00 0.  1.
</event>
<event>
 7    1  0.2648915E-009  0.1395691E+03  0.7561462E-02  0.1213910E+00
         -1   -1    0    0    0  501 -0.00000000000E+00  0.00000000000E+00  0.15114910866E+03  0.15114910866E+03  0.00000000000E+00 0.  1.
          1   -1    0    0  501    0  0.00000000000E+00 -0.00000000000E+00 -0.13755562587E+03  0.13755562587E+03  0.00000000000E+00 0. -1.
         25    2    1    2    0    0  0.56883503581E+02 -0.68963354883E+02  0.40355414177E+02  0.15896405691E+03  0.12509730069E+03 0.  0.
          5    1    3    3  502    0  0.95931739928E+02 -0.43033237273E+02  0.17581086538E+02  0.10668329410E+03  0.41800000000E+01 0. -1.
         -5    1    3    3    0  502 -0.39048236347E+02 -0.25930117609E+02  0.22774327639E+02  0.52280762814E+02  0.41800000000E+01 0. -1.
        -11    1    1    2    0    0 -0.80166847293E+02  0.65061265907E+02 -0.19797085611E+02  0.10512666800E+03  0.00000000000E+00 0.  1.
         11    1    1    2    0    0  0.23283343712E+02  0.39020889760E+01 -0.69648457746E+01  0.24614009617E+02  0.00000000000E+00 0. -1.
</event>
<event>
 7    1  0.2648915E-009  0.1052522E+03  0.7561462E-02  0.1269624E+00
         -1   -1    0    0    0  501 -0.00000000000E+00  0.00000000000E+00  0.57491137266E+02  0.57491137266E+02  0.00000000000E+00 0.  1.
          1   -1    0    0  501    0  0.00000000000E+00 -0.00000000000E+00 -0.29386441765E+03  0.29386441765E+03  0.00000000000E+00 0. -1.
         25    2    1    2    0    0  0.27291511696E+02 -0.36989628513E+02 -0.20542069382E+03  0.24486291457E+03  0.12508847371E+03 0.  0.
          5    1    3    3  502    0  0.68488692447E+02  0.10160535993E+02 -0.12379883157E+03  0.14190687292E+03  0.41800000000E+01 0. -1.
         -5    1    3    3    0  502 -0.41197180752E+02 -0.47150164505E+02 -0.81621862249E+02  0.10295604165E+03  0.41800000000E+01 0. -1.
        -11    1    1    2    0    0  0.12623218626E+02 -0.10452090829E+02  0.20273081138E+02  0.26068940715E+02  0.00000000000E+00 0.  1.
         11    1    1    2    0    0 -0.39914730322E+02  0.47441719342E+02 -0.51225667706E+02  0.80423699634E+02  0.00000000000E+00 0. -1.
</event>
<event>
 7    1  0.2648915E-009  0.1140448E+03  0.7561462E-02  0.1253258E+00
         -2   -1    0    0    0  501 -0.00000000000E+00  0.00000000000E+00  0.87722014928E+02  0.87722014928E+02  0.00000000000E+00 0.  1.
          2   -1    0    0  501    0  0.00000000000E+00 -0.00000000000E+00 -0.24380564697E+03  0.24380564697E+03  0.00000000000E+00 0. -1.
         25    2    1    2    0    0  0.57012025202E+02  0.79819229357E+02 -0.10400028756E+03  0.18995988454E+03  0.12508883856E+03 0.  0.
          5    1    3    3  502    0 -0.90231926915E+01  0.26687350626E+02 -0.10111734189E+03  0.10505152032E+03  0.41800000000E+01 0. -1.
         -5    1    3    3    0  502  0.66035217894E+02  0.53131878731E+02 -0.28829456640E+01  0.84908364225E+02  0.41800000000E+01 0. -1.
        -11    1    1    2    0    0 -0.61500481707E+02 -0.37159252439E+02  0.28007864989E+01  0.71909413133E+02  0.00000000000E+00 0.  1.
         11    1    1    2    0    0  0.44884565055E+01 -0.42659976917E+02 -0.54884130990E+02  0.69658364228E+02  0.00000000000E+00 0. -1.
</event>
<event>
 7    1  0.2648915E-009  0.2284205E+03  0.7561462E-02  0.1127756E+00
          2   -1    0    0  501    0  0.00000000000E+00  0.00000000000E+00  0.97018507373E+03  0.97018507373E+03  0.00000000000E+00 0. -1.
         -2   -1    0    0    0  501 -0.00000000000E+00 -0.00000000000E+00 -0.76876903033E+02  0.76876903033E+02  0.00000000000E+00 0.  1.
         25    2    1    2    0    0 -0.19818339028E+03 -0.10108721694E+03  0.23778742856E+03  0.34883465704E+03  0.12508986834E+03 0.  0.
          5    1    3    3  502    0 -0.10525194569E+03 -0.16084340364E+02  0.38993775910E+02  0.11346658114E+03  0.41800000000E+01 0.  1.
         -5    1    3    3    0  502 -0.92931444592E+02 -0.85002876575E+02  0.19879365265E+03  0.23536807590E+03  0.41800000000E+01 0.  1.
        -11    1    1    2    0    0  0.16554150243E+03  0.95627857968E+02  0.62359978107E+03  0.65224639761E+03  0.00000000000E+00 0. -1.
         11    1    1    2    0    0  0.32641887849E+02  0.54593589712E+01  0.31920961065E+02  0.45980922109E+02  0.00000000000E+00 0.  1.
</event>
<event>
 7    1  0.2648915E-009  0.2333516E+03  0.7561462E-02  0.1124303E+00
          1   -1    0    0  501    0  0.00000000000E+00  0.00000000000E+00  0.79377106154E+02  0.79377106154E+02  0.00000000000E+00 0. -1.
         -1   -1    0    0    0  501 -0.00000000000E+00 -0.00000000000E+00 -0.94741141612E+03  0.94741141612E+03  0.00000000000E+00 0.  1.
         25    2    1    2    0    0  0.82513512180E+02 -0.19835275317E+03 -0.68675714957E+03  0.73036673361E+03  0.12509152125E+03 0.  0.
          5    1    3    3  502    0  0.64008621598E+02 -0.20977401149E+03 -0.55530073583E+03  0.59705830465E+03  0.41800000000E+01 0.  1.
         -5    1    3    3    0  502  0.18504890582E+02  0.11421258323E+02 -0.13145641374E+03  0.13330842896E+03  0.41800000000E+01 0.  1.
        -11    1    1    2    0    0 -0.16306641505E+02  0.23331367563E+00 -0.42799028535E+02  0.45800849730E+02  0.00000000000E+00 0.  1.
         11    1    1    2    0    0 -0.66206870675E+02  0.19811943949E+03 -0.13847813185E+03  0.25062093893E+03  0.00000000000E+00 0. -1.
</event>
<event>
 7    1  0.2648915E-009  0.1665967E+03  0.7561462E-02  0.1181444E+00
         -1   -1    0    0    0  501 -0.00000000000E+00  0.00000000000E+00  0.51520208007E+02  0.51520208007E+02  0.00000000000E+00 0.  1.
          1   -1    0    0  501    0  0.00000000000E+00 -0.00000000000E+00 -0.57304649179E+03  0.57304649179E+03  0.00000000000E+00 0. -1.
         25    2    1    2    0    0 -0.83061131885E+02 -0.99811811514E+02 -0.28550435909E+03  0.33767267615E+03  0.12509415577E+03 0.  0.
          5    1    3    3  502    0 -0.12158129508E+02 -0.10446253204E+03 -0.20334306969E+03  0.22896750228E+03  0.41800000000E+01 0. -1.
         -5    1    3    3    0  502 -0.70903002377E+02  0.46507205263E+01 -0.82161289405E+02  0.10870517386E+03  0.41800000000E+01 0. -1.
        -11    1    1    2    0    0  0.57327068976E+02  0.38991055821E+01 -0.50641107580E+02  0.76590584530E+02  0.00000000000E+00 0. -1.
         11    1    1    2    0    0  0.25734062909E+02  0.95912705932E+02 -0.18538081711E+03  0.21030343912E+03  0.00000000000E+00 0.  1.
</event>
<event>
 7    1  0.2648915E-009  0.1462729E+03  0.7561462E-02  0.1205129E+00
          1   -1    0    0  501    0  0.00000000000E+00  0.00000000000E+00  0.29301333865E+02  0.29301333865E+02  0.00000000000E+00 0. -1.
         -1   -1    0    0    0  501 -0.00000000000E+00 -0.00000000000E+00 -0.75964513448E+03  0.75964513448E+03  0.00000000000E+00 0.  1.
         25    2    1    2    0    0 -0.62593643775E+02 -0.80229353568E+02 -0.43850303343E+03  0.46721013274E+03  0.12508271019E+03 0.  0.
          5    1    3    3  502    0 -0.60238253245E+02  0.16831010523E+02 -0.14293243997E+03  0.15607397242E+03  0.41800000000E+01 0.  1.
         -5    1    3    3    0  502 -0.23553905294E+01 -0.97060364090E+02 -0.29557059345E+03  0.31113616032E+03  0.41800000000E+01 0.  1.
        -11    1    1    2    0    0  0.25635120544E+02 -0.15575234316E+02 -0.41957355205E+02  0.51576806659E+02  0.00000000000E+00 0. -1.
         11    1    1    2    0    0  0.36958523230E+02  0.95804587884E+02 -0.24988341198E+03  0.27015952895E+03  0.00000000000E+00 0.  1.
</event>
<event>
 7    1  0.2648915E-009  0.1630246E+03  0.7561462E-02  0.1185324E+00
         -1   -1    0    0    0  501 -0.00000000000E+00  0.00000000000E+00  0.13083290230E+03  0.13083290230E+03  0.00000000000E+00 0.  1.
          1   -1    0    0  501    0  0.00000000000E+00 -0.00000000000E+00 -0.29183466288E+03  0.29183466288E+03  0.00000000000E+00 0. -1.
         25    2    1    2    0    0  0.52942212910E+02  0.13958453991E+03 -0.15216300262E+03  0.24715474719E+03  0.12508064599E+03 0.  0.
          5    1    3    3  502    0  0.46587637192E+02  0.13686518820E+03 -0.17259347210E+03  0.22518540515E+03  0.41800000000E+01 0. -1.
         -5    1    3    3    0  502  0.63545757179E+01  0.27193517131E+01  0.20430469484E+02  0.21969342039E+02  0.41800000000E+01 0. -1.
        -11    1    1    2    0    0 -0.42284599924E+02 -0.10181618537E+02  0.91101967216E+01  0.44437016451E+02  0.00000000000E+00 0.  1.
         11    1    1    2    0    0 -0.10657612986E+02 -0.12940292138E+03 -0.17948954689E+02  0.13107580154E+03  0.00000000000E+00 0. -1.
</event>
<event>
 7    1  0.2648915E-009  0.9012247E+02  0.7561462E-02  0.1302555E+00
          3   -1    0    0  501    0  0.00000000000E+00  0.00000000000E+00  0.97691815363E+02  0.97691815363E+02  0.00000000000E+00 0. -1.
         -3   -1    0    0    0  501 -0.00000000000E+00 -0.00000000000E+00 -0.13568627077E+03  0.13568627077E+03  0.00000000000E+00 0.  1.
         25    2    1    2    0    0  0.32542054845E+02 -0.15860938948E+02 -0.11678590238E+02  0.13074683286E+03  0.12509112724E+03 0.  0.
          5    1    3    3  502    0  0.78276510349E+02 -0.18435546802E+02  0.75757702182E+01  0.80882298142E+02  0.41800000000E+01 0.  1.
         -5    1    3    3    0  502 -0.45734455504E+02  0.25746078536E+01 -0.19254360456E+02  0.49864534716E+02  0.41800000000E+01 0.  1.
        -11    1    1    2    0    0 -0.20309181393E+02  0.29234487128E+02  0.28052306762E+02  0.45321628404E+02  0.00000000000E+00 0. -1.
         11    1    1    2    0    0 -0.12232873452E+02 -0.13373548180E+02 -0.54368171930E+02  0.57309624871E+02  0.00000000000E+00 0.  1.
</event>
<event>
 7    1  0.2648915E-009  0.1702033E+03  0.7561462E-02  0.1177636E+00
         -1   -1    0    0    0  501 -0.00000000000E+00  0.00000000000E+00  0.23292916376E+03  0.23292916376E+03  0.00000000000E+00 0.  1.
          1   -1    0    0  501    0  0.00000000000E+00 -0.00000000000E+00 -0.16414738703E+03  0.16414738703E+03  0.00000000000E+00 0. -1.
         25    2    1    2    0    0 -0.12516521889E+03  0.76081100563E+02  0.10728331487E+03  0.22048080619E+03  0.12508960935E+03 0.  0.
          5    1    3    3  502    0  0.23640818456E+02  0.26388959243E+02  0.19319750031E+02  0.40570809808E+02  0.41800000000E+01 0.  1.
         -5    1    3    3    0  502 -0.14880603735E+03  0.49692141320E+02  0.87963564842E+02  0.17990999638E+03  0.41800000000E+01 0.  1.
        -11    1    1    2    0    0  0.77104004190E+02 -0.35476294647E+02 -0.66408457818E+02  0.10776677695E+03  0.00000000000E+00 0. -1.
         11    1    1    2    0    0  0.48061214700E+02 -0.40604805915E+02  0.27906919670E+02  0.68828967647E+02  0.00000000000E+00 0.  1.
</event>
<event>
 7    1  0.2648915E-009  0.2828694E+03  0.7561462E-02  0.1094132E+00
          2   -1    0    0  501    0  0.00000000000E+00  0.00000000000E+00  0.18961141380E+04  0.18961141380E+04  0.00000000000E+00 0.  1.
         -2   -1    0    0    0  501 -0.00000000000E+00 -0.00000000000E+00 -0.54299810881E+02  0.54299810881E+02  0.00000000000E+00 0. -1.
         25    2    1    2    0    0 -0.22992563618E+03  0.15172461626E+03  0.56358840499E+03  0.63966107561E+03  0.12509294170E+03 0.  0.
          5    1    3    3  502    0 -0.16096793328E+03  0.11405634966E+03  0.26211050576E+03  0.32808370285E+03  0.41800000000E+01 0.  1.
         -5    1    3    3    0  502 -0.68957702904E+02  0.37668266594E+02  0.30147789923E+03  0.31157737277E+03  0.41800000000E+01 0.  1.
        -11    1    1    2    0    0  0.82136410659E+02 -0.62839377554E+01  0.39776001671E+03  0.40620057696E+03  0.00000000000E+00 0.  1.
         11    1    1    2    0    0  0.14778922552E+03 -0.14544067850E+03  0.88046590538E+03  0.90455229626E+03  0.00000000000E+00 0. -1.
</event>
<event>
 7    1  0.2648915E-009  0.1524023E+03  0.7561462E-02  0.1197552E+00
          3   -1    0    0  501    0  0.00000000000E+00  0.00000000000E+00  0.50200574638E+03  0.50200574638E+03  0.00000000000E+00 0. -1.
         -3   -1    0    0    0  501 -0.00000000000E+00 -0.00000000000E+00 -0.69272440881E+02  0.69272440881E+02  0.00000000000E+00 0.  1.
         25    2    1    2    0    0 -0.14601961177E+02  0.12330772923E+03  0.94798116959E+02  0.20013425994E+03  0.12509606574E+03 0.  0.
          5    1    3    3  502    0  0.36424855662E+02  0.54524971731E+02 -0.80887159231E+01  0.66201528514E+02  0.41800000000E+01 0.  1.
         -5    1    3    3    0  502 -0.51026816839E+02  0.68782757499E+02  0.10288683288E+03  0.13393273142E+03  0.41800000000E+01 0.  1.
        -11    1    1    2    0    0  0.28664998016E+02 -0.13314224149E+03  0.30415096693E+03  0.33325118045E+03  0.00000000000E+00 0.  1.
         11    1    1    2    0    0 -0.14063036838E+02  0.98345122645E+01  0.33784221610E+02  0.37892746884E+02  0.00000000000E+00 0. -1.
</event>
<event>
 7    1  0.2648915E-009  0.1018291E+03  0.7561462E-02  0.1276496E+00
         -2   -1    0    0    0  501 -0.00000000000E+00  0.00000000000E+00  0.15763869521E+03  0.15763869521E+03  0.00000000000E+00 0.  1.
          2   -1    0    0  501    0  0.00000000000E+00 -0.00000000000E+00 -0.10497584968E+03  0.10497584968E+03  0.00000000000E+00 0. -1.
         25    2    1    2    0    0 -0.44166733885E+01 -0.56046469304E+02 -0.12040540257E+02  0.13767055501E+03  0.12508994117E+03 0.  0.
          5    1    3    3  502    0  0.31306389561E+02  0.12737440311E+02 -0.42348573176E+02  0.54343412325E+02  0.41800000000E+01 0. -1.
         -5    1    3    3    0  502 -0.35723062950E+02 -0.68783909615E+02  0.30308032919E+02  0.83327142684E+02  0.41800000000E+01 0. -1.
        -11    1    1    2    0    0  0.20583087137E+02  0.68531880532E+02  0.73611776976E+02  0.10265951410E+03  0.00000000000E+00 0.  1.
         11    1    1    2    0    0 -0.16166413749E+02 -0.12485411228E+02 -0.89083911879E+01  0.22284475776E+02  0.00000000000E+00 0. -1.
</event>
<event>
 7    1  0.2648915E-009  0.1120179E+03  0.7561462E-02  0.1256878E+00
         -3   -1    0    0    0  501 -0.00000000000E+00  0.00000000000E+00  0.36079054852E+02  0.36079054852E+02  0.00000000000E+00 0.  1.
          3   -1    0    0  501    0  0.00000000000E+00 -0.00000000000E+00 -0.47675719514E+03  0.47675719514E+03  0.00000000000E+00 0. -1.
         25    2    1    2    0    0 -0.13120266787E+02  0.35868209734E+02 -0.36783835318E+03  0.39039971977E+03  0.12509283452E+03 0.  0.
          5    1    3    3  502    0  0.49153927016E+02 -0.10742839358E+02 -0.18253664228E+03  0.18939011408E+03  0.41800000000E+01 0.  1.
         -5    1    3    3    0  502 -0.62274193804E+02  0.46611049092E+02 -0.18530171091E+03  0.20100960568E+03  0.41800000000E+01 0.  1.
        -11    1    1    2    0    0  0.48826331019E+02 -0.34744106265E+02 -0.59086240812E+02  0.84156683479E+02  0.00000000000E+00 0. -1.
         11    1    1    2    0    0 -0.35706064231E+02 -0.11241034694E+01 -0.13753546294E+02  0.38279846749E+02  0.00000000000E+00 0.  1.
</event>
<event>
 7    1  0.2648915E-009  0.1319364E+03  0.7561462E-02  0.1224610E+00
         -1   -1    0    0    0  501 -0.00000000000E+00  0.00000000000E+00  0.14487404970E+03  0.14487404970E+03  0.00000000000E+00 0.  1.
          1   -1    0    0  501    0  0.00000000000E+00 -0.00000000000E+00 -0.29175710357E+03  0.29175710357E+03  0.00000000000E+00 0. -1.
         25    2    1    2    0    0  0.95977733404E+02  0.12016934492E+02 -0.23053345161E+03  0.27955127077E+03  0.12508840336E+03 0.  0.
          5    1    3    3  502    0  0.75087962401E+02 -0.45979581273E+02 -0.17727248310E+03  0.19797810398E+03  0.41800000000E+01 0. -1.
         -5    1    3    3    0  502  0.20889771003E+02  0.57996515766E+02 -0.53260968505E+02  0.81573166787E+02  0.41800000000E+01 0. -1.
        -11    1    1    2    0    0 -0.62334115957E+02  0.21994571243E+02  0.86838123603E+02  0.10913369272E+03  0.00000000000E+00 0.  1.
         11    1    1    2    0    0 -0.33643617447E+02 -0.34011505736E+02 -0.31877258634E+01  0.47946189771E+02  0.00000000000E+00 0. -1.
</event>
<event>
 7    1  0.2648915E-009  0.3965709E+03  0.7561462E-02  0.1044974E+00
         -2   -1    0    0    0  501 -0.00000000000E+00  0.00000000000E+00  0.30821035419E+03  0.30821035419E+03  0.00000000000E+00 0. -1.
          2   -1    0    0  501    0  0.00000000000E+00 -0.00000000000E+00 -0.64526376054E+03  0.64526376054E+03  0.00000000000E+00 0.  1.
         25    2    1    2    0    0 -0.29060641896E+03  0.26488148429E+03  0.21584765127E+02  0.41319175041E+03  0.12508888462E+03 0.  0.
          5    1    3    3  502    0 -0.22003944681E+03  0.23433174341E+03 -0.26233850464E+02  0.32254365818E+03  0.41800000000E+01 0. -1.
         -5    1    3    3    0  502 -0.70566972153E+02  0.30549740876E+02  0.47818615591E+02  0.90648092222E+02  0.41800000000E+01 0. -1.
        -11    1    1    2    0    0  0.95951865158E+02 -0.66618004479E+02 -0.56320059338E+02  0.12967909636E+03  0.00000000000E+00 0.  1.
         11    1    1    2    0    0  0.19465455380E+03 -0.19826347981E+03 -0.30231811214E+03  0.41060326797E+03  0.00000000000E+00 0. -1.
</event>
<event>
 7    1  0.2648915E-009  0.9820947E+02  0.7561462E-02  0.1284107E+00
          1   -1    0    0  501    0  0.00000000000E+00  0.00000000000E+00  0.48754181989E+03  0.48754181989E+03  0.00000000000E+00 0.  1.
         -1   -1    0    0    0  501 -0.00000000000E+00 -0.00000000000E+00 -0.31215670433E+02  0.31215670433E+02  0.00000000000E+00 0. -1.
         25    2    1    2    0    0 -0.40581243571E+01 -0.52648910029E+02  0.30654995079E+03  0.33527416459E+03  0.12509003563E+03 0.  0.
          5    1    3    3  502    0 -0.52554293253E+02 -0.17042104053E+02  0.60914492852E+02  0.82343396149E+02  0.41800000000E+01 0. -1.
         -5    1    3    3    0  502  0.48496168896E+02 -0.35606805977E+02  0.24563545794E+03  0.25293076844E+03  0.41800000000E+01 0. -1.
        -11    1    1    2    0    0  0.32556179512E+02  0.30488448378E+02  0.13874060976E+03  0.14573402864E+03  0.00000000000E+00 0. -1.
         11    1    1    2    0    0 -0.28498055155E+02  0.22160461651E+02  0.11035588916E+02  0.37749297092E+02  0.00000000000E+00 0.  1.
</event>
<event>
 7    1  0.2648915E-009  0.1107029E+03  0.7561462E-02  0.1259274E+00
          1   -1    0    0  501    0  0.00000000000E+00  0.00000000000E+00  0.46609250139E+02  0.46609250139E+02  0.00000000000E+00 0. -1.
         -1   -1    0    0    0  501 -0.00000000000E+00 -0.00000000000E+00 -0.37646511610E+03  0.37646511610E+03  0.00000000000E+00 0.  1.
         25    2    1    2    0    0 -0.41040398866E+02  0.36059227833E+02 -0.26648198566E+03  0.29940849096E+03  0.12509281964E+03 0.  0.
          5    1    3    3  502    0 -0.52039087128E+02 -0.34590348998E+02 -0.97574983421E+02  0.11594355792E+03  0.41800000000E+01 0.  1.
         -5    1    3    3    0  502  0.10998688262E+02  0.70649576831E+02 -0.16890700224E+03  0.18346493304E+03  0.41800000000E+01 0.  1.
        -11    1    1    2    0    0  0.88967289169E+01  0.20362573566E+02 -0.53567904200E+02  0.57994021658E+02  0.00000000000E+00 0.  1.
         11    1    1    2    0    0  0.32143669949E+02 -0.56421801399E+02 -0.98059760981E+01  0.65671853622E+02  0.00000000000E+00 0. -1.
</event>
<event>
 7    1  0.2648915E-009  0.9200513E+02  0.7561462E-02  0.1298067E+00
         -2   -1    0    0    0  501 -0.00000000000E+00  0.00000000000E+00  0.10282734394E+02  0.10282734394E+02  0.00000000000E+00 0.  1.
          2   -1    0    0  501    0  0.00000000000E+00 -0.00000000000E+00 -0.14889447786E+04  0.14889447786E+04  0.00000000000E+00 0. -1.
         25    2    1    2    0    0  0.10195861557E+02  0.10355988559E+00 -0.11543038534E+04  0.11611069234E+04  0.12509170681E+03 0.  0.
          5    1    3    3  502    0  0.33485523295E+02  0.37076362721E+02 -0.21459467549E+03  0.22037305664E+03  0.41800000000E+01 0. -1.
         -5    1    3    3    0  502 -0.23289661738E+02 -0.36972802835E+02 -0.93970917795E+03  0.94073386673E+03  0.41800000000E+01 0. -1.
        -11    1    1    2    0    0  0.32144737838E+02  0.25031198896E+02 -0.20492378183E+03  0.20893444294E+03  0.00000000000E+00 0. -1.
         11    1    1    2    0    0 -0.42340599395E+02 -0.25134758781E+02 -0.11943440893E+03  0.12918614667E+03  0.00000000000E+00 0.  1.
</event>
<event>
 7    1  0.2648915E-009  0.1100482E+03  0.7561462E-02  0.1260481E+00
         -2   -1    0    0    0  501 -0.00000000000E+00  0.00000000000E+00  0.39986684121E+02  0.39986684121E+02  0.00000000000E+00 0.  1.
          2   -1    0    0  501    0  0.00000000000E+00 -0.00000000000E+00 -0.32033631734E+03  0.32033631734E+03  0.00000000000E+00 0. -1.
         25    2    1    2    0    0  0.22743149645E+02 -0.22301527851E+02 -0.13785686325E+03  0.18885602538E+03  0.12508986600E+03 0.  0.
          5    1    3    3  502    0  0.59117437510E+02  0.25763574163E+02 -0.94519822513E+02  0.11449935554E+03  0.41800000000E+01 0. -1.
         -5    1    3    3    0  502 -0.36374287865E+02 -0.48065102014E+02 -0.43337040741E+02  0.74356669839E+02  0.41800000000E+01 0. -1.
        -11    1    1    2    0    0  0.46138835497E+01  0.53419369374E+02 -0.73302276444E+02  0.90819274813E+02  0.00000000000E+00 0.  1.
         11    1    1    2    0    0 -0.27357033195E+02 -0.31117841523E+02 -0.69190493521E+02  0.80647701269E+02  0.00000000000E+00 0. -1.
</event>
<event>
 7    1  0.2648915E-009  0.1106417E+03  0.7561462E-02  0.1259386E+00
          1   -1    0    0  501    0  0.00000000000E+00  0.00000000000E+00  0.18274300402E+03  0.18274300402E+03  0.00000000000E+00 0. -1.
         -1   -1    0    0    0  501 -0.00000000000E+00 -0.00000000000E+00 -0.95520220125E+02  0.95520220125E+02  0.00000000000E+00 0.  1.
         25    2    1    2    0    0  0.42859672727E+02 -0.62073474801E+02  0.42853163892E+02  0.15222869004E+03  0.12508841910E+03 0.  0.
          5    1    3    3  502    0 -0.11717746102E+02  0.26305057856E+02  0.38396220319E+02  0.48176797084E+02  0.41800000000E+01 0.  1.
         -5    1    3    3    0  502  0.54577418829E+02 -0.88378532657E+02  0.44569435729E+01  0.10405189295E+03  0.41800000000E+01 0.  1.
        -11    1    1    2    0    0  0.79966963233E+01  0.22224520731E+02 -0.22804853097E+02  0.32831963063E+02  0.00000000000E+00 0.  1.
         11    1    1    2    0    0 -0.50856369051E+02  0.39848954071E+02  0.67174473105E+02  0.93202571051E+02  0.00000000000E+00 0. -1.
</event>
<event>
 7    1  0.2648915E-009  0.1659003E+03  0.7561462E-02  0.1182192E+00
         -2   -1    0    0    0  501 -0.00000000000E+00  0.00000000000E+00  0.14257306274E+03  0.14257306274E+03  0.00000000000E+00 0. -1.
          2   -1    0    0  501    0  0.00000000000E+00 -0.00000000000E+00 -0.25748617593E+03  0.25748617593E+03  0.00000000000E+00 0.  1.
         25    2    1    2    0    0 -0.60796585258E+02  0.13316695594E+03  0.33276498428E+01  0.19258343651E+03  0.12509054254E+03 0.  0.
          5    1    3    3  502    0 -0.25295017763E+00  0.11507854367E+03 -0.32724202800E+02  0.11971416393E+03  0.41800000000E+01 0. -1.
         -5    1    3    3    0  502 -0.60543635081E+02  0.18088412264E+02  0.36051852642E+02  0.72869272577E+02  0.41800000000E+01 0. -1.
        -11    1    1    2    0    0 -0.74903034221E+01 -0.10066671739E+02 -0.49029612898E+02  0.50609736871E+02  0.00000000000E+00 0.  1.
         11    1    1    2    0    0  0.68286888680E+02 -0.12310028420E+03 -0.69211150139E+02  0.15686606529E+03  0.00000000000E+00 0. -1.
</event>
<event>
 7    1  0.2648915E-009  0.1418412E+03  0.7561462E-02  0.1210873E+00
         -1   -1    0    0    0  501 -0.00000000000E+00  0.00000000000E+00  0.32492453368E+02  0.32492453368E+02  0.00000000000E+00 0.  1.
          1   -1    0    0  501    0  0.00000000000E+00 -0.00000000000E+00 -0.62249622422E+03  0.62249622422E+03  0.00000000000E+00 0. -1.
         25    2    1    2    0    0 -0.47728894628E+02  0.78678201539E+02 -0.32420115403E+03  0.35947546022E+03  0.12509161221E+03 0.  0.
          5    1    3    3  502    0  0.41341001315E+02  0.11531251136E+02 -0.10440325490E+03  0.11295822314E+03  0.41800000000E+01 0.  1.
         -5    1    3    3    0  502 -0.89069895944E+02  0.67146950402E+02 -0.21979789913E+03  0.24651723708E+03  0.41800000000E+01 0.  1.
        -11    1    1    2    0    0  0.85908136349E+01 -0.88232849934E+02 -0.19025503616E+03  0.20989477523E+03  0.00000000000E+00 0.  1.
         11    1    1    2    0    0  0.39138080993E+02  0.95546483956E+01 -0.75547580662E+02  0.85618442136E+02  0.00000000000E+00 0. -1.
</event>
<event>
 7    1  0.2648915E-009  0.1077525E+03  0.7561462E-02  0.1264789E+00
         -2   -1    0    0    0  501 -0.00000000000E+00  0.00000000000E+00  0.14678485527E+03  0.14678485527E+03  0.00000000000E+00 0.  1.
          2   -1    0    0  501    0  0.00000000000E+00 -0.00000000000E+00 -0.19797061381E+03  0.19797061381E+03  0.00000000000E+00 0. -1.
         25    2    1    2    0    0  0.83047078375E+02 -0.53743973564E+02 -0.11477315884E+03  0.19648052822E+03  0.12508592271E+03 0.  0.
          5    1    3    3  502    0  0.35394123440E+02 -0.22612238629E+02  0.22488845290E+02  0.47825493959E+02  0.41800000000E+01 0. -1.
         -5    1    3    3    0  502  0.47652954935E+02 -0.31131734935E+02 -0.13726200413E+03  0.14865503426E+03  0.41800000000E+01 0. -1.
        -11    1    1    2    0    0 -0.24714130672E+02  0.52330218050E+02 -0.51612165640E+01  0.58102307463E+02  0.00000000000E+00 0.  1.
         11    1    1    2    0    0 -0.58332947703E+02  0.14137555141E+01  0.68748616863E+02  0.90172633392E+02  0.00000000000E+00 0. -1.
</event>
<event>
 7    1  0.2648915E-009  0.1166745E+03  0.7561462E-02  0.1248686E+00
          2   -1    0    0  501    0  0.00000000000E+00  0.00000000000E+00  0.11289938822E+04  0.11289938822E+04  0.00000000000E+00 0. -1.
         -2   -1    0    0    0  501 -0.00000000000E+00 -0.00000000000E+00 -0.12839094254E+02  0.12839094254E+02  0.00000000000E+00 0.  1.
         25    2    1    2    0    0  0.40583546336E+02 -0.33078409892E+02  0.66223180775E+03  0.67597276273E+03  0.12508798234E+03 0.  0.
          5    1    3    3  502    0  0.84078157562E+02 -0.90699642574E+01  0.45654505438E+03  0.46432990418E+03  0.41800000000E+01 0.  1.
         -5    1    3    3    0  502 -0.43494611226E+02 -0.24008445635E+02  0.20568675337E+03  0.21164285856E+03  0.41800000000E+01 0.  1.
        -11    1    1    2    0    0  0.21817265494E+02  0.28998839106E+02  0.98377672371E+02  0.10485748502E+03  0.00000000000E+00 0.  1.
         11    1    1    2    0    0 -0.62400811830E+02  0.40795707864E+01  0.35554530778E+03  0.36100272866E+03  0.00000000000E+00 0. -1.
</event>
<event>
 7    1  0.2648915E-009  0.1038999E+03  0.7561462E-02  0.1272302E+00
          3   -1    0    0  501    0  0.00000000000E+00  0.00000000000E+00  0.19646086388E+03  0.19646086388E+03  0.00000000000E+00 0. -1.
         -3   -1    0    0    0  501 -0.00000000000E+00 -0.00000000000E+00 -0.61572822359E+02  0.61572822359E+02  0.00000000000E+00 0.  1.
         25    2    1    2    0    0 -0.25749396596E+01  0.20857062744E+02  0.89450435222E+02  0.15521015394E+03  0.12508862516E+03 0.  0.
          5    1    3    3  502    0  0.52077741566E+02 -0.92920569017E+01  0.73496117335E+02  0.90650897135E+02  0.41800000000E+01 0. -1.
         -5    1    3    3    0  502 -0.54652681225E+02  0.30149119646E+02  0.15954317888E+02  0.64559256809E+02  0.41800000000E+01 0. -1.
        -11    1    1    2    0    0 -0.14015902655E+02  0.32984092215E+02  0.19503262792E+02  0.40801631414E+02  0.00000000000E+00 0. -1.
         11    1    1    2    0    0  0.16590842314E+02 -0.53841154959E+02  0.25934343508E+02  0.62021900884E+02  0.00000000000E+00 0.  1.
</event>
<event>
 7    1  0.2648915E-009  0.1296918E+03  0.7561462E-02  0.1227914E+00
         -1   -1    0    0    0  501 -0.00000000000E+00  0.00000000000E+00  0.12557003662E+03  0.12557003662E+03  0.00000000000E+00 0.  1.
          1   -1    0    0  501    0  0.00000000000E+00 -0.00000000000E+00 -0.14526417729E+03  0.14526417729E+03  0.00000000000E+00 0. -1.
         25    2    1    2    0    0 -0.15972705956E+02 -0.77712411127E+02 -0.11420484713E+02  0.14856888490E+03  0.12509172598E+03 0.  0.
          5    1    3    3  502    0 -0.38246200996E+02  0.22678834609E+02  0.24140188048E+01  0.44725846181E+02  0.41800000000E+01 0. -1.
         -5    1    3    3    0  502  0.22273495040E+02 -0.10039124574E+03 -0.13834503518E+02  0.10384303871E+03  0.41800000000E+01 0. -1.
        -11    1    1    2    0    0 -0.28355131202E+02  0.84763834548E+01 -0.24558245724E+02  0.38457378681E+02  0.00000000000E+00 0. -1.
         11    1    1    2    0    0  0.44327837157E+02  0.69236027672E+02  0.16284589766E+02  0.83807950331E+02  0.00000000000E+00 0.  1.
</event>
<event>
 7    1  0.2648915E-009  0.1101513E+03  0.7561462E-02  0.1260290E+00
          2   -1    0    0  501    0  0.00000000000E+00  0.00000000000E+00  0.17702431559E+03  0.17702431559E+03  0.00000000000E+00 0. -1.
         -2   -1    0    0    0  501 -0.00000000000E+00 -0.00000000000E+00 -0.10676281919E+03  0.10676281919E+03  0.00000000000E+00 0.  1.
         25    2    1    2    0    0 -0.70851408315E+02  0.43159294822E+02  0.52686657696E+02  0.15907894831E+03  0.12509029181E+03 0.  0.
          5    1    3    3  502    0 -0.99685855254E+01  0.51503103016E+02 -0.26368288179E+02  0.58861713695E+02  0.41800000000E+01 0. -1.
         -5    1    3    3    0  502 -0.60882822790E+02 -0.83438081939E+01  0.79054945875E+02  0.10021723461E+03  0.41800000000E+01 0. -1.
        -11    1    1    2    0    0  0.50447921071E+02  0.79328624017E+01 -0.23337592118E+02  0.56147718138E+02  0.00000000000E+00 0.  1.
         11    1    1    2    0    0  0.20403487244E+02 -0.51092157224E+02  0.40912430823E+02  0.68560468328E+02  0.00000000000E+00 0. -1.
</event>
<event>
 7    1  0.2648915E-009  0.1554312E+03  0.7561462E-02  0.1193954E+00
         -1   -1    0    0    0  501 -0.00000000000E+00  0.00000000000E+00  0.57465547425E+02  0.57465547425E+02  0.00000000000E+00 0.  1.
          1   -1    0    0  501    0  0.00000000000E+00 -0.00000000000E+00 -0.44214867883E+03  0.44214867883E+03  0.00000000000E+00 0. -1.
         25    2    1    2    0    0 -0.10267501248E+03  0.54480993005E+02 -0.22524001082E+03  0.28264872663E+03  0.12508758292E+03 0.  0.
          5    1    3    3  502    0 -0.12649433247E+03  0.29077031968E+02 -0.20343412867E+03  0.24134872497E+03  0.41800000000E+01 0.  1.
         -5    1    3    3    0  502  0.23819319982E+02  0.25403961037E+02 -0.21805882152E+02  0.41300001661E+02  0.41800000000E+01 0.  1.
        -11    1    1    2    0    0  0.28438135954E+02 -0.65000557418E+02 -0.91481362138E+02  0.11576977006E+03  0.00000000000E+00 0. -1.
         11    1    1    2    0    0  0.74236876530E+02  0.10519564413E+02 -0.67961758445E+02  0.10119572957E+03  0.00000000000E+00 0.  1.
</event>
<event>
 7    1  0.2747164E-009  0.8576195E+02  0.7561462E-02  0.1313452E+00
         -1   -1    0    0    0  501 -0.00000000000E+00  0.00000000000E+00  0.41629226751E+02  0.41629226751E+02  0.00000000000E+00 0.  1.
          1   -1    0    0  501    0  0.00000000000E+00 -0.00000000000E+00 -0.37633973465E+03  0.37633973465E+03  0.00000000000E+00 0. -1.
         25    2    1    2    0    0  0.35971907048E+02  0.38511599846E+02 -0.12854786179E+03  0.18694646283E+03  0.12508919127E+03 0.  0.
          5    1    3    3  502    0  0.56818101844E+01  0.60721666997E+02 -0.92752014923E+01  0.61829649624E+02  0.41800000000E+01 0. -1.
         -5    1    3    3    0  502  0.30290096863E+02 -0.22210067151E+02 -0.11927266030E+03  0.12511681320E+03  0.41800000000E+01 0. -1.
        -11    1    1    2    0    0 -0.45527740537E+01 -0.40843226829E+02 -0.27140936450E+02  0.49249643255E+02  0.00000000000E+00 0.  1.
         11    1    1    2    0    0 -0.31419132994E+02  0.23316269827E+01 -0.17902170965E+03  0.18177285531E+03  0.00000000000E+00 0. -1.
</event>
<event>
 7    1  0.2648915E-009  0.1306093E+03  0.7561462E-02  0.1226554E+00
          1   -1    0    0  501    0  0.00000000000E+00  0.00000000000E+00  0.84942960587E+03  0.84942960587E+03  0.00000000000E+00 0. -1.
         -1   -1    0    0    0  501 -0.00000000000E+00 -0.00000000000E+00 -0.30494859949E+02  0.30494859949E+02  0.00000000000E+00 0.  1.
         25    2    1    2    0    0  0.23329898114E+02  0.10398714436E+03  0.29320848717E+03  0.33611751859E+03  0.12508460742E+03 0.  0.
          5    1    3    3  502    0  0.63110475232E+02  0.70746190279E+02  0.25350865273E+03  0.27068813223E+03  0.41800000000E+01 0. -1.
         -5    1    3    3    0  502 -0.39780577118E+02  0.33240954084E+02  0.39699834441E+02  0.65429386356E+02  0.41800000000E+01 0. -1.
        -11    1    1    2    0    0  0.12038150562E+02 -0.23764846736E+02  0.28903123675E+02  0.39307449262E+02  0.00000000000E+00 0. -1.
         11    1    1    2    0    0 -0.35368048676E+02 -0.80222297627E+02  0.49682313508E+03  0.50449949797E+03  0.00000000000E+00 0.  1.
</event>
<event>
 7    1  0.2648915E-009  0.1137861E+03  0.7561462E-02  0.1253715E+00
          2   -1    0    0  501    0  0.00000000000E+00  0.00000000000E+00  0.10611647480E+03  0.10611647480E+03  0.00000000000E+00 0. -1.
         -2   -1    0    0    0  501 -0.00000000000E+00 -0.00000000000E+00 -0.13341266991E+03  0.13341266991E+03  0.00000000000E+00 0.  1.
         25    2    1    2    0    0  0.24788710547E+02  0.50313030588E+02  0.19154548629E+01  0.13710247936E+03  0.12509012615E+03 0.  0.
          5    1    3    3  502    0  0.69358094951E+02  0.56939298020E+02 -0.97752722410E+01  0.90364026812E+02  0.41800000000E+01 0. -1.
         -5    1    3    3    0  502 -0.44569384404E+02 -0.66262674321E+01  0.11690727104E+02  0.46738452546E+02  0.41800000000E+01 0. -1.
        -11    1    1    2    0    0 -0.14869535642E+02 -0.69400104375E+02 -0.36376518245E+02  0.79754176424E+02  0.00000000000E+00 0.  1.
         11    1    1    2    0    0 -0.99191749050E+01  0.19087073787E+02  0.71648682707E+01  0.22672488921E+02  0.00000000000E+00 0. -1.
</event>
<event>
 7    1  0.2648915E-009  0.1118972E+03  0.7561462E-02  0.1257096E+00
          1   -1    0    0  501    0  0.00000000000E+00  0.00000000000E+00  0.96004952565E+02  0.96004952565E+02  0.00000000000E+00 0. -1.
         -1   -1    0    0    0  501 -0.00000000000E+00 -0.00000000000E+00 -0.13151276239E+03  0.13151276239E+03  0.00000000000E+00 0.  1.
         25    2    1    2    0    0 -0.25030069437E+02  0.17806260448E+02 -0.22603265370E+02  0.13077685298E+03  0.12509240738E+03 0.  0.
          5    1    3    3  502    0  0.31222924697E+02  0.53451280768E+02 -0.92893493025E+01  0.62734957184E+02  0.41800000000E+01 0.  1.
         -5    1    3    3    0  502 -0.56252994134E+02 -0.35645020319E+02 -0.13313916067E+02  0.68041895797E+02  0.41800000000E+01 0.  1.
        -11    1    1    2    0    0 -0.94579524116E+01  0.32602618217E+02  0.15281380616E+01  0.33981153370E+02  0.00000000000E+00 0.  1.
         11    1    1    2    0    0  0.34488021849E+02 -0.50408878665E+02 -0.14432682516E+02  0.62759708603E+02  0.00000000000E+00 0. -1.
</event>
<event>
 7    1  0.2648915E-009  0.1223348E+03  0.7561462E-02  0.1239294E+00
          2   -1    0    0  501    0  0.00000000000E+00  0.00000000000E+00  0.48291668667E+03  0.48291668667E+03  0.00000000000E+00 0. -1.
         -2   -1    0    0    0  501 -0.00000000000E+00 -0.00000000000E+00 -0.51673504482E+02  0.51673504482E+02  0.00000000000E+00 0.  1.
         25    2    1    2    0    0 -0.97396919346E+02  0.55189737064E+02  0.19116650561E+03  0.25440993574E+03  0.12509082923E+03 0.  0.
          5    1    3    3  502    0  0.65295495549E+01  0.13201281762E+02  0.12130370625E+03  0.12226598222E+03  0.41800000000E+01 0. -1.
         -5    1    3    3    0  502 -0.10392646890E+03  0.41988455302E+02  0.69862799360E+02  0.13214395352E+03  0.41800000000E+01 0. -1.
        -11    1    1    2    0    0  0.49627893120E+02 -0.84119704431E+01  0.27543159225E+02  0.57378695021E+02  0.00000000000E+00 0.  1.
         11    1    1    2    0    0  0.47769026226E+02 -0.46777766621E+02  0.21253351735E+03  0.22280156040E+03  0.00000000000E+00 0. -1.
</event>
<event>
 7    1  0.2648915E-009  0.8589710E+02  0.7561462E-02  0.1313103E+00
         -2   -1    0    0    0  501 -0.00000000000E+00  0.00000000000E+00  0.17831646794E+02  0.17831646794E+02  0.00000000000E+00 0.  1.
          2   -1    0    0  501    0  0.00000000000E+00 -0.00000000000E+00 -0.64886030551E+03  0.64886030551E+03  0.00000000000E+00 0. -1.
         25    2    1    2    0    0 -0.28086780708E+02  0.12828722317E+02 -0.48446747781E+03  0.50130798836E+03  0.12509004266E+03 0.  0.
          5    1    3    3  502    0  0.45695140449E+02  0.17641195060E+02 -0.12558230893E+03  0.13486158215E+03  0.41800000000E+01 0. -1.
         -5    1    3    3    0  502 -0.73781921156E+02 -0.48124727432E+01 -0.35888516888E+03  0.36644640621E+03  0.41800000000E+01 0. -1.
        -11    1    1    2    0    0  0.13571112526E+02  0.13099714983E+02 -0.33933263735E+01  0.19164871294E+02  0.00000000000E+00 0.  1.
         11    1    1    2    0    0  0.14515668182E+02 -0.25928437300E+02 -0.14316785453E+03  0.14621909265E+03  0.00000000000E+00 0. -1.
</event>
<event>
 7    1  0.2648915E-009  0.5736078E+02  0.7561462E-02  0.1409253E+00
          2   -1    0    0  501    0  0.00000000000E+00  0.00000000000E+00  0.38517710337E+03  0.38517710337E+03  0.00000000000E+00 0. -1.
         -2   -1    0    0    0  501 -0.00000000000E+00 -0.00000000000E+00 -0.46196721991E+02  0.46196721991E+02  0.00000000000E+00 0.  1.
         25    2    1    2    0    0  0.26527711823E+02 -0.41331004691E+02  0.27858190202E+03  0.30930028611E+03  0.12508724719E+03 0.  0.
          5    1    3    3  502    0  0.32337141474E+02 -0.11129029082E+02  0.60179437056E+01  0.34974763094E+02  0.41800000000E+01 0.  1.
         -5    1    3    3    0  502 -0.58094296515E+01 -0.30201975609E+02  0.27256395832E+03  0.27432552301E+03  0.41800000000E+01 0.  1.
        -11    1    1    2    0    0 -0.20509542847E+02  0.29133618498E+02  0.85997314418E+02  0.93085697944E+02  0.00000000000E+00 0. -1.
         11    1    1    2    0    0 -0.60181689761E+01  0.12197386192E+02 -0.25598835057E+02  0.28987841313E+02  0.00000000000E+00 0.  1.
</event>
<event>
 7    1  0.2648915E-009  0.1429247E+03  0.7561462E-02  0.1209447E+00
         -2   -1    0    0    0  501 -0.00000000000E+00  0.00000000000E+00  0.19217595962E+03  0.19217595962E+03  0.00000000000E+00 0.  1.
          2   -1    0    0  501    0  0.00000000000E+00 -0.00000000000E+00 -0.13138736723E+03  0.13138736723E+03  0.00000000000E+00 0. -1.
         25    2    1    2    0    0 -0.11372947397E+03 -0.84645134336E+01  0.18877560409E+02  0.17032346942E+03  0.12509068994E+03 0.  0.
          5    1    3    3  502    0 -0.54655257106E+02 -0.50687801865E+02  0.51409422270E+02  0.90646850389E+02  0.41800000000E+01 0.  1.
         -5    1    3    3    0  502 -0.59074216863E+02  0.42223288431E+02 -0.32531861861E+02  0.79676619030E+02  0.41800000000E+01 0.  1.
        -11    1    1    2    0    0  0.76168373069E+02  0.42970392858E+02  0.36246675275E+00  0.87454028497E+02  0.00000000000E+00 0. -1.
         11    1    1    2    0    0  0.37561100901E+02 -0.34505879424E+02  0.41548565234E+02  0.65785828935E+02  0.00000000000E+00 0.  1.
</event>
<event>
 7    1  0.2648915E-009  0.1788663E+03  0.7561462E-02  0.1168905E+00
          1   -1    0    0  501    0  0.00000000000E+00  0.00000000000E+00  0.10676098468E+03  0.10676098468E+03  0.00000000000E+00 0. -1.
         -1   -1    0    0    0  501 -0.00000000000E+00 -0.00000000000E+00 -0.38441438247E+03  0.38441438247E+03  0.00000000000E+00 0.  1.
         25    2    1    2    0    0 -0.21281587710E+02 -0.14767147746E+03 -0.42463973902E+02  0.19927409559E+03  0.12508878791E+03 0.  0.
          5    1    3    3  502    0 -0.66000737070E+02 -0.96085035550E+02 -0.56250987371E+02  0.12949933332E+03  0.41800000000E+01 0. -1.
         -5    1    3    3    0  502  0.44719149360E+02 -0.51586441914E+02  0.13787013469E+02  0.69774762265E+02  0.41800000000E+01 0. -1.
        -11    1    1    2    0    0  0.53983821628E+02  0.11178415857E+03 -0.16255841290E+03  0.20453652171E+03  0.00000000000E+00 0. -1.
         11    1    1    2    0    0 -0.32702233917E+02  0.35887318889E+02 -0.72631010983E+02  0.87364749851E+02  0.00000000000E+00 0.  1.
</event>
<event>
 7    1  0.2648915E-009  0.8706757E+02  0.7561462E-02  0.1310112E+00
         -2   -1    0    0    0  501 -0.00000000000E+00  0.00000000000E+00  0.52309564626E+03  0.52309564626E+03  0.00000000000E+00 0.  1.
          2   -1    0    0  501    0  0.00000000000E+00 -0.00000000000E+00 -0.28145742200E+02  0.28145742200E+02  0.00000000000E+00 0. -1.
         25    2    1    2    0    0 -0.10328769493E+02  0.43522525050E+02  0.22234138047E+03  0.25900551969E+03  0.12508907266E+03 0.  0.
          5    1    3    3  502    0  0.77937167577E+00  0.67017154283E+02  0.47645090305E+02  0.82337314861E+02  0.41800000000E+01 0.  1.
         -5    1    3    3    0  502 -0.11108141169E+02 -0.23494629232E+02  0.17469629016E+03  0.17666820483E+03  0.41800000000E+01 0.  1.
        -11    1    1    2    0    0 -0.16251600505E+02 -0.50607199660E+02  0.25282610386E+03  0.25835294071E+03  0.00000000000E+00 0.  1.
         11    1    1    2    0    0  0.26580369998E+02  0.70846746103E+01  0.19782419734E+02  0.33882928063E+02  0.00000000000E+00 0. -1.
</event>
<event>
 7    1  0.2648915E-009  0.8784368E+02  0.7561462E-02  0.1308159E+00
         -2   -1    0    0    0  501 -0.00000000000E+00  0.00000000000E+00  0.42236946057E+02  0.42236946057E+02  0.00000000000E+00 0.  1.
          2   -1    0    0  501    0  0.00000000000E+00 -0.00000000000E+00 -0.41245285033E+03  0.41245285033E+03  0.00000000000E+00 0. -1.
         25    2    1    2    0    0 -0.28628147805E+02 -0.67242247847E+02 -0.22959989118E+03  0.27148665625E+03  0.12509118175E+03 0.  0.
          5    1    3    3  502    0 -0.97419087261E+01  0.12657728039E+02  0.92222796837E+01  0.18911523136E+02  0.41800000000E+01 0.  1.
         -5    1    3    3    0  502 -0.18886239079E+02 -0.79899975886E+02 -0.23882217086E+03  0.25257513311E+03  0.41800000000E+01 0.  1.
        -11    1    1    2    0    0  0.12285848918E+02  0.55504681008E+02 -0.19007906865E+02  0.59941740221E+02  0.00000000000E+00 0.  1.
         11    1    1    2    0    0  0.16342298887E+02  0.11737566839E+02 -0.12160810623E+03  0.12326139992E+03  0.00000000000E+00 0. -1.
</event>
<event>
 7    1  0.2648915E-009  0.1372291E+03  0.7561462E-02  0.1217107E+00
         -2   -1    0    0    0  501 -0.00000000000E+00  0.00000000000E+00  0.31156883012E+02  0.31156883012E+02  0.00000000000E+00 0. -1.
          2   -1    0    0  501    0  0.00000000000E+00 -0.00000000000E+00 -0.94819249379E+03  0.94819249379E+03  0.00000000000E+00 0.  1.
         25    2    1    2    0    0  0.10925960976E+03  0.52806829138E+02 -0.63314688573E+03  0.65669613037E+03  0.12509438521E+03 0.  0.
          5    1    3    3  502    0  0.47941578535E+02  0.14884329513E+01 -0.49255844413E+03  0.49490595437E+03  0.41800000000E+01 0. -1.
         -5    1    3    3    0  502  0.61318031223E+02  0.51318396187E+02 -0.14058844159E+03  0.16179017600E+03  0.41800000000E+01 0. -1.
        -11    1    1    2    0    0 -0.51369330066E+02  0.18317418474E+02 -0.62073721619E+02  0.82628583472E+02  0.00000000000E+00 0.  1.
         11    1    1    2    0    0 -0.57890279691E+02 -0.71124247612E+02 -0.22181500343E+03  0.24002466296E+03  0.00000000000E+00 0. -1.
</event>
<event>
 7    1  0.2648915E-009  0.1643433E+03  0.7561462E-02  0.1183879E+00
         -1   -1    0    0    0  501 -0.00000000000E+00  0.00000000000E+00  0.39398129146E+02  0.39398129146E+02  0.00000000000E+00 0.  1.
          1   -1    0    0  501    0  0.00000000000E+00 -0.00000000000E+00 -0.71090210668E+03  0.71090210668E+03  0.00000000000E+00 0. -1.
         25    2    1    2    0    0  0.63500528824E+02 -0.10683679583E+03 -0.30816580792E+03  0.35504943353E+03  0.12509003547E+03 0.  0.
          5    1    3    3  502    0  0.98862334603E+02 -0.96580931264E+02 -0.25753725454E+03  0.29230899296E+03  0.41800000000E+01 0.  1.
         -5    1    3    3    0  502 -0.35361805779E+02 -0.10255864566E+02 -0.50628553383E+02  0.62740440575E+02  0.41800000000E+01 0.  1.
        -11    1    1    2    0    0  0.22991440035E+02  0.16547641885E+02 -0.44247205247E+02  0.52538042779E+02  0.00000000000E+00 0.  1.
         11    1    1    2    0    0 -0.86491968859E+02  0.90289153944E+02 -0.31909096437E+03  0.34271275952E+03  0.00000000000E+00 0. -1.
</event>
<event>
 7    1  0.2648915E-009  0.1502957E+03  0.7561462E-02  0.1200110E+00
         -1   -1    0    0    0  501 -0.00000000000E+00  0.00000000000E+00  0.88071489094E+02  0.88071489094E+02  0.00000000000E+00 0.  1.
          1   -1    0    0  501    0  0.00000000000E+00 -0.00000000000E+00 -0.40788973924E+03  0.40788973924E+03  0.00000000000E+00 0. -1.
         25    2    1    2    0    0 -0.15607845747E+02 -0.14689666826E+03 -0.10526594446E+03  0.22033476037E+03  0.12507698258E+03 0.  0.
          5    1    3    3  502    0 -0.14520073092E+02 -0.11321921079E+03 -0.48412199205E+01  0.11432555280E+03  0.41800000000E+01 0.  1.
         -5    1    3    3    0  502 -0.10877726550E+01 -0.33677457469E+02 -0.10042472454E+03  0.10600920757E+03  0.41800000000E+01 0.  1.
        -11    1    1    2    0    0  0.26402520794E+02  0.12761393043E+03 -0.21727668632E+03  0.25336054697E+03  0.00000000000E+00 0. -1.
         11    1    1    2    0    0 -0.10794675047E+02  0.19282737826E+02  0.27243806347E+01  0.22265920985E+02  0.00000000000E+00 0.  1.
</event>
<event>
 7    1  0.3557196E-009  0.9251432E+02  0.7561462E-02  0.1296875E+00
          2   -1    0    0  501    0  0.00000000000E+00  0.00000000000E+00  0.72215561358E+03  0.72215561358E+03  0.00000000000E+00 0. -1.
         -2   -1    0    0    0  501 -0.00000000000E+00 -0.00000000000E+00 -0.19751541780E+02  0.19751541780E+02  0.00000000000E+00 0.  1.
         25    2    1    2    0    0  0.32829161037E+02 -0.21825262351E+02  0.49288706460E+03  0.51003821282E+03  0.12508886518E+03 0.  0.
          5    1    3    3  502    0  0.26126241935E+02 -0.66835041093E+02  0.40126205038E+03  0.40764961512E+03  0.41800000000E+01 0. -1.
         -5    1    3    3    0  502  0.67029191023E+01  0.45009778742E+02  0.91625014220E+02  0.10238859769E+03  0.41800000000E+01 0. -1.
        -11    1    1    2    0    0  0.95692427083E+01 -0.10445944363E+02 -0.14843258167E+01  0.14243994621E+02  0.00000000000E+00 0.  1.
         11    1    1    2    0    0 -0.42398403745E+02  0.32271206714E+02  0.21100133302E+03  0.21762494792E+03  0.00000000000E+00 0. -1.
</event>
<event>
 7    1  0.2648915E-009  0.1095523E+03  0.7561462E-02  0.1261401E+00
         -2   -1    0    0    0  501 -0.00000000000E+00  0.00000000000E+00  0.93490839380E+02  0.93490839380E+02  0.00000000000E+00 0.  1.
          2   -1    0    0  501    0  0.00000000000E+00 -0.00000000000E+00 -0.16300792781E+03  0.16300792781E+03  0.00000000000E+00 0. -1.
         25    2    1    2    0    0 -0.23158342374E+01 -0.33072965451E+02 -0.89349738459E+02  0.15725615974E+03  0.12508772874E+03 0.  0.
          5    1    3    3  502    0 -0.44637720698E+02 -0.58701136562E+02 -0.29614466770E+02  0.79579134104E+02  0.41800000000E+01 0.  1.
         -5    1    3    3    0  502  0.42321886460E+02  0.25628171110E+02 -0.59735271689E+02  0.77677025637E+02  0.41800000000E+01 0.  1.
        -11    1    1    2    0    0  0.36135299492E+02  0.46767444813E+02  0.33236150360E+01  0.59194595873E+02  0.00000000000E+00 0.  1.
         11    1    1    2    0    0 -0.33819465254E+02 -0.13694479361E+02  0.16509034990E+02  0.40048011578E+02  0.00000000000E+00 0. -1.
</event>
<event>
 7    1  0.2648915E-009  0.1995321E+03  0.7561462E-02  0.1150134E+00
          1   -1    0    0  501    0  0.00000000000E+00  0.00000000000E+00  0.50631192411E+03  0.50631192411E+03  0.00000000000E+00 0. -1.
         -1   -1    0    0    0  501 -0.00000000000E+00 -0.00000000000E+00 -0.94871639090E+02  0.94871639090E+02  0.00000000000E+00 0.  1.
         25    2    1    2    0    0 -0.58677446553E+02 -0.17346579469E+03  0.14473650400E+03  0.26482097965E+03  0.12509225001E+03 0.  0.
          5    1    3    3  502    0  0.86036817755E+01 -0.14063841509E+03  0.64547729197E+02  0.15503892699E+03  0.41800000000E+01 0. -1.
         -5    1    3    3    0  502 -0.67281128328E+02 -0.32827379597E+02  0.80188774808E+02  0.10978205266E+03  0.41800000000E+01 0. -1.
        -11    1    1    2    0    0  0.14976426362E+02  0.43726742926E+02  0.14838487291E+03  0.15541683275E+03  0.00000000000E+00 0. -1.
         11    1    1    2    0    0  0.43701020191E+02  0.12973905176E+03  0.11831890811E+03  0.18094575080E+03  0.00000000000E+00 0.  1.
</event>
<event>
 7    1  0.2648915E-009  0.1229514E+03  0.7561462E-02  0.1238306E+00
         -1   -1    0    0    0  501 -0.00000000000E+00  0.00000000000E+00  0.42883545134E+03  0.42883545134E+03  0.00000000000E+00 0.  1.
          1   -1    0    0  501    0  0.00000000000E+00 -0.00000000000E+00 -0.42575997367E+02  0.42575997367E+02  0.00000000000E+00 0. -1.
         25    2    1    2    0    0 -0.24423954758E+02 -0.63813688757E+02  0.25016934450E+03  0.28792494135E+03  0.12508938597E+03 0.  0.
          5    1    3    3  502    0 -0.49077650459E+02  0.70811347633E+01  0.37352799634E+02  0.62221075888E+02  0.41800000000E+01 0.  1.
         -5    1    3    3    0  502  0.24653695701E+02 -0.70894823521E+02  0.21281654487E+03  0.22570386546E+03  0.41800000000E+01 0.  1.
        -11    1    1    2    0    0  0.18294611836E+02 -0.25532090929E+02  0.21550687653E+02  0.38092159662E+02  0.00000000000E+00 0. -1.
         11    1    1    2    0    0  0.61293429222E+01  0.89345779686E+02  0.11453942182E+03  0.14539434770E+03  0.00000000000E+00 0.  1.
</event>
<event>
 7    1  0.2648915E-009  0.6026194E+02  0.7561462E-02  0.1396736E+00
         -3   -1    0    0    0  501 -0.00000000000E+00  0.00000000000E+00  0.36219780789E+03  0.36219780789E+03  0.00000000000E+00 0.  1.
          3   -1    0    0  501    0  0.00000000000E+00 -0.00000000000E+00 -0.32656692447E+02  0.32656692447E+02  0.00000000000E+00 0. -1.
         25    2    1    2    0    0 -0.12105808484E+01  0.17928985492E+02  0.21525797407E+03  0.24961170435E+03  0.12508834286E+03 0.  0.
          5    1    3    3  502    0 -0.19883877574E+02  0.20182840686E+02  0.22582692606E+03  0.22763564875E+03  0.41800000000E+01 0.  1.
         -5    1    3    3    0  502  0.18673296726E+02 -0.22538551938E+01 -0.10568951989E+02  0.21976055606E+02  0.41800000000E+01 0.  1.
        -11    1    1    2    0    0 -0.34434492409E+02 -0.55208035117E+01  0.98213176754E+02  0.10422111891E+03  0.00000000000E+00 0.  1.
         11    1    1    2    0    0  0.35645073257E+02 -0.12408181981E+02  0.16069964622E+02  0.41021677081E+02  0.00000000000E+00 0. -1.
</event>
<event>
 7    1  0.2648915E-009  0.1175706E+03  0.7561462E-02  0.1247159E+00
          1   -1    0    0  501    0  0.00000000000E+00  0.00000000000E+00  0.24796275285E+03  0.24796275285E+03  0.00000000000E+00 0. -1.
         -1   -1    0    0    0  501 -0.00000000000E+00 -0.00000000000E+00 -0.84673836011E+02  0.84673836011E+02  0.00000000000E+00 0.  1.
         25    2    1    2    0    0  0.26120801868E+02  0.92681387364E+02  0.97042267325E+02  0.18530055896E+03  0.12508780776E+03 0.  0.
          5    1    3    3  502    0 -0.11140178556E+02  0.17458214711E+02  0.98998634034E+02  0.10122793478E+03  0.41800000000E+01 0. -1.
         -5    1    3    3    0  502  0.37260980424E+02  0.75223172653E+02 -0.19563667095E+01  0.84072624182E+02  0.41800000000E+01 0. -1.
        -11    1    1    2    0    0  0.24819158499E+02 -0.69874566991E+02  0.26205125981E+02  0.78645752387E+02  0.00000000000E+00 0. -1.
         11    1    1    2    0    0 -0.50939960368E+02 -0.22806820373E+02  0.40041523534E+02  0.68690277513E+02  0.00000000000E+00 0.  1.
</event>
<event>
 7    1  0.2648915E-009  0.1013627E+03  0.7561462E-02  0.1277456E+00
          2   -1    0    0  501    0  0.00000000000E+00  0.00000000000E+00  0.56009988285E+03  0.56009988285E+03  0.00000000000E+00 0. -1.
         -2   -1    0    0    0  501 -0.00000000000E+00 -0.00000000000E+00 -0.34096929083E+02  0.34096929083E+02  0.00000000000E+00 0.  1.
         25    2    1    2    0    0  0.65783360779E+02  0.11588570461E+02  0.40593266100E+03  0.42998931910E+03  0.12509094194E+03 0.  0.
          5    1    3    3  502    0 -0.12716045659E+02 -0.91213550081E+01  0.20641451123E+00  0.16199133969E+02  0.41800000000E+01 0. -1.
         -5    1    3    3    0  502  0.78499406438E+02  0.20709925469E+02  0.40572624649E+03  0.41379018513E+03  0.41800000000E+01 0. -1.
        -11    1    1    2    0    0 -0.35446179776E+02 -0.46831206303E+02  0.94156049717E+02  0.11097276802E+03  0.00000000000E+00 0.  1.
         11    1    1    2    0    0 -0.30337181003E+02  0.35242635842E+02  0.25914243049E+02  0.53234724806E+02  0.00000000000E+00 0. -1.
</event>
<event>
 7    1  0.2648915E-009  0.1362675E+03  0.7561462E-02  0.1218441E+00
          1   -1    0    0  501    0  0.00000000000E+00  0.00000000000E+00  0.37456089643E+03  0.37456089643E+03  0.00000000000E+00 0. -1.
         -1   -1    0    0    0  501 -0.00000000000E+00 -0.00000000000E+00 -0.57155372001E+02  0.57155372001E+02  0.00000000000E+00 0.  1.
         25    2    1    2    0    0  0.55010583073E+02 -0.68200500852E+02  0.23568484584E+03  0.28084108140E+03  0.12508754485E+03 0.  0.
          5    1    3    3  502    0  0.13870099194E+02  0.34458524486E+02  0.93243946561E+02  0.10045733190E+03  0.41800000000E+01 0.  1.
         -5    1    3    3    0  502  0.41140483879E+02 -0.10265902534E+03  0.14244089928E+03  0.18038374950E+03  0.41800000000E+01 0.  1.
        -11    1    1    2    0    0 -0.78528587025E+02  0.41221984044E+02  0.44461202770E+02  0.99210833584E+02  0.00000000000E+00 0.  1.
         11    1    1    2    0    0  0.23518003952E+02  0.26978516807E+02  0.37259475822E+02  0.51664353451E+02  0.00000000000E+00 0. -1.
</event>
<event>
 7    1  0.2648915E-009  0.2299131E+03  0.7561462E-02  0.1126701E+00
         -2   -1    0    0    0  501 -0.00000000000E+00  0.00000000000E+00  0.78577626320E+03  0.78577626320E+03  0.00000000000E+00 0.  1.
          2   -1    0    0  501    0  0.00000000000E+00 -0.00000000000E+00 -0.97187776594E+02  0.97187776594E+02  0.00000000000E+00 0. -1.
         25    2    1    2    0    0 -0.19494902918E+03  0.88421725574E+02  0.57146721151E+03  0.62293298083E+03  0.12508876545E+03 0.  0.
          5    1    3    3  502    0 -0.18840834820E+03  0.56393615273E+02  0.54865324790E+03  0.58285144277E+03  0.41800000000E+01 0.  1.
         -5    1    3    3    0  502 -0.65406809812E+01  0.32028110302E+02  0.22813963611E+02  0.40081538055E+02  0.41800000000E+01 0.  1.
        -11    1    1    2    0    0  0.92497976873E+01 -0.36048064791E+02  0.32253418752E+02  0.49247383216E+02  0.00000000000E+00 0.  1.
         11    1    1    2    0    0  0.18569923149E+03 -0.52373660783E+02  0.84867856339E+02  0.21078367574E+03  0.00000000000E+00 0. -1.
</event>
<event>
 7    1  0.2648915E-009  0.2586449E+03  0.7561462E-02  0.1107960E+00
          4   -1    0    0  501    0  0.00000000000E+00  0.00000000000E+00  0.68944017178E+02  0.68944017178E+02  0.00000000000E+00 0.  1.
         -4   -1    0    0    0  501 -0.00000000000E+00 -0.00000000000E+00 -0.10993297447E+04  0.10993297447E+04  0.00000000000E+00 0. -1.
         25    2    1    2    0    0 -0.23226070803E+03  0.81760928516E+02 -0.64882653627E+03  0.70516247401E+03  0.12509338379E+03 0.  0.
          5    1    3    3  502    0 -0.19115578413E+03  0.14696519746E+02 -0.38968504554E+03  0.43431374445E+03  0.41800000000E+01 0. -1.
         -5    1    3    3    0  502 -0.41104923902E+02  0.67064408770E+02 -0.25914149073E+03  0.27084872957E+03  0.41800000000E+01 0. -1.
        -11    1    1    2    0    0  0.10635593401E+03 -0.28977818113E+02 -0.25131384764E+03  0.27442658155E+03  0.00000000000E+00 0. -1.
         11    1    1    2    0    0  0.12590477402E+03 -0.52783110403E+02 -0.13024534360E+03  0.18868470630E+03  0.00000000000E+00 0.  1.
</event>
<event>
 7    1  0.2648915E-009  0.2586323E+03  0.7561462E-02  0.1107968E+00
          2   -1    0    0  501    0  0.00000000000E+00  0.00000000000E+00  0.88080099021E+02  0.88080099021E+02  0.00000000000E+00 0. -1.
         -2   -1    0    0    0  501 -0.00000000000E+00 -0.00000000000E+00 -0.12730471218E+04  0.12730471218E+04  0.00000000000E+00 0.  1.
         25    2    1    2    0    0  0.10382651375E+03  0.21223900584E+03 -0.17441242613E+03  0.31920721788E+03  0.12509281752E+03 0.  0.
          5    1    3    3  502    0 -0.11639199210E+02  0.10704408818E+03 -0.96292944504E+02  0.14451197644E+03  0.41800000000E+01 0. -1.
         -5    1    3    3    0  502  0.11546571296E+03  0.10519491766E+03 -0.78119481631E+02  0.17469524144E+03  0.41800000000E+01 0. -1.
        -11    1    1    2    0    0 -0.11699048587E+03 -0.15318540860E+03 -0.74102242416E+03  0.76568059679E+03  0.00000000000E+00 0.  1.
         11    1    1    2    0    0  0.13163972119E+02 -0.59053597242E+02 -0.26953217251E+03  0.27623940618E+03  0.00000000000E+00 0. -1.
</event>
<event>
 7    1  0.2648915E-009  0.1228304E+03  0.7561462E-02  0.1238499E+00
          3   -1    0    0  501    0  0.00000000000E+00  0.00000000000E+00  0.52416109390E+02  0.52416109390E+02  0.00000000000E+00 0. -1.
         -3   -1    0    0    0  501 -0.00000000000E+00 -0.00000000000E+00 -0.33453129353E+03  0.33453129353E+03  0.00000000000E+00 0.  1.
         25    2    1    2    0    0 -0.46015106815E+02  0.51644733768E+02 -0.10801619759E+03  0.17916301437E+03  0.12508924092E+03 0.  0.
          5    1    3    3  502    0 -0.67882459137E+02  0.74668133897E+02 -0.10697274172E+03  0.14711899384E+03  0.41800000000E+01 0.  1.
         -5    1    3    3    0  502  0.21867352322E+02 -0.23023400129E+02 -0.10434558678E+01  0.32044020522E+02  0.41800000000E+01 0.  1.
        -11    1    1    2    0    0  0.61044585478E+02 -0.23392164671E+01 -0.82169596933E+02  0.10239021443E+03  0.00000000000E+00 0.  1.
         11    1    1    2    0    0 -0.15029478663E+02 -0.49305517301E+02 -0.91929389621E+02  0.10539417413E+03  0.00000000000E+00 0. -1.
</event>
<event>
 7    1  0.2648915E-009  0.1441489E+03  0.7561462E-02  0.1207853E+00
          4   -1    0    0  501    0  0.00000000000E+00  0.00000000000E+00  0.68744758820E+02  0.68744758820E+02  0.00000000000E+00 0. -1.
         -4   -1    0    0    0  501 -0.00000000000E+00 -0.00000000000E+00 -0.45346323455E+03  0.45346323455E+03  0.00000000000E+00 0.  1.
         25    2    1    2    0    0 -0.71481710828E+02 -0.10239801678E+03 -0.12145753429E+03  0.21446247505E+03  0.12508889536E+03 0.  0.
          5    1    3    3  502    0 -0.88130757900E+02 -0.54008135573E+02 -0.12587419964E+03  0.16292849883E+03  0.41800000000E+01 0.  1.
         -5    1    3    3    0  502  0.16649047073E+02 -0.48389881211E+02  0.44166653458E+01  0.51533976218E+02  0.41800000000E+01 0.  1.
        -11    1    1    2    0    0  0.65005952971E+02  0.53526632385E+02 -0.73781806365E+02  0.11195815846E+03  0.00000000000E+00 0. -1.
         11    1    1    2    0    0  0.64757578562E+01  0.48871384399E+02 -0.18947913507E+03  0.19578735986E+03  0.00000000000E+00 0.  1.
</event>
<event>
 7    1  0.2648915E-009  0.1342556E+03  0.7561462E-02  0.1221274E+00
         -1   -1    0    0    0  501 -0.00000000000E+00  0.00000000000E+00  0.27895357883E+03  0.27895357883E+03  0.00000000000E+00 0.  1.
          1   -1    0    0  501    0  0.00000000000E+00 -0.00000000000E+00 -0.11425740393E+03  0.11425740393E+03  0.00000000000E+00 0. -1.
         25    2    1    2    0    0 -0.11121338084E+03 -0.36584477902E+02  0.17418232417E+03  0.24432262658E+03  0.12508886324E+03 0.  0.
          5    1    3    3  502    0 -0.38441942477E+02 -0.34531613232E+00 -0.12519679745E+02  0.40646241715E+02  0.41800000000E+01 0. -1.
         -5    1    3    3    0  502 -0.72771438359E+02 -0.36239161770E+02  0.18670200391E+03  0.20367638486E+03  0.41800000000E+01 0. -1.
        -11    1    1    2    0    0  0.96967850096E+02 -0.12093036778E+02 -0.30942627939E+01  0.97767990432E+02  0.00000000000E+00 0.  1.
         11    1    1    2    0    0  0.14245530740E+02  0.48677514681E+02 -0.63918864668E+01  0.51120365747E+02  0.00000000000E+00 0. -1.
</event>
<event>
 7    1  0.2648915E-009  0.1088356E+03  0.7561462E-02  0.1262741E+00
         -1   -1    0    0    0  501 -0.00000000000E+00  0.00000000000E+00  0.21661631456E+02  0.21661631456E+02  0.00000000000E+00 0.  1.
          1   -1    0    0  501    0  0.00000000000E+00 -0.00000000000E+00 -0.62399874149E+03  0.62399874149E+03  0.00000000000E+00 0. -1.
         25    2    1    2    0    0  0.37757916478E+02  0.36056025922E+01 -0.38881022331E+03  0.41019320736E+03  0.12508563862E+03 0.  0.
          5    1    3    3  502    0  0.80195808808E+02 -0.94076013397E+01 -0.19077901839E+03  0.20720515672E+03  0.41800000000E+01 0.  1.
         -5    1    3    3    0  502 -0.42437892330E+02  0.13013203932E+02 -0.19803120492E+03  0.20298805064E+03  0.41800000000E+01 0.  1.
        -11    1    1    2    0    0  0.26794646954E+02 -0.66532795307E+01 -0.29410260648E+02  0.40338352288E+02  0.00000000000E+00 0.  1.
         11    1    1    2    0    0 -0.64552563432E+02  0.30476769385E+01 -0.18411662608E+03  0.19512881330E+03  0.00000000000E+00 0. -1.
</event>
<event>
 7    1  0.2648915E-009  0.8941259E+02  0.7561462E-02  0.1304280E+00
         -1   -1    0    0    0  501 -0.00000000000E+00  0.00000000000E+00  0.28244925781E+03  0.28244925781E+03  0.00000000000E+00 0.  1.
          1   -1    0    0  501    0  0.00000000000E+00 -0.00000000000E+00 -0.50612859913E+02  0.50612859913E+02  0.00000000000E+00 0. -1.
         25    2    1    2    0    0 -0.36410643331E+02  0.89385728879E+01  0.19232759737E+03  0.23247216914E+03  0.12509105356E+03 0.  0.
          5    1    3    3  502    0 -0.50933865945E+02  0.32788722192E+02  0.30034847909E+02  0.67741593516E+02  0.41800000000E+01 0.  1.
         -5    1    3    3    0  502  0.14523222614E+02 -0.23850149305E+02  0.16229274946E+03  0.16473057562E+03  0.41800000000E+01 0.  1.
        -11    1    1    2    0    0  0.28316289617E+02 -0.44859598118E+02  0.34855892672E+02  0.63475420872E+02  0.00000000000E+00 0.  1.
         11    1    1    2    0    0  0.80943537144E+01  0.35921025230E+02  0.46529078506E+01  0.37114527709E+02  0.00000000000E+00 0. -1.
</event>
<event>
 7    1  0.2648915E-009  0.1065821E+03  0.7561462E-02  0.1267034E+00
         -1   -1    0    0    0  501 -0.00000000000E+00  0.00000000000E+00  0.19175754916E+02  0.19175754916E+02  0.00000000000E+00 0.  1.
          1   -1    0    0  501    0  0.00000000000E+00 -0.00000000000E+00 -0.77045020576E+03  0.77045020576E+03  0.00000000000E+00 0. -1.
         25    2    1    2    0    0 -0.22485496409E+02  0.50884288328E+02 -0.38824088527E+03  0.41167181506E+03  0.12509152638E+03 0.  0.
          5    1    3    3  502    0 -0.24504708144E+02 -0.38255003804E+02 -0.99755020801E+02  0.10969258230E+03  0.41800000000E+01 0. -1.
         -5    1    3    3    0  502  0.20192117348E+01  0.89139292131E+02 -0.28848586447E+03  0.30197923275E+03  0.41800000000E+01 0. -1.
        -11    1    1    2    0    0  0.22318053234E+01  0.12005400159E+02 -0.39371492991E+01  0.12830110388E+02  0.00000000000E+00 0.  1.
         11    1    1    2    0    0  0.20253691085E+02 -0.62889688486E+02 -0.35909641627E+03  0.36512403523E+03  0.00000000000E+00 0. -1.
</event>
<event>
 7    1  0.2648915E-009  0.9250066E+02  0.7561462E-02  0.1296907E+00
         -2   -1    0    0    0  501 -0.00000000000E+00  0.00000000000E+00  0.78026425903E+02  0.78026425903E+02  0.00000000000E+00 0. -1.
          2   -1    0    0  501    0  0.00000000000E+00 -0.00000000000E+00 -0.21508411134E+03  0.21508411134E+03  0.00000000000E+00 0.  1.
         25    2    1    2    0    0  0.54825258414E+02 -0.24149970613E+02 -0.31757032300E+02  0.14228356732E+03  0.12508826639E+03 0.  0.
          5    1    3    3  502    0  0.41598468927E+01  0.41471450322E+02  0.17902117848E+02  0.45553745635E+02  0.41800000000E+01 0. -1.
         -5    1    3    3    0  502  0.50665411522E+02 -0.65621420935E+02 -0.49659150147E+02  0.96729821686E+02  0.41800000000E+01 0. -1.
        -11    1    1    2    0    0 -0.26273278400E+02  0.89421202995E+01 -0.11399875818E+03  0.11732844301E+03  0.00000000000E+00 0.  1.
         11    1    1    2    0    0 -0.28551980014E+02  0.15207850314E+02  0.86981050408E+01  0.33498526911E+02  0.00000000000E+00 0. -1.
</event>
<event>
 7    1  0.2648915E-009  0.8991954E+02  0.7561462E-02  0.1303047E+00
         -2   -1    0    0    0  501 -0.00000000000E+00  0.00000000000E+00  0.28276373765E+03  0.28276373765E+03  0.00000000000E+00 0. -1.
          2   -1    0    0  501    0  0.00000000000E+00 -0.00000000000E+00 -0.58654803507E+02  0.58654803507E+02  0.00000000000E+00 0.  1.
         25    2    1    2    0    0 -0.14139008331E+01 -0.16255433096E+02  0.21397782708E+03  0.24839777338E+03  0.12509478453E+03 0.  0.
          5    1    3    3  502    0 -0.10212605848E+02 -0.53824849448E+02  0.34739550239E+02  0.65005541972E+02  0.41800000000E+01 0. -1.
         -5    1    3    3    0  502  0.87987050149E+01  0.37569416352E+02  0.17923827684E+03  0.18339223141E+03  0.41800000000E+01 0. -1.
        -11    1    1    2    0    0  0.42105910908E+02 -0.41670934441E+00 -0.12008774505E+02  0.43786893532E+02  0.00000000000E+00 0.  1.
         11    1    1    2    0    0 -0.40692010075E+02  0.16672142440E+02  0.22139881565E+02  0.49233874245E+02  0.00000000000E+00 0. -1.
</event>
<event>
 7    1  0.2648915E-009  0.1475748E+03  0.7561462E-02  0.1203485E+00
         -3   -1    0    0    0  501 -0.00000000000E+00  0.00000000000E+00  0.31290343190E+03  0.31290343190E+03  0.00000000000E+00 0.  1.
          3   -1    0    0  501    0  0.00000000000E+00 -0.00000000000E+00 -0.98145669320E+02  0.98145669320E+02  0.00000000000E+00 0. -1.
         25    2    1    2    0    0 -0.31753459796E+02  0.12783633906E+03  0.15520865997E+03  0.23892960791E+03  0.12508883887E+03 0.  0.
          5    1    3    3  502    0 -0.39217514164E+02  0.79323885457E+02  0.14396873768E+02  0.89749844543E+02  0.41800000000E+01 0. -1.
         -5    1    3    3    0  502  0.74640543676E+01  0.48512453606E+02  0.14081178621E+03  0.14917976336E+03  0.41800000000E+01 0. -1.
        -11    1    1    2    0    0 -0.48174494599E+01 -0.11974984429E+03  0.27822457668E+02  0.12303382534E+03  0.00000000000E+00 0.  1.
         11    1    1    2    0    0  0.36570909256E+02 -0.80864947712E+01  0.31726644939E+02  0.49085667976E+02  0.00000000000E+00 0. -1.
</event>
<event>
 7    1  0.2648915E-009  0.1116326E+03  0.7561462E-02  0.1257576E+00
          1   -1    0    0  501    0  0.00000000000E+00  0.00000000000E+00  0.41889192654E+03  0.41889192654E+03  0.00000000000E+00 0. -1.
         -1   -1    0    0    0  501 -0.00000000000E+00 -0.00000000000E+00 -0.47885168195E+02  0.47885168195E+02  0.00000000000E+00 0.  1.
         25    2    1    2    0    0 -0.36241711008E+01 -0.89505220526E+02  0.17062117423E+03  0.22974187276E+03  0.12508166887E+03 0.  0.
          5    1    3    3  502    0  0.16536816607E+02 -0.47170473557E+02  0.17539295224E+03  0.18242445005E+03  0.41800000000E+01 0. -1.
         -5    1    3    3    0  502 -0.20160987708E+02 -0.42334746969E+02 -0.47717780179E+01  0.47317422708E+02  0.41800000000E+01 0. -1.
        -11    1    1    2    0    0  0.29289757245E+02 -0.35458109510E+01  0.37743410191E+02  0.47906447036E+02  0.00000000000E+00 0.  1.
         11    1    1    2    0    0 -0.25665586144E+02  0.93051031477E+02  0.16264217393E+03  0.18912877494E+03  0.00000000000E+00 0. -1.
</event>
<event>
 7    1  0.2648915E-009  0.8535693E+02  0.7561462E-02  0.1314502E+00
          2   -1    0    0  501    0  0.00000000000E+00  0.00000000000E+00  0.23631121187E+03  0.23631121187E+03  0.00000000000E+00 0. -1.
         -2   -1    0    0    0  501 -0.00000000000E+00 -0.00000000000E+00 -0.52967433982E+02  0.52967433982E+02  0.00000000000E+00 0.  1.
         25    2    1    2    0    0  0.25153989913E+02 -0.86938476454E+01  0.11254901194E+03  0.17036345806E+03  0.12509245205E+03 0.  0.
          5    1    3    3  502    0 -0.22859109652E+02 -0.15803506545E+02  0.11803951711E+03  0.12133873954E+03  0.41800000000E+01 0. -1.
         -5    1    3    3    0  502  0.48013099565E+02  0.71096589000E+01 -0.54905051698E+01  0.49024718525E+02  0.41800000000E+01 0. -1.
        -11    1    1    2    0    0 -0.19232404903E+02 -0.40242222353E+02  0.44680043388E+02  0.63131831397E+02  0.00000000000E+00 0.  1.
         11    1    1    2    0    0 -0.59215850093E+01  0.48936069999E+02  0.26114722558E+02  0.55783356391E+02  0.00000000000E+00 0. -1.
</event>
<event>
 7    1  0.2648915E-009  0.1190643E+03  0.7561462E-02  0.1244649E+00
         -1   -1    0    0    0  501 -0.00000000000E+00  0.00000000000E+00  0.34058270338E+02  0.34058270338E+02  0.00000000000E+00 0.  1.
          1   -1    0    0  501    0  0.00000000000E+00 -0.00000000000E+00 -0.45929011965E+03  0.45929011965E+03  0.00000000000E+00 0. -1.
         25    2    1    2    0    0 -0.47918351019E+02  0.22946708936E+02 -0.17347192365E+03  0.22037103520E+03  0.12509262587E+03 0.  0.
          5    1    3    3  502    0 -0.88730538931E+02  0.33161502871E+01 -0.12978298670E+03  0.15730607563E+03  0.41800000000E+01 0.  1.
         -5    1    3    3    0  502  0.40812187912E+02  0.19630558649E+02 -0.43688936948E+02  0.63064959579E+02  0.41800000000E+01 0.  1.
        -11    1    1    2    0    0 -0.19872984038E+02  0.16054573408E+02 -0.85603163629E+02  0.89334128110E+02  0.00000000000E+00 0. -1.
         11    1    1    2    0    0  0.67791335057E+02 -0.39001282344E+02 -0.16615676203E+03  0.18364322667E+03  0.00000000000E+00 0.  1.
</event>
<event>
 7    1  0.2648915E-009  0.9846705E+02  0.7561462E-02  0.1283553E+00
         -2   -1    0    0    0  501 -0.00000000000E+00  0.00000000000E+00  0.48606024261E+02  0.48606024261E+02  0.00000000000E+00 0.  1.
          2   -1    0    0  501    0  0.00000000000E+00 -0.00000000000E+00 -0.29348776657E+03  0.29348776657E+03  0.00000000000E+00 0. -1.
         25    2    1    2    0    0 -0.13408318067E+02 -0.38248725872E+02 -0.17684321390E+03  0.22037118949E+03  0.12508873184E+03 0.  0.
          5    1    3    3  502    0  0.25529486997E+02 -0.59914095627E+02 -0.40348256082E+02  0.76726186729E+02  0.41800000000E+01 0.  1.
         -5    1    3    3    0  502 -0.38937805064E+02  0.21665369755E+02 -0.13649495782E+03  0.14364500276E+03  0.41800000000E+01 0.  1.
        -11    1    1    2    0    0 -0.12423569390E+02  0.54832019076E+02 -0.11496453795E+02  0.57385223204E+02  0.00000000000E+00 0.  1.
         11    1    1    2    0    0  0.25831887457E+02 -0.16583293204E+02 -0.56542074611E+02  0.64337378128E+02  0.00000000000E+00 0. -1.
</event>
<event>
 7    1  0.2648915E-009  0.7246757E+02  0.7561462E-02  0.1351897E+00
          2   -1    0    0  501    0  0.00000000000E+00  0.00000000000E+00  0.66230034716E+03  0.66230034716E+03  0.00000000000E+00 0. -1.
         -2   -1    0    0    0  501 -0.00000000000E+00 -0.00000000000E+00 -0.29887196231E+02  0.29887196231E+02  0.00000000000E+00 0.  1.
         25    2    1    2    0    0  0.13180746109E+02 -0.32080500705E+02  0.54844642641E+03  0.56359970575E+03  0.12509298575E+03 0.  0.
          5    1    3    3  502    0 -0.59703739191E+01 -0.26837808954E+02  0.54140934867E+03  0.54212311202E+03  0.41800000000E+01 0. -1.
         -5    1    3    3    0  502  0.19151120028E+02 -0.52426917506E+01  0.70370777386E+01  0.21476593730E+02  0.41800000000E+01 0. -1.
        -11    1    1    2    0    0 -0.47500445045E+02 -0.32086492801E+01  0.48135153396E+02  0.67702146954E+02  0.00000000000E+00 0.  1.
         11    1    1    2    0    0  0.34319698936E+02  0.35289149985E+02  0.35831571122E+02  0.60885690690E+02  0.00000000000E+00 0. -1.
</event>
<event>
 7    1  0.2648915E-009  0.1402241E+03  0.7561462E-02  0.1213028E+00
         -1   -1    0    0    0  501 -0.00000000000E+00  0.00000000000E+00  0.34038351103E+02  0.34038351103E+02  0.00000000000E+00 0.  1.
          1   -1    0    0  501    0  0.00000000000E+00 -0.00000000000E+00 -0.69916093052E+03  0.69916093052E+03  0.00000000000E+00 0. -1.
         25    2    1    2    0    0 -0.65447124906E+02 -0.77923314295E+02 -0.26235624907E+03  0.30795019229E+03  0.12508857038E+03 0.  0.
          5    1    3    3  502    0  0.37571595375E+02 -0.21461308840E+02 -0.63678593988E+02  0.77101545305E+02  0.41800000000E+01 0. -1.
         -5    1    3    3    0  502 -0.10301872028E+03 -0.56462005455E+02 -0.19867765508E+03  0.23084864699E+03  0.41800000000E+01 0. -1.
        -11    1    1    2    0    0  0.11840745584E+01  0.48898508930E+02 -0.27500101768E+03  0.27931707061E+03  0.00000000000E+00 0. -1.
         11    1    1    2    0    0  0.64263050347E+02  0.29024805365E+02 -0.12776531267E+03  0.14593201872E+03  0.00000000000E+00 0.  1.
</event>
<event>
 7    1  0.2648915E-009  0.1161389E+03  0.7561462E-02  0.1249606E+00
         -2   -1    0    0    0  501 -0.00000000000E+00  0.00000000000E+00  0.26948859139E+02  0.26948859139E+02  0.00000000000E+00 0.  1.
          2   -1    0    0  501    0  0.00000000000E+00 -0.00000000000E+00 -0.68767110553E+03  0.68767110553E+03  0.00000000000E+00 0. -1.
         25    2    1    2    0    0  0.83511919393E+02 -0.15870557329E+02 -0.43574433285E+03  0.46124264499E+03  0.12508212770E+03 0.  0.
          5    1    3    3  502    0 -0.27653916273E+02 -0.17632197073E+02 -0.16937105111E+03  0.17256783829E+03  0.41800000000E+01 0. -1.
         -5    1    3    3    0  502  0.11116583567E+03  0.17616397442E+01 -0.26637328175E+03  0.28867480670E+03  0.41800000000E+01 0. -1.
        -11    1    1    2    0    0 -0.22166631285E+02 -0.57726535534E+01 -0.42933700944E+01  0.23304851391E+02  0.00000000000E+00 0.  1.
         11    1    1    2    0    0 -0.61345288108E+02  0.21643210883E+02 -0.22068454344E+03  0.23007246829E+03  0.00000000000E+00 0. -1.
</event>
<event>
 7    1  0.2648915E-009  0.9584408E+02  0.7561462E-02  0.1289286E+00
          1   -1    0    0  501    0  0.00000000000E+00  0.00000000000E+00  0.10816481304E+04  0.10816481304E+04  0.00000000000E+00 0. -1.
         -1   -1    0    0    0  501 -0.00000000000E+00 -0.00000000000E+00 -0.22833631948E+02  0.22833631948E+02  0.00000000000E+00 0.  1.
         25    2    1    2    0    0 -0.37184872837E+02  0.48991576674E+02  0.88044134859E+03  0.89140788124E+03  0.12509257799E+03 0.  0.
          5    1    3    3  502    0 -0.45275860237E+02  0.47822786134E+02  0.19419668525E+03  0.20510179755E+03  0.41800000000E+01 0. -1.
         -5    1    3    3    0  502  0.80909874003E+01  0.11687905401E+01  0.68624466334E+03  0.68630608369E+03  0.41800000000E+01 0. -1.
        -11    1    1    2    0    0 -0.34240979805E+02 -0.17590924524E+02  0.61204121183E+02  0.72303732777E+02  0.00000000000E+00 0.  1.
         11    1    1    2    0    0  0.71425852642E+02 -0.31400652150E+02  0.11716902868E+03  0.14077014834E+03  0.00000000000E+00 0. -1.
</event>
<event>
 7    1  0.2648915E-009  0.1537861E+03  0.7561462E-02  0.1195896E+00
         -3   -1    0    0    0  501 -0.00000000000E+00  0.00000000000E+00  0.14157623683E+03  0.14157623683E+03  0.00000000000E+00 0.  1.
          3   -1    0    0  501    0  0.00000000000E+00 -0.00000000000E+00 -0.37728733849E+03  0.37728733849E+03  0.00000000000E+00 0. -1.
         25    2    1    2    0    0 -0.66353868058E+02  0.11082492206E+03  0.54625557499E+02  0.18792399170E+03  0.12508587437E+03 0.  0.
          5    1    3    3  502    0 -0.25568152129E+02  0.12630023942E+03  0.62693665155E+02  0.14336474089E+03  0.41800000000E+01 0. -1.
         -5    1    3    3    0  502 -0.40785715929E+02 -0.15475317357E+02 -0.80681076560E+01  0.44559250805E+02  0.41800000000E+01 0. -1.
        -11    1    1    2    0    0 -0.23004280157E+01 -0.24098144455E+02 -0.47350205066E+01  0.24666433760E+02  0.00000000000E+00 0.  1.
         11    1    1    2    0    0  0.68654296073E+02 -0.86726777606E+02 -0.28560163866E+03  0.30627314986E+03  0.00000000000E+00 0. -1.
</event>
<event>
 7    1  0.2648915E-009  0.1459701E+03  0.7561462E-02  0.1205514E+00
         -1   -1    0    0    0  501 -0.00000000000E+00  0.00000000000E+00  0.40257807752E+02  0.40257807752E+02  0.00000000000E+00 0.  1.
          1   -1    0    0  501    0  0.00000000000E+00 -0.00000000000E+00 -0.67657692142E+03  0.67657692142E+03  0.00000000000E+00 0. -1.
         25    2    1    2    0    0  0.12231580336E+03 -0.17660641208E+02 -0.36438034730E+03  0.40459113278E+03  0.12509153938E+03 0.  0.
          5    1    3    3  502    0  0.12601134831E+03  0.22259552197E+02 -0.21852603919E+03  0.25326952002E+03  0.41800000000E+01 0. -1.
         -5    1    3    3    0  502 -0.36955449473E+01 -0.39920193405E+02 -0.14585430811E+03  0.15132161276E+03  0.41800000000E+01 0. -1.
        -11    1    1    2    0    0 -0.43573501540E+02  0.52916739183E+01 -0.20446435324E+02  0.48422190851E+02  0.00000000000E+00 0.  1.
         11    1    1    2    0    0 -0.78742301823E+02  0.12368967289E+02 -0.25149233105E+03  0.26382140555E+03  0.00000000000E+00 0. -1.
</event>
<event>
 7    1  0.2648915E-009  0.1149982E+03  0.7561462E-02  0.1251584E+00
          1   -1    0    0  501    0  0.00000000000E+00  0.00000000000E+00  0.51477099388E+03  0.51477099388E+03  0.00000000000E+00 0. -1.
         -1   -1    0    0    0  501 -0.00000000000E+00 -0.00000000000E+00 -0.27750118091E+02  0.27750118091E+02  0.00000000000E+00 0.  1.
         25    2    1    2    0    0  0.34955635923E+02 -0.27605733874E+02  0.21987414813E+03  0.25685739667E+03  0.12508840146E+03 0.  0.
          5    1    3    3  502    0  0.55835473307E+02 -0.67257826214E+02  0.15267213109E+03  0.17597575764E+03  0.41800000000E+01 0.  1.
         -5    1    3    3    0  502 -0.20879837384E+02  0.39652092341E+02  0.67202017044E+02  0.80881639022E+02  0.41800000000E+01 0.  1.
        -11    1    1    2    0    0 -0.32713701076E+01  0.55297619604E+02  0.18845188459E+03  0.19642464561E+03  0.00000000000E+00 0. -1.
         11    1    1    2    0    0 -0.31684265816E+02 -0.27691885730E+02  0.78694843064E+02  0.89239069697E+02  0.00000000000E+00 0.  1.
</event>
<event>
 7    1  0.2648915E-009  0.8650918E+02  0.7561462E-02  0.1311532E+00
         -1   -1    0    0    0  501 -0.00000000000E+00  0.00000000000E+00  0.10623268732E+03  0.10623268732E+03  0.00000000000E+00 0.  1.
          1   -1    0    0  501    0  0.00000000000E+00 -0.00000000000E+00 -0.13582085783E+03  0.13582085783E+03  0.00000000000E+00 0. -1.
         25    2    1    2    0    0 -0.25316701284E+02  0.24269865221E+02  0.22420532128E+02  0.13184667010E+03  0.12510356683E+03 0.  0.
          5    1    3    3  502    0 -0.23857326221E+02  0.73091968227E+02 -0.21096816096E+01  0.77029416395E+02  0.41800000000E+01 0. -1.
         -5    1    3    3    0  502 -0.14593750624E+01 -0.48822103006E+02  0.24530213738E+02  0.54817253703E+02  0.41800000000E+01 0. -1.
        -11    1    1    2    0    0  0.65073189792E+01 -0.27192516932E+02  0.20865514171E+02  0.34887646223E+02  0.00000000000E+00 0.  1.
         11    1    1    2    0    0  0.18809382304E+02  0.29226517105E+01 -0.72874216805E+02  0.75319228824E+02  0.00000000000E+00 0. -1.
</event>
<event>
 7    1  0.2648915E-009  0.1806935E+03  0.7561462E-02  0.1167134E+00
         -3   -1    0    0    0  501 -0.00000000000E+00  0.00000000000E+00  0.20178297741E+03  0.20178297741E+03  0.00000000000E+00 0.  1.
          3   -1    0    0  501    0  0.00000000000E+00 -0.00000000000E+00 -0.16868768159E+03  0.16868768159E+03  0.00000000000E+00 0. -1.
         25    2    1    2    0    0  0.96102428988E+01 -0.14717047504E+03  0.20507869474E+02  0.19447152311E+03  0.12508834917E+03 0.  0.
          5    1    3    3  502    0 -0.51894442100E+02 -0.10769003050E+03  0.54820399692E+01  0.11974013927E+03  0.41800000000E+01 0. -1.
         -5    1    3    3    0  502  0.61504684999E+02 -0.39480444542E+02  0.15025829505E+02  0.74731383838E+02  0.41800000000E+01 0. -1.
        -11    1    1    2    0    0  0.35932863409E+02  0.54022583182E+02 -0.19004348530E+02  0.67607510156E+02  0.00000000000E+00 0. -1.
         11    1    1    2    0    0 -0.45543106308E+02  0.93147891862E+02  0.31591774869E+02  0.10839162574E+03  0.00000000000E+00 0.  1.
</event>
<event>
 7    1  0.2648915E-009  0.8638908E+02  0.7561462E-02  0.1311839E+00
         -2   -1    0    0    0  501 -0.00000000000E+00  0.00000000000E+00  0.11355427575E+03  0.11355427575E+03  0.00000000000E+00 0. -1.
          2   -1    0    0  501    0  0.00000000000E+00 -0.00000000000E+00 -0.15235035604E+03  0.15235035604E+03  0.00000000000E+00 0.  1.
         25    2    1    2    0    0  0.64044744756E+02  0.27214870598E+02  0.64575994338E+01  0.14328598539E+03  0.12508714764E+03 0.  0.
          5    1    3    3  502    0  0.35300203259E+02 -0.16229739275E+02 -0.51888601719E+02  0.64956971723E+02  0.41800000000E+01 0. -1.
         -5    1    3    3    0  502  0.28744541497E+02  0.43444609873E+02  0.58346201153E+02  0.78329013666E+02  0.41800000000E+01 0. -1.
        -11    1    1    2    0    0 -0.35587643559E+02  0.76869803379E+01 -0.64166140497E+02  0.73775765852E+02  0.00000000000E+00 0.  1.
         11    1    1    2    0    0 -0.28457101197E+02 -0.34901850936E+02  0.18912460778E+02  0.48842880545E+02  0.00000000000E+00 0. -1.
</event>
<event>
 7    1  0.2648915E-009  0.1598559E+03  0.7561462E-02  0.1188860E+00
          1   -1    0    0  501    0  0.00000000000E+00  0.00000000000E+00  0.22171309287E+04  0.22171309287E+04  0.00000000000E+00 0. -1.
         -1   -1    0    0    0  501 -0.00000000000E+00 -0.00000000000E+00 -0.32456553168E+02  0.32456553168E+02  0.00000000000E+00 0.  1.
         25    2    1    2    0    0  0.13919054022E+03  0.31249576530E+02  0.19523850623E+04  0.19615824044E+04  0.12509018856E+03 0.  0.
          5    1    3    3  502    0  0.12918361819E+03  0.11260441195E+02  0.93665987823E+03  0.94560266742E+03  0.41800000000E+01 0. -1.
         -5    1    3    3    0  502  0.10006922033E+02  0.19989135335E+02  0.10157251841E+04  0.10159797370E+04  0.41800000000E+01 0. -1.
        -11    1    1    2    0    0 -0.50637649684E+02 -0.55785185662E+02  0.78134064828E+02  0.10854073241E+03  0.00000000000E+00 0.  1.
         11    1    1    2    0    0 -0.88552890536E+02  0.24535609132E+02  0.15415524847E+03  0.17946434512E+03  0.00000000000E+00 0. -1.
</event>
<event>
 7    1  0.2648915E-009  0.1023512E+03  0.7561462E-02  0.1275428E+00
         -1   -1    0    0    0  501 -0.00000000000E+00  0.00000000000E+00  0.25216112328E+02  0.25216112328E+02  0.00000000000E+00 0.  1.
          1   -1    0    0  501    0  0.00000000000E+00 -0.00000000000E+00 -0.54751343836E+03  0.54751343836E+03  0.00000000000E+00 0. -1.
         25    2    1    2    0    0  0.43055860252E+02 -0.38646897582E+01 -0.29932993738E+03  0.32728428557E+03  0.12509136358E+03 0.  0.
          5    1    3    3  502    0  0.24737654649E+02  0.56564249068E+02 -0.20136023257E+03  0.21065346304E+03  0.41800000000E+01 0.  1.
         -5    1    3    3    0  502  0.18318205602E+02 -0.60428938826E+02 -0.97969704816E+02  0.11663082254E+03  0.41800000000E+01 0.  1.
        -11    1    1    2    0    0 -0.13230822162E+00 -0.26793244109E+02 -0.14616670809E+02  0.30521181185E+02  0.00000000000E+00 0.  1.
         11    1    1    2    0    0 -0.42923552030E+02  0.30657933868E+02 -0.20835071784E+03  0.21492408393E+03  0.00000000000E+00 0. -1.
</event>
<event>
 7    1  0.2648915E-009  0.1220905E+03  0.7561462E-02  0.1239688E+00
          1   -1    0    0  501    0  0.00000000000E+00  0.00000000000E+00  0.18172454437E+03  0.18172454437E+03  0.00000000000E+00 0. -1.
         -1   -1    0    0    0  501 -0.00000000000E+00 -0.00000000000E+00 -0.16476638548E+03  0.16476638548E+03  0.00000000000E+00 0.  1.
         25    2    1    2    0    0  0.83767616548E+02  0.17448999128E+02 -0.10092454334E+03  0.18208617824E+03  0.12509249260E+03 0.  0.
          5    1    3    3  502    0  0.10538910981E+03  0.45848053092E+02 -0.83668316267E+02  0.14222084230E+03  0.41800000000E+01 0.  1.
         -5    1    3    3    0  502 -0.21621493258E+02 -0.28399053964E+02 -0.17256227076E+02  0.39865335940E+02  0.41800000000E+01 0.  1.
        -11    1    1    2    0    0 -0.54909508853E+01  0.90602308774E+01 -0.83745903229E+01  0.13504521030E+02  0.00000000000E+00 0.  1.
         11    1    1    2    0    0 -0.78276665662E+02 -0.26509230006E+02  0.12625729256E+03  0.15090023057E+03  0.00000000000E+00 0. -1.
</event>
<event>
 7    1  0.2648915E-009  0.1483192E+03  0.7561462E-02  0.1202554E+00
         -1   -1    0    0    0  501 -0.00000000000E+00  0.00000000000E+00  0.22516068858E+03  0.22516068858E+03  0.00000000000E+00 0.  1.
          1   -1    0    0  501    0  0.00000000000E+00 -0.00000000000E+00 -0.13811959768E+03  0.13811959768E+03  0.00000000000E+00 0. -1.
         25    2    1    2    0    0  0.53288904078E+02 -0.12353040782E+03  0.92982166204E+01  0.18393377090E+03  0.12508279774E+03 0.  0.
          5    1    3    3  502    0  0.46719252421E+02 -0.12561776464E+03  0.49497957843E+02  0.14293366143E+03  0.41800000000E+01 0. -1.
         -5    1    3    3    0  502  0.65696516567E+01  0.20873568252E+01 -0.40199741223E+02  0.41000109461E+02  0.41800000000E+01 0. -1.
        -11    1    1    2    0    0 -0.71171647257E+02  0.78102877256E+02  0.76603363712E+02  0.13051259763E+03  0.00000000000E+00 0.  1.
         11    1    1    2    0    0  0.17882743179E+02  0.45427530561E+02  0.11395105627E+01  0.48833917730E+02  0.00000000000E+00 0. -1.
</event>
<event>
 7    1  0.2648915E-009  0.1120487E+03  0.7561462E-02  0.1256822E+00
          1   -1    0    0  501    0  0.00000000000E+00  0.00000000000E+00  0.56074289839E+02  0.56074289839E+02  0.00000000000E+00 0. -1.
         -1   -1    0    0    0  501 -0.00000000000E+00 -0.00000000000E+00 -0.31777396117E+03  0.31777396117E+03  0.00000000000E+00 0.  1.
         25    2    1    2    0    0 -0.26909417545E+02 -0.71504867293E+02 -0.13497563815E+03  0.19926058470E+03  0.12509714194E+03 0.  0.
          5    1    3    3  502    0  0.26192121288E+02  0.14888943075E+02 -0.42003536357E-01  0.30416804693E+02  0.41800000000E+01 0.  1.
         -5    1    3    3    0  502 -0.53101538833E+02 -0.86393810368E+02 -0.13493363461E+03  0.16884378001E+03  0.41800000000E+01 0.  1.
        -11    1    1    2    0    0 -0.15624878796E+02  0.20408074247E+02 -0.99466172029E+02  0.10273337194E+03  0.00000000000E+00 0.  1.
         11    1    1    2    0    0  0.42534296342E+02  0.51096793046E+02 -0.27257861149E+02  0.71854294369E+02  0.00000000000E+00 0. -1.
</event>
<event>
 7    1  0.2648915E-009  0.8940113E+02  0.7561462E-02  0.1304308E+00
         -2   -1    0    0    0  501 -0.00000000000E+00  0.00000000000E+00  0.94604281909E+02  0.94604281909E+02  0.00000000000E+00 0.  1.
          2   -1    0    0  501    0  0.00000000000E+00 -0.00000000000E+00 -0.29241114974E+03  0.29241114974E+03  0.00000000000E+00 0. -1.
         25    2    1    2    0    0  0.44697073841E+02  0.57473279546E+01  0.29914436255E+02  0.13628193646E+03  0.12508809903E+03 0.  0.
          5    1    3    3  502    0  0.62041696541E+02 -0.18766753678E+02  0.63638675710E+02  0.90932483741E+02  0.41800000000E+01 0. -1.
         -5    1    3    3    0  502 -0.17344622700E+02  0.24514081633E+02 -0.33724239455E+02  0.45349452717E+02  0.41800000000E+01 0. -1.
        -11    1    1    2    0    0 -0.18404506041E+02 -0.37818706277E+02 -0.19024138007E+03  0.19483522032E+03  0.00000000000E+00 0. -1.
         11    1    1    2    0    0 -0.26292567799E+02  0.32071378323E+02 -0.37479924015E+02  0.55898274868E+02  0.00000000000E+00 0.  1.
</event>
<event>
 7    1  0.2648915E-009  0.9391830E+02  0.7561462E-02  0.1293631E+00
         -1   -1    0    0    0  501 -0.00000000000E+00  0.00000000000E+00  0.44092128933E+03  0.44092128933E+03  0.00000000000E+00 0.  1.
          1   -1    0    0  501    0  0.00000000000E+00 -0.00000000000E+00 -0.28554474330E+02  0.28554474330E+02  0.00000000000E+00 0. -1.
         25    2    1    2    0    0 -0.14312266738E+02  0.68055046790E+01  0.28498431482E+03  0.31163254294E+03  0.12509047226E+03 0.  0.
          5    1    3    3  502    0  0.43737983303E+02  0.14143051279E+01  0.38893655787E+02  0.58695828667E+02  0.41800000000E+01 0.  1.
         -5    1    3    3    0  502 -0.58050250041E+02  0.53911995511E+01  0.24609065903E+03  0.25293671427E+03  0.41800000000E+01 0.  1.
        -11    1    1    2    0    0 -0.30982953310E+02 -0.21608675906E+02  0.88899205725E+02  0.96591651030E+02  0.00000000000E+00 0.  1.
         11    1    1    2    0    0  0.45295220047E+02  0.14803171227E+02  0.38483294448E+02  0.61251569687E+02  0.00000000000E+00 0. -1.
</event>
<event>
 7    1  0.2648915E-009  0.1508941E+03  0.7561462E-02  0.1199379E+00
         -2   -1    0    0    0  501 -0.00000000000E+00  0.00000000000E+00  0.31626065404E+02  0.31626065404E+02  0.00000000000E+00 0.  1.
          2   -1    0    0  501    0  0.00000000000E+00 -0.00000000000E+00 -0.89630442452E+03  0.89630442452E+03  0.00000000000E+00 0. -1.
         25    2    1    2    0    0  0.12151594643E+02 -0.12409552378E+03 -0.55150455611E+03  0.57909461279E+03  0.12508371148E+03 0.  0.
          5    1    3    3  502    0  0.62031980899E+02 -0.10679875208E+03 -0.39390783232E+03  0.41283748965E+03  0.41800000000E+01 0. -1.
         -5    1    3    3    0  502 -0.49880386256E+02 -0.17296771706E+02 -0.15759672379E+03  0.16625712314E+03  0.41800000000E+01 0. -1.
        -11    1    1    2    0    0 -0.93894404007E+00  0.69975250970E+02 -0.26937215182E+03  0.27831416339E+03  0.00000000000E+00 0. -1.
         11    1    1    2    0    0 -0.11212650603E+02  0.54120272815E+02 -0.43801651179E+02  0.70521713743E+02  0.00000000000E+00 0.  1.
</event>
<event>
 7    1  0.2648915E-009  0.5786821E+02  0.7561462E-02  0.1407002E+00
         -1   -1    0    0    0  501 -0.00000000000E+00  0.00000000000E+00  0.17267726861E+03  0.17267726861E+03  0.00000000000E+00 0.  1.
          1   -1    0    0  501    0  0.00000000000E+00 -0.00000000000E+00 -0.80679917169E+02  0.80679917169E+02  0.00000000000E+00 0. -1.
         25    2    1    2    0    0  0.44802628689E+02 -0.39655185972E+01  0.61522086503E+02  0.14647629528E+03  0.12508931640E+03 0.  0.
          5    1    3    3  502    0  0.54319668153E+02  0.36979008108E+01 -0.24242370550E+02  0.59745006056E+02  0.41800000000E+01 0.  1.
         -5    1    3    3    0  502 -0.95170394647E+01 -0.76634194080E+01  0.85764457053E+02  0.86731289226E+02  0.41800000000E+01 0.  1.
        -11    1    1    2    0    0 -0.17868849688E+02 -0.69259037400E+01  0.61476384796E+02  0.64394175353E+02  0.00000000000E+00 0.  1.
         11    1    1    2    0    0 -0.26933779000E+02  0.10891422337E+02 -0.31001119855E+02  0.42486715147E+02  0.00000000000E+00 0. -1.
</event>
<event>
 7    1  0.2648915E-009  0.1015958E+03  0.7561462E-02  0.1276976E+00
         -2   -1    0    0    0  501 -0.00000000000E+00  0.00000000000E+00  0.21043444633E+02  0.21043444633E+02  0.00000000000E+00 0. -1.
          2   -1    0    0  501    0  0.00000000000E+00 -0.00000000000E+00 -0.74871692402E+03  0.74871692402E+03  0.00000000000E+00 0.  1.
         25    2    1    2    0    0 -0.32698502650E+02  0.53752251521E+02 -0.40366771718E+03  0.42726317898E+03  0.12509077344E+03 0.  0.
          5    1    3    3  502    0  0.16738939091E+02 -0.52173827863E+01 -0.18467966960E+01  0.18118946522E+02  0.41800000000E+01 0. -1.
         -5    1    3    3    0  502 -0.49437441740E+02  0.58969634307E+02 -0.40182092049E+03  0.40914423246E+03  0.41800000000E+01 0. -1.
        -11    1    1    2    0    0  0.22262597863E+02  0.22198041065E+02 -0.13333514540E+03  0.13699137670E+03  0.00000000000E+00 0.  1.
         11    1    1    2    0    0  0.10435904787E+02 -0.75950292587E+02 -0.19067061680E+03  0.20550581297E+03  0.00000000000E+00 0. -1.
</event>
<event>
 7    1  0.2648915E-009  0.1576634E+03  0.7561462E-02  0.1191360E+00
         -4   -1    0    0    0  501 -0.00000000000E+00  0.00000000000E+00  0.12754717607E+03  0.12754717607E+03  0.00000000000E+00 0.  1.
          4   -1    0    0  501    0  0.00000000000E+00 -0.00000000000E+00 -0.20055685076E+03  0.20055685076E+03  0.00000000000E+00 0. -1.
         25    2    1    2    0    0  0.11261825844E+03  0.22028063727E+02 -0.20419820954E+02  0.17097704673E+03  0.12509226074E+03 0.  0.
          5    1    3    3  502    0  0.13976006599E+03  0.24193221845E+02 -0.13282811082E+02  0.14252050203E+03  0.41800000000E+01 0. -1.
         -5    1    3    3    0  502 -0.27141807548E+02 -0.21651581179E+01 -0.71370098717E+01  0.28456544705E+02  0.41800000000E+01 0. -1.
        -11    1    1    2    0    0  0.84822703904E+00  0.23576209821E+02 -0.19050408161E+02  0.30322849631E+02  0.00000000000E+00 0. -1.
         11    1    1    2    0    0 -0.11346648548E+03 -0.45604273548E+02 -0.33539445573E+02  0.12680413046E+03  0.00000000000E+00 0.  1.
</event>
<event>
 7    1  0.2648915E-009  0.1350629E+03  0.7561462E-02  0.1220131E+00
          1   -1    0    0  501    0  0.00000000000E+00  0.00000000000E+00  0.70210329755E+03  0.70210329755E+03  0.00000000000E+00 0. -1.
         -1   -1    0    0    0  501 -0.00000000000E+00 -0.00000000000E+00 -0.35912252342E+02  0.35912252342E+02  0.00000000000E+00 0.  1.
         25    2    1    2    0    0  0.92551544288E+02 -0.67685398002E+02  0.38604744279E+03  0.42169520535E+03  0.12508843543E+03 0.  0.
          5    1    3    3  502    0  0.23511262444E+02 -0.48853201492E+02  0.37992402378E+02  0.66334830943E+02  0.41800000000E+01 0. -1.
         -5    1    3    3    0  502  0.69040281844E+02 -0.18832196510E+02  0.34805504041E+03  0.35536037441E+03  0.41800000000E+01 0. -1.
        -11    1    1    2    0    0 -0.48946969807E+02 -0.14480946201E+02  0.13043059961E+03  0.14006300358E+03  0.00000000000E+00 0. -1.
         11    1    1    2    0    0 -0.43604574481E+02  0.82166344203E+02  0.14971300281E+03  0.17625734097E+03  0.00000000000E+00 0.  1.
</event>
<event>
 7    1  0.2648915E-009  0.9221304E+02  0.7561462E-02  0.1297579E+00
         -3   -1    0    0    0  501 -0.00000000000E+00  0.00000000000E+00  0.12926957059E+03  0.12926957059E+03  0.00000000000E+00 0.  1.
          3   -1    0    0  501    0  0.00000000000E+00 -0.00000000000E+00 -0.19936630983E+03  0.19936630983E+03  0.00000000000E+00 0. -1.
         25    2    1    2    0    0 -0.53226748411E+02 -0.17088641192E+01  0.69687139954E+02  0.15277272518E+03  0.12508877296E+03 0.  0.
          5    1    3    3  502    0 -0.83170098349E+02  0.90171058228E+01  0.83110622491E+02  0.11799754840E+03  0.41800000000E+01 0. -1.
         -5    1    3    3    0  502  0.29943349938E+02 -0.10725969942E+02 -0.13423482536E+02  0.34775176780E+02  0.41800000000E+01 0. -1.
        -11    1    1    2    0    0  0.79463427782E+01  0.18623367546E+02  0.69228988568E+01  0.21398614695E+02  0.00000000000E+00 0.  1.
         11    1    1    2    0    0  0.45280405633E+02 -0.16914503427E+02 -0.14670677805E+03  0.15446454055E+03  0.00000000000E+00 0. -1.
</event>
<event>
 7    1  0.2648915E-009  0.1403307E+03  0.7561462E-02  0.1212885E+00
         -2   -1    0    0    0  501 -0.00000000000E+00  0.00000000000E+00  0.30909103644E+02  0.30909103644E+02  0.00000000000E+00 0.  1.
          2   -1    0    0  501    0  0.00000000000E+00 -0.00000000000E+00 -0.74048845831E+03  0.74048845831E+03  0.00000000000E+00 0. -1.
         25    2    1    2    0    0  0.29408483971E+02 -0.97138934228E+02 -0.44924299684E+03  0.47725056439E+03  0.12509196428E+03 0.  0.
          5    1    3    3  502    0  0.64208126811E+02 -0.26642341570E+02 -0.30572621446E+03  0.31355779136E+03  0.41800000000E+01 0.  1.
         -5    1    3    3    0  502 -0.34799642840E+02 -0.70496592658E+02 -0.14351678238E+03  0.16369277303E+03  0.41800000000E+01 0.  1.
        -11    1    1    2    0    0 -0.21713141926E+02 -0.10679975599E+02 -0.23135807967E+02  0.33478172312E+02  0.00000000000E+00 0.  1.
         11    1    1    2    0    0 -0.76953420452E+01  0.10781890983E+03 -0.23720054986E+03  0.26066882525E+03  0.00000000000E+00 0. -1.
</event>
<event>
 7    1  0.2648915E-009  0.1025459E+03  0.7561462E-02  0.1275031E+00
          4   -1    0    0  501    0  0.00000000000E+00  0.00000000000E+00  0.60837117609E+02  0.60837117609E+02  0.00000000000E+00 0. -1.
         -4   -1    0    0    0  501 -0.00000000000E+00 -0.00000000000E+00 -0.24016585662E+03  0.24016585662E+03  0.00000000000E+00 0.  1.
         25    2    1    2    0    0 -0.51539318758E+02 -0.14303150073E+02 -0.12190317985E+03  0.18266837366E+03  0.12508584252E+03 0.  0.
          5    1    3    3  502    0  0.22964055793E+01 -0.50048042773E+02 -0.69809364069E+01  0.50757126959E+02  0.41800000000E+01 0. -1.
         -5    1    3    3    0  502 -0.53835724337E+02  0.35744892701E+02 -0.11492224344E+03  0.13191124670E+03  0.41800000000E+01 0. -1.
        -11    1    1    2    0    0  0.84630306617E+01  0.39337582383E+02 -0.55400293199E+02  0.68470875285E+02  0.00000000000E+00 0. -1.
         11    1    1    2    0    0  0.43076288096E+02 -0.25034432310E+02 -0.20252659685E+01  0.49863725287E+02  0.00000000000E+00 0.  1.
</event>
<event>
 7    1  0.2648915E-009  0.1712165E+03  0.7561462E-02  0.1176585E+00
          2   -1    0    0  501    0  0.00000000000E+00  0.00000000000E+00  0.32187604335E+03  0.32187604335E+03  0.00000000000E+00 0. -1.
         -2   -1    0    0    0  501 -0.00000000000E+00 -0.00000000000E+00 -0.13862874734E+03  0.13862874734E+03  0.00000000000E+00 0.  1.
         25    2    1    2    0    0 -0.70274860744E+02 -0.12370865239E+03  0.21716142470E+03  0.28818466940E+03  0.12509569365E+03 0.  0.
          5    1    3    3  502    0  0.34618111301E+02 -0.29979378375E+02  0.76183511557E+02  0.88986384301E+02  0.41800000000E+01 0.  1.
         -5    1    3    3    0  502 -0.10489297204E+03 -0.93729274011E+02  0.14097791314E+03  0.19919828510E+03  0.41800000000E+01 0.  1.
        -11    1    1    2    0    0  0.37357305187E+02  0.11966552354E+02  0.19916976023E+02  0.43993778651E+02  0.00000000000E+00 0. -1.
         11    1    1    2    0    0  0.32917555558E+02  0.11174210003E+03 -0.53831104709E+02  0.12832634265E+03  0.00000000000E+00 0.  1.
</event>
<event>
 7    1  0.2648915E-009  0.1205217E+03  0.7561462E-02  0.1242239E+00
         -2   -1    0    0    0  501 -0.00000000000E+00  0.00000000000E+00  0.84822211279E+02  0.84822211279E+02  0.00000000000E+00 0. -1.
          2   -1    0    0  501    0  0.00000000000E+00 -0.00000000000E+00 -0.18094422931E+03  0.18094422931E+03  0.00000000000E+00 0.  1.
         25    2    1    2    0    0  0.40174583424E+02 -0.23458267752E+01 -0.58230068171E+02  0.14372742573E+03  0.12508929616E+03 0.  0.
          5    1    3    3  502    0  0.63624101442E+02 -0.47689123986E+02 -0.41863622420E+02  0.89957290494E+02  0.41800000000E+01 0. -1.
         -5    1    3    3    0  502 -0.23449518019E+02  0.45343297211E+02 -0.16366445751E+02  0.53770135241E+02  0.41800000000E+01 0. -1.
        -11    1    1    2    0    0  0.25767442327E+02  0.29251444290E+02 -0.32255158596E+02  0.50596475502E+02  0.00000000000E+00 0. -1.
         11    1    1    2    0    0 -0.65942025751E+02 -0.26905617515E+02 -0.56367912683E+01  0.71442539357E+02  0.00000000000E+00 0.  1.
</event>
<event>
 7    1  0.2648915E-009  0.9257788E+02  0.7561462E-02  0.1296726E+00
         -2   -1    0    0    0  501 -0.00000000000E+00  0.00000000000E+00  0.98979209040E+02  0.98979209040E+02  0.00000000000E+00 0.  1.
          2   -1    0    0  501    0  0.00000000000E+00 -0.00000000000E+00 -0.12334463149E+03  0.12334463149E+03  0.00000000000E+00 0. -1.
         25    2    1    2    0    0  0.14844657877E+02  0.95269937961E+01  0.62751468766E+01  0.12648343020E+03  0.12509018015E+03 0.  0.
          5    1    3    3  502    0  0.29726750603E+02  0.47678452144E+02 -0.36489717289E+02  0.67125899384E+02  0.41800000000E+01 0. -1.
         -5    1    3    3    0  502 -0.14882092726E+02 -0.38151458348E+02  0.42764864166E+02  0.59357530821E+02  0.41800000000E+01 0. -1.
        -11    1    1    2    0    0 -0.97312936182E+01 -0.47930060900E+02 -0.45220990540E+01  0.49116577581E+02  0.00000000000E+00 0.  1.
         11    1    1    2    0    0 -0.51133642584E+01  0.38403067104E+02 -0.26118470276E+02  0.46723832747E+02  0.00000000000E+00 0. -1.
</event>
<event>
 7    1  0.2648915E-009  0.7524908E+02  0.7561462E-02  0.1343101E+00
          2   -1    0    0  501    0  0.00000000000E+00  0.00000000000E+00  0.30560242589E+03  0.30560242589E+03  0.00000000000E+00 0. -1.
         -2   -1    0    0    0  501 -0.00000000000E+00 -0.00000000000E+00 -0.38519361586E+02  0.38519361586E+02  0.00000000000E+00 0.  1.
         25    2    1    2    0    0 -0.10535953243E+02  0.40001986692E+01  0.13487687049E+03  0.18429876622E+03  0.12508899686E+03 0.  0.
          5    1    3    3  502    0 -0.16927307021E+02 -0.30967831527E+02 -0.84838855402E+01  0.36537501643E+02  0.41800000000E+01 0. -1.
         -5    1    3    3    0  502  0.63913537782E+01  0.34968030196E+02  0.14336075603E+03  0.14776126458E+03  0.41800000000E+01 0. -1.
        -11    1    1    2    0    0  0.44788170026E+02 -0.32630789517E+01  0.11047179734E+03  0.11925034955E+03  0.00000000000E+00 0. -1.
         11    1    1    2    0    0 -0.34252216784E+02 -0.73711971751E+00  0.21734396470E+02  0.40572671714E+02  0.00000000000E+00 0.  1.
</event>
<event>
 7    1  0.3071429E-009  0.9949584E+02  0.7561462E-02  0.1281360E+00
         -2   -1    0    0    0  501 -0.00000000000E+00  0.00000000000E+00  0.14876498841E+02  0.14876498841E+02  0.00000000000E+00 0.  1.
          2   -1    0    0  501    0  0.00000000000E+00 -0.00000000000E+00 -0.98801138259E+03  0.98801138259E+03  0.00000000000E+00 0. -1.
         25    2    1    2    0    0 -0.65155545398E+01 -0.67395256792E+01 -0.76313011227E+03  0.77337136896E+03  0.12509129632E+03 0.  0.
          5    1    3    3  502    0  0.19652922064E+02  0.53655877278E+02 -0.28385391491E+03  0.28957850045E+03  0.41800000000E+01 0.  1.
         -5    1    3    3    0  502 -0.26168476603E+02 -0.60395402957E+02 -0.47927619736E+03  0.48379286852E+03  0.41800000000E+01 0.  1.
        -11    1    1    2    0    0  0.24751887008E+02 -0.27470314599E+02 -0.37329481564E+02  0.52542975634E+02  0.00000000000E+00 0.  1.
         11    1    1    2    0    0 -0.18236332468E+02  0.34209840278E+02 -0.17267528991E+03  0.17697353683E+03  0.00000000000E+00 0. -1.
</event>
<event>
 7    1  0.2648915E-009  0.8553982E+02  0.7561462E-02  0.1314027E+00
         -2   -1    0    0    0  501 -0.00000000000E+00  0.00000000000E+00  0.23295403112E+03  0.23295403112E+03  0.00000000000E+00 0.  1.
          2   -1    0    0  501    0  0.00000000000E+00 -0.00000000000E+00 -0.59581438790E+02  0.59581438790E+02  0.00000000000E+00 0. -1.
         25    2    1    2    0    0  0.13498981638E+02  0.34400275041E+02  0.12722028987E+03  0.18219720299E+03  0.12508084263E+03 0.  0.
          5    1    3    3  502    0  0.13092715452E+02 -0.26170419286E+02  0.11693843075E+03  0.12061666150E+03  0.41800000000E+01 0. -1.
         -5    1    3    3    0  502  0.40626618574E+00  0.60570694326E+02  0.10281859116E+02  0.61580541491E+02  0.41800000000E+01 0. -1.
        -11    1    1    2    0    0  0.28949001473E+02 -0.55410722045E+01 -0.12832515737E+02  0.32146875860E+02  0.00000000000E+00 0. -1.
         11    1    1    2    0    0 -0.42447983111E+02 -0.28859202836E+02  0.58984818198E+02  0.78191391063E+02  0.00000000000E+00 0.  1.
</event>
<event>
 7    1  0.2648915E-009  0.1168446E+03  0.7561462E-02  0.1248395E+00
         -1   -1    0    0    0  501 -0.00000000000E+00  0.00000000000E+00  0.62050087299E+02  0.62050087299E+02  0.00000000000E+00 0.  1.
          1   -1    0    0  501    0  0.00000000000E+00 -0.00000000000E+00 -0.32467641203E+03  0.32467641203E+03  0.00000000000E+00 0. -1.
         25    2    1    2    0    0  0.71463237068E+02 -0.28103460697E+02 -0.74948606665E+02  0.16480614886E+03  0.12508786634E+03 0.  0.
          5    1    3    3  502    0 -0.24643441763E+02 -0.14421343752E+02 -0.59891020771E+02  0.66480682507E+02  0.41800000000E+01 0.  1.
         -5    1    3    3    0  502  0.96106678831E+02 -0.13682116945E+02 -0.15057585894E+02  0.98325466350E+02  0.41800000000E+01 0.  1.
        -11    1    1    2    0    0  0.14663798394E+02  0.14221963884E+02 -0.75486953691E+01  0.21777833727E+02  0.00000000000E+00 0.  1.
         11    1    1    2    0    0 -0.86127035463E+02  0.13881496813E+02 -0.18012902270E+03  0.20014251675E+03  0.00000000000E+00 0. -1.
</event>
<event>
 7    1  0.2648915E-009  0.1071743E+03  0.7561462E-02  0.1265894E+00
         -1   -1    0    0    0  501 -0.00000000000E+00  0.00000000000E+00  0.46229700567E+02  0.46229700567E+02  0.00000000000E+00 0.  1.
          1   -1    0    0  501    0  0.00000000000E+00 -0.00000000000E+00 -0.33959011481E+03  0.33959011481E+03  0.00000000000E+00 0. -1.
         25    2    1    2    0    0 -0.31105133408E+02  0.41754143165E+02 -0.10766037373E+03  0.17305868688E+03  0.12509042824E+03 0.  0.
          5    1    3    3  502    0 -0.76405967767E+02  0.18794987016E+02 -0.40032080084E+02  0.88380785713E+02  0.41800000000E+01 0. -1.
         -5    1    3    3    0  502  0.45300834359E+02  0.22959156149E+02 -0.67628293648E+02  0.84677901169E+02  0.41800000000E+01 0. -1.
        -11    1    1    2    0    0  0.51494140207E+02 -0.21332379795E+02 -0.52841046418E+02  0.76804251770E+02  0.00000000000E+00 0.  1.
         11    1    1    2    0    0 -0.20389006799E+02 -0.20421763370E+02 -0.13285899409E+03  0.13595687672E+03  0.00000000000E+00 0. -1.
</event>
<event>
 7    1  0.2648915E-009  0.1819364E+03  0.7561462E-02  0.1165942E+00
         -1   -1    0    0    0  501 -0.00000000000E+00  0.00000000000E+00  0.16947008912E+03  0.16947008912E+03  0.00000000000E+00 0.  1.
          1   -1    0    0  501    0  0.00000000000E+00 -0.00000000000E+00 -0.26744892637E+03  0.26744892637E+03  0.00000000000E+00 0. -1.
         25    2    1    2    0    0  0.17724460537E+03  0.33105279970E+02 -0.82367567909E+02  0.23439866876E+03  0.12508680978E+03 0.  0.
          5    1    3    3  502    0  0.26514814046E+02 -0.65500842175E+01 -0.73169648452E+02  0.78212587361E+02  0.41800000000E+01 0. -1.
         -5    1    3    3    0  502  0.15072979132E+03  0.39655364188E+02 -0.91979194574E+01  0.15618608140E+03  0.41800000000E+01 0. -1.
        -11    1    1    2    0    0 -0.14600356250E+03 -0.26275078243E+02  0.25407355954E+02  0.15050898224E+03  0.00000000000E+00 0.  1.
         11    1    1    2    0    0 -0.31241042867E+02 -0.68302017270E+01 -0.41018625289E+02  0.52011364486E+02  0.00000000000E+00 0. -1.
</event>
<event>
 7    1  0.2648915E-009  0.1940822E+03  0.7561462E-02  0.1154830E+00
         -2   -1    0    0    0  501 -0.00000000000E+00  0.00000000000E+00  0.42750133764E+02  0.42750133764E+02  0.00000000000E+00 0.  1.
          2   -1    0    0  501    0  0.00000000000E+00 -0.00000000000E+00 -0.96961779654E+03  0.96961779654E+03  0.00000000000E+00 0. -1.
         25    2    1    2    0    0  0.11440356211E+03  0.12116766838E+03 -0.58039093518E+03  0.61666157712E+03  0.12509230263E+03 0.  0.
          5    1    3    3  502    0  0.96626481894E+02  0.25128358211E+02 -0.39050684267E+03  0.40308954088E+03  0.41800000000E+01 0. -1.
         -5    1    3    3    0  502  0.17777080220E+02  0.96039310173E+02 -0.18988409250E+03  0.21357203625E+03  0.41800000000E+01 0. -1.
        -11    1    1    2    0    0  0.16198745685E+02 -0.16327114161E+02 -0.53604444464E+02  0.58330185023E+02  0.00000000000E+00 0. -1.
         11    1    1    2    0    0 -0.13060230780E+03 -0.10484055422E+03 -0.29287228313E+03  0.33737616816E+03  0.00000000000E+00 0.  1.
</event>
<event>
 7    1  0.2648915E-009  0.1650669E+03  0.7561462E-02  0.1183092E+00
         -1   -1    0    0    0  501 -0.00000000000E+00  0.00000000000E+00  0.12242358041E+04  0.12242358041E+04  0.00000000000E+00 0.  1.
          1   -1    0    0  501    0  0.00000000000E+00 -0.00000000000E+00 -0.23924865131E+02  0.23924865131E+02  0.00000000000E+00 0. -1.
         25    2    1    2    0    0  0.70209762474E+02  0.10805227687E+03  0.73874993605E+03  0.76026871788E+03  0.12510935251E+03 0.  0.
          5    1    3    3  502    0  0.80378875427E+02  0.17925178828E+02  0.45289932295E+03  0.46034481075E+03  0.41800000000E+01 0. -1.
         -5    1    3    3    0  502 -0.10169112954E+02  0.90127098039E+02  0.28585061310E+03  0.29992390713E+03  0.41800000000E+01 0. -1.
        -11    1    1    2    0    0 -0.52179747976E+02 -0.51770106405E+01  0.12673115919E+03  0.13715069904E+03  0.00000000000E+00 0.  1.
         11    1    1    2    0    0 -0.18030014498E+02 -0.10287526623E+03  0.33482984378E+03  0.35074125236E+03  0.00000000000E+00 0. -1.
</event>
<event>
 7    1  0.2648915E-009  0.1095087E+03  0.7561462E-02  0.1261482E+00
         -1   -1    0    0    0  501 -0.00000000000E+00  0.00000000000E+00  0.20808986077E+03  0.20808986077E+03  0.00000000000E+00 0.  1.
          1   -1    0    0  501    0  0.00000000000E+00 -0.00000000000E+00 -0.11113812523E+03  0.11113812523E+03  0.00000000000E+00 0. -1.
         25    2    1    2    0    0 -0.65904408070E+02 -0.67981591955E+02  0.10257391729E+03  0.18744550162E+03  0.12509804044E+03 0.  0.
          5    1    3    3  502    0  0.16673584856E+02 -0.17864853373E+02 -0.19627222192E+02  0.31620589320E+02  0.41800000000E+01 0. -1.
         -5    1    3    3    0  502 -0.82577992925E+02 -0.50116738582E+02  0.12220113948E+03  0.15582491230E+03  0.41800000000E+01 0. -1.
        -11    1    1    2    0    0  0.27269832132E+02  0.12667525373E+02  0.40216077623E+02  0.50213970596E+02  0.00000000000E+00 0.  1.
         11    1    1    2    0    0  0.38634575938E+02  0.55314066582E+02 -0.45838259375E+02  0.81568513792E+02  0.00000000000E+00 0. -1.
</event>
<event>
 7    1  0.2648915E-009  0.2001105E+03  0.7561462E-02  0.1149646E+00
         -1   -1    0    0    0  501 -0.00000000000E+00  0.00000000000E+00  0.13129281498E+03  0.13129281498E+03  0.00000000000E+00 0.  1.
          1   -1    0    0  501    0  0.00000000000E+00 -0.00000000000E+00 -0.33973709732E+03  0.33973709732E+03  0.00000000000E+00 0. -1.
         25    2    1    2    0    0 -0.16267876570E+03 -0.53949734712E+02 -0.17076547540E+03  0.27236622727E+03  0.12509020541E+03 0.  0.
          5    1    3    3  502    0  0.19002774180E+02 -0.10466470032E+02 -0.35011292629E+02  0.41399461748E+02  0.41800000000E+01 0.  1.
         -5    1    3    3    0  502 -0.18168153988E+03 -0.43483264680E+02 -0.13575418277E+03  0.23096676553E+03  0.41800000000E+01 0.  1.
        -11    1    1    2    0    0  0.41026866608E+02  0.56216260478E+02  0.48708402467E+01  0.69765298040E+02  0.00000000000E+00 0.  1.
         11    1    1    2    0    0  0.12165189909E+03 -0.22665257665E+01 -0.42549647197E+02  0.12889838698E+03  0.00000000000E+00 0. -1.
</event>
<event>
 7    1  0.2648915E-009  0.1144087E+03  0.7561462E-02  0.1252617E+00
          2   -1    0    0  501    0  0.00000000000E+00  0.00000000000E+00  0.14793157671E+04  0.14793157671E+04  0.00000000000E+00 0.  1.
         -2   -1    0    0    0  501 -0.00000000000E+00 -0.00000000000E+00 -0.12608536974E+02  0.12608536974E+02  0.00000000000E+00 0. -1.
         25    2    1    2    0    0 -0.36762511309E+02 -0.58014819642E+02  0.10665076569E+04  0.10760123184E+04  0.12508687261E+03 0.  0.
          5    1    3    3  502    0 -0.45519618416E+02 -0.87316182315E+02  0.56316100831E+03  0.57172016322E+03  0.41800000000E+01 0.  1.
         -5    1    3    3    0  502  0.87571071066E+01  0.29301362674E+02  0.50334664855E+03  0.50429215519E+03  0.41800000000E+01 0.  1.
        -11    1    1    2    0    0 -0.47600574217E+01  0.57673209296E+02  0.32405121418E+03  0.32917783435E+03  0.00000000000E+00 0.  1.
         11    1    1    2    0    0  0.41522568731E+02  0.34161034580E+00  0.76148359077E+02  0.86734151300E+02  0.00000000000E+00 0. -1.
</event>
<event>
 7    1  0.2648915E-009  0.9568073E+02  0.7561462E-02  0.1289650E+00
         -3   -1    0    0    0  501 -0.00000000000E+00  0.00000000000E+00  0.32337207736E+03  0.32337207736E+03  0.00000000000E+00 0.  1.
          3   -1    0    0  501    0  0.00000000000E+00 -0.00000000000E+00 -0.50032491202E+02  0.50032491202E+02  0.00000000000E+00 0. -1.
         25    2    1    2    0    0  0.25561937976E+02  0.25507170802E+02  0.71177965051E+02  0.14838386802E+03  0.12508973238E+03 0.  0.
          5    1    3    3  502    0  0.63789193090E+02  0.22762710663E+02  0.83789193109E+02  0.10782070040E+03  0.41800000000E+01 0.  1.
         -5    1    3    3    0  502 -0.38227255114E+02  0.27444601395E+01 -0.12611228058E+02  0.40563167630E+02  0.41800000000E+01 0.  1.
        -11    1    1    2    0    0  0.19079898992E+02  0.15308968608E+02  0.12292138501E+03  0.12533185532E+03  0.00000000000E+00 0. -1.
         11    1    1    2    0    0 -0.44641836967E+02 -0.40816139410E+02  0.79240236097E+02  0.99688845218E+02  0.00000000000E+00 0.  1.
</event>
<event>
 7    1  0.2648915E-009  0.1155079E+03  0.7561462E-02  0.1250697E+00
         -2   -1    0    0    0  501 -0.00000000000E+00  0.00000000000E+00  0.12817329325E+03  0.12817329325E+03  0.00000000000E+00 0.  1.
          2   -1    0    0  501    0  0.00000000000E+00 -0.00000000000E+00 -0.12328919213E+03  0.12328919213E+03  0.00000000000E+00 0. -1.
         25    2    1    2    0    0 -0.12027668237E+02 -0.45386001758E+02 -0.42588255281E+02  0.14022427768E+03  0.12507811401E+03 0.  0.
          5    1    3    3  502    0 -0.35478733940E+01  0.43031037623E+02 -0.23280445840E+02  0.49231180801E+02  0.41800000000E+01 0. -1.
         -5    1    3    3    0  502 -0.84797948426E+01 -0.88417039382E+02 -0.19307809441E+02  0.90993096875E+02  0.41800000000E+01 0. -1.
        -11    1    1    2    0    0  0.33445630154E+02 -0.13491027816E+02  0.72476743175E+01  0.36785143617E+02  0.00000000000E+00 0. -1.
         11    1    1    2    0    0 -0.21417961917E+02  0.58877029574E+02  0.40224682078E+02  0.74453064090E+02  0.00000000000E+00 0.  1.
</event>
<event>
 7    1  0.2648915E-009  0.1566091E+03  0.7561462E-02  0.1192579E+00
         -2   -1    0    0    0  501 -0.00000000000E+00  0.00000000000E+00  0.23607428940E+02  0.23607428940E+02  0.00000000000E+00 0.  1.
          2   -1    0    0  501    0  0.00000000000E+00 -0.00000000000E+00 -0.12057876911E+04  0.12057876911E+04  0.00000000000E+00 0. -1.
         25    2    1    2    0    0 -0.82111424431E+02  0.86374607543E+02 -0.45831881901E+03  0.48980328195E+03  0.12509299061E+03 0.  0.
          5    1    3    3  502    0 -0.10800337449E+03  0.83083784828E+02 -0.30306515457E+03  0.33231551953E+03  0.41800000000E+01 0.  1.
         -5    1    3    3    0  502  0.25891950059E+02  0.32908227155E+01 -0.15525366444E+03  0.15748776243E+03  0.41800000000E+01 0.  1.
        -11    1    1    2    0    0  0.85886632859E+02 -0.25676408968E+02 -0.38328750250E+03  0.39363066605E+03  0.00000000000E+00 0. -1.
         11    1    1    2    0    0 -0.37752084279E+01 -0.60698198575E+02 -0.34057394063E+03  0.34596117202E+03  0.00000000000E+00 0.  1.
</event>
<event>
 7    1  0.2648915E-009  0.9618162E+02  0.7561462E-02  0.1288537E+00
         -3   -1    0    0    0  501 -0.00000000000E+00  0.00000000000E+00  0.23487605556E+03  0.23487605556E+03  0.00000000000E+00 0.  1.
          3   -1    0    0  501    0  0.00000000000E+00 -0.00000000000E+00 -0.10395531309E+03  0.10395531309E+03  0.00000000000E+00 0. -1.
         25    2    1    2    0    0 -0.48111540059E+02  0.73194768066E+02 -0.78157524273E+01  0.15290603691E+03  0.12508787223E+03 0.  0.
          5    1    3    3  502    0 -0.21331625772E+02  0.91503662586E+01 -0.60971489949E+02  0.65374019666E+02  0.41800000000E+01 0.  1.
         -5    1    3    3    0  502 -0.26779914287E+02  0.64044401808E+02  0.53155737521E+02  0.87532017248E+02  0.41800000000E+01 0.  1.
        -11    1    1    2    0    0 -0.60388519478E+01 -0.28173389068E+02 -0.16560081531E+01  0.28860872257E+02  0.00000000000E+00 0. -1.
         11    1    1    2    0    0  0.54150392007E+02 -0.45021378998E+02  0.14039250304E+03  0.15706445948E+03  0.00000000000E+00 0.  1.
</event>
<event>
 7    1  0.2648915E-009  0.1323486E+03  0.7561462E-02  0.1224012E+00
          1   -1    0    0  501    0  0.00000000000E+00  0.00000000000E+00  0.19544733886E+03  0.19544733886E+03  0.00000000000E+00 0. -1.
         -1   -1    0    0    0  501 -0.00000000000E+00 -0.00000000000E+00 -0.13557749676E+03  0.13557749676E+03  0.00000000000E+00 0.  1.
         25    2    1    2    0    0 -0.12107136431E+03  0.13336633172E+02  0.34519341947E+02  0.17797607293E+03  0.12509099298E+03 0.  0.
          5    1    3    3  502    0 -0.84811739132E+02  0.36678685352E+02 -0.32611665393E+02  0.98078285943E+02  0.41800000000E+01 0.  1.
         -5    1    3    3    0  502 -0.36259625180E+02 -0.23342052181E+02  0.67131007340E+02  0.79897786983E+02  0.41800000000E+01 0.  1.
        -11    1    1    2    0    0  0.64099923935E+02  0.14112214758E+02 -0.26981550107E+02  0.70964490416E+02  0.00000000000E+00 0.  1.
         11    1    1    2    0    0  0.56971440378E+02 -0.27448847930E+02  0.52332050259E+02  0.82084272279E+02  0.00000000000E+00 0. -1.
</event>
<event>
 7    1  0.2648915E-009  0.1851050E+03  0.7561462E-02  0.1162952E+00
         -3   -1    0    0    0  501 -0.00000000000E+00  0.00000000000E+00  0.31345329844E+03  0.31345329844E+03  0.00000000000E+00 0.  1.
          3   -1    0    0  501    0  0.00000000000E+00 -0.00000000000E+00 -0.13707653354E+03  0.13707653354E+03  0.00000000000E+00 0. -1.
         25    2    1    2    0    0 -0.32098805313E+02  0.16617021845E+03  0.14427192900E+03  0.25515702951E+03  0.12509134824E+03 0.  0.
          5    1    3    3  502    0  0.30418045984E+02  0.74951142250E+02  0.11504536233E+03  0.14069768669E+03  0.41800000000E+01 0.  1.
         -5    1    3    3    0  502 -0.62516851297E+02  0.91219076201E+02  0.29226566678E+02  0.11445934282E+03  0.41800000000E+01 0.  1.
        -11    1    1    2    0    0 -0.15514214740E+02 -0.63620806685E+02 -0.23244562314E+02  0.69488183020E+02  0.00000000000E+00 0. -1.
         11    1    1    2    0    0  0.47613020053E+02 -0.10254941177E+03  0.55349398206E+02  0.12588461945E+03  0.00000000000E+00 0.  1.
</event>
<event>
 7    1  0.2648915E-009  0.1288621E+03  0.7561462E-02  0.1229154E+00
         -1   -1    0    0    0  501 -0.00000000000E+00  0.00000000000E+00  0.44382983371E+03  0.44382983371E+03  0.00000000000E+00 0.  1.
          1   -1    0    0  501    0  0.00000000000E+00 -0.00000000000E+00 -0.46637839238E+02  0.46637839238E+02  0.00000000000E+00 0. -1.
         25    2    1    2    0    0 -0.77447240429E+02 -0.54616314059E+02  0.21709140639E+03  0.26787695555E+03  0.12509343618E+03 0.  0.
          5    1    3    3  502    0 -0.76158678448E+02 -0.77204193707E+02  0.96862106800E+02  0.14546605089E+03  0.41800000000E+01 0. -1.
         -5    1    3    3    0  502 -0.12885619807E+01  0.22587879648E+02  0.12022929959E+03  0.12241090465E+03  0.41800000000E+01 0. -1.
        -11    1    1    2    0    0  0.17874934114E+02  0.63491603708E+02  0.64575184318E+02  0.92307374790E+02  0.00000000000E+00 0. -1.
         11    1    1    2    0    0  0.59572306315E+02 -0.88752896494E+01  0.11552540377E+03  0.13028334261E+03  0.00000000000E+00 0.  1.
</event>
<event>
 7    1  0.2648915E-009  0.1027604E+03  0.7561462E-02  0.1274596E+00
          1   -1    0    0  501    0  0.00000000000E+00  0.00000000000E+00  0.39804566718E+03  0.39804566718E+03  0.00000000000E+00 0. -1.
         -1   -1    0    0    0  501 -0.00000000000E+00 -0.00000000000E+00 -0.39406843175E+02  0.39406843175E+02  0.00000000000E+00 0.  1.
         25    2    1    2    0    0 -0.53649366604E+01  0.62394104696E+02  0.21172808794E+03  0.25376730668E+03  0.12508899180E+03 0.  0.
          5    1    3    3  502    0  0.28206024643E+02 -0.21724599276E+01  0.16437535673E+03  0.16684432776E+03  0.41800000000E+01 0. -1.
         -5    1    3    3    0  502 -0.33570961303E+02  0.64566564623E+02  0.47352731216E+02  0.86922978916E+02  0.41800000000E+01 0. -1.
        -11    1    1    2    0    0 -0.18314120621E+02 -0.75001654379E+02  0.13219245667E+03  0.15308657934E+03  0.00000000000E+00 0. -1.
         11    1    1    2    0    0  0.23679057282E+02  0.12607549683E+02  0.14718279388E+02  0.30598624330E+02  0.00000000000E+00 0.  1.
</event>
<event>
 7    1  0.2648915E-009  0.1109538E+03  0.7561462E-02  0.1258814E+00
          1   -1    0    0  501    0  0.00000000000E+00  0.00000000000E+00  0.90113665288E+03  0.90113665288E+03  0.00000000000E+00 0. -1.
         -1   -1    0    0    0  501 -0.00000000000E+00 -0.00000000000E+00 -0.17895485545E+02  0.17895485545E+02  0.00000000000E+00 0.  1.
         25    2    1    2    0    0 -0.13043152659E+02 -0.64416817536E+02  0.53196799839E+03  0.55041584617E+03  0.12509197495E+03 0.  0.
          5    1    3    3  502    0 -0.46766882055E+02 -0.61210853590E+02  0.49131077683E+03  0.49733053565E+03  0.41800000000E+01 0.  1.
         -5    1    3    3    0  502  0.33723729397E+02 -0.32059639454E+01  0.40657221556E+02  0.53085310528E+02  0.41800000000E+01 0.  1.
        -11    1    1    2    0    0 -0.32080514327E+02  0.56275922806E+02  0.17958322961E+03  0.19090907586E+03  0.00000000000E+00 0.  1.
         11    1    1    2    0    0  0.45123666986E+02  0.81408947303E+01  0.17168993933E+03  0.17770721639E+03  0.00000000000E+00 0. -1.
</event>
<event>
 7    1  0.2648915E-009  0.1207307E+03  0.7561462E-02  0.1241897E+00
          1   -1    0    0  501    0  0.00000000000E+00  0.00000000000E+00  0.44180254457E+02  0.44180254457E+02  0.00000000000E+00 0. -1.
         -1   -1    0    0    0  501 -0.00000000000E+00 -0.00000000000E+00 -0.70785427984E+03  0.70785427984E+03  0.00000000000E+00 0.  1.
         25    2    1    2    0    0  0.95968188697E+01  0.10463443438E+03 -0.54404710921E+03  0.56804130640E+03  0.12507279859E+03 0.  0.
          5    1    3    3  502    0 -0.17787754133E+02  0.31686911057E+02 -0.41935094716E+03  0.42094317172E+03  0.41800000000E+01 0. -1.
         -5    1    3    3    0  502  0.27384573002E+02  0.72947523324E+02 -0.12469616205E+03  0.14709813468E+03  0.41800000000E+01 0. -1.
        -11    1    1    2    0    0 -0.36712890405E+02 -0.87206942977E+02 -0.11863163163E+03  0.15174436151E+03  0.00000000000E+00 0.  1.
         11    1    1    2    0    0  0.27116071535E+02 -0.17427491404E+02 -0.99528454097E+00  0.32248866390E+02  0.00000000000E+00 0. -1.
</event>
<event>
 7    1  0.2791910E-009  0.1150851E+03  0.7561462E-02  0.1251433E+00
          2   -1    0    0  501    0  0.00000000000E+00  0.00000000000E+00  0.59410014986E+03  0.59410014986E+03  0.00000000000E+00 0. -1.
         -2   -1    0    0    0  501 -0.00000000000E+00 -0.00000000000E+00 -0.36578177769E+02  0.36578177769E+02  0.00000000000E+00 0.  1.
         25    2    1    2    0    0 -0.94093052817E+01  0.89932671565E+02  0.38832399736E+03  0.41787532531E+03  0.12509132720E+03 0.  0.
          5    1    3    3  502    0 -0.21571598259E+02  0.59155721753E+01  0.27640543116E+03  0.27734051745E+03  0.41800000000E+01 0.  1.
         -5    1    3    3    0  502  0.12162292977E+02  0.84017099390E+02  0.11191856620E+03  0.14053480786E+03  0.41800000000E+01 0.  1.
        -11    1    1    2    0    0  0.43648115143E+02 -0.70866247673E+02  0.80306136221E+02  0.11565577603E+03  0.00000000000E+00 0.  1.
         11    1    1    2    0    0 -0.34238809862E+02 -0.19066423892E+02  0.88891838516E+02  0.97147226288E+02  0.00000000000E+00 0. -1.
</event>
<event>
 7    1  0.2648915E-009  0.7967572E+02  0.7561462E-02  0.1329974E+00
          4   -1    0    0  501    0  0.00000000000E+00  0.00000000000E+00  0.37056093389E+03  0.37056093389E+03  0.00000000000E+00 0. -1.
         -4   -1    0    0    0  501 -0.00000000000E+00 -0.00000000000E+00 -0.40302160864E+02  0.40302160864E+02  0.00000000000E+00 0.  1.
         25    2    1    2    0    0  0.34841635528E+02 -0.14366526272E+02  0.12041227549E+03  0.17766971933E+03  0.12508827457E+03 0.  0.
          5    1    3    3  502    0 -0.89621707297E+01 -0.13885937912E+02  0.13124749511E+03  0.13234997979E+03  0.41800000000E+01 0.  1.
         -5    1    3    3    0  502  0.43803806258E+02 -0.48058835989E+00 -0.10835219626E+02  0.45319739542E+02  0.41800000000E+01 0.  1.
        -11    1    1    2    0    0  0.18215622623E+02  0.36513271981E+02  0.58770963947E+02  0.71547565588E+02  0.00000000000E+00 0.  1.
         11    1    1    2    0    0 -0.53057258151E+02 -0.22146745708E+02  0.15107553359E+03  0.16164580984E+03  0.00000000000E+00 0. -1.
</event>
<event>
 7    1  0.2648915E-009  0.1165385E+03  0.7561462E-02  0.1248919E+00
         -4   -1    0    0    0  501 -0.00000000000E+00  0.00000000000E+00  0.43604658503E+02  0.43604658503E+02  0.00000000000E+00 0.  1.
          4   -1    0    0  501    0  0.00000000000E+00 -0.00000000000E+00 -0.36201862213E+03  0.36201862213E+03  0.00000000000E+00 0. -1.
         25    2    1    2    0    0 -0.11326756842E+02  0.52388765074E+02 -0.20339663943E+03  0.24472244404E+03  0.12508398601E+03 0.  0.
          5    1    3    3  502    0 -0.38174586009E+02 -0.27262034450E+02 -0.43892789066E+02  0.64378310565E+02  0.41800000000E+01 0. -1.
         -5    1    3    3    0  502  0.26847829167E+02  0.79650799523E+02 -0.15950385037E+03  0.18034413347E+03  0.41800000000E+01 0. -1.
        -11    1    1    2    0    0  0.14845197976E+02  0.22443450808E+02 -0.66263086004E+02  0.71518423877E+02  0.00000000000E+00 0. -1.
         11    1    1    2    0    0 -0.35184411338E+01 -0.74832215881E+02 -0.48754238188E+02  0.89382412717E+02  0.00000000000E+00 0.  1.
</event>
<event>
 7    1  0.2648915E-009  0.1082673E+03  0.7561462E-02  0.1263813E+00
         -1   -1    0    0    0  501 -0.00000000000E+00  0.00000000000E+00  0.16223121174E+03  0.16223121174E+03  0.00000000000E+00 0.  1.
          1   -1    0    0  501    0  0.00000000000E+00 -0.00000000000E+00 -0.82597972725E+02  0.82597972725E+02  0.00000000000E+00 0. -1.
         25    2    1    2    0    0 -0.43517646370E+01 -0.28083404142E+02  0.12570047935E+02  0.12888684975E+03  0.12508476522E+03 0.  0.
          5    1    3    3  502    0  0.18727097029E+02 -0.72519541881E+02  0.21090269734E+02  0.77923423919E+02  0.41800000000E+01 0. -1.
         -5    1    3    3    0  502 -0.23078861666E+02  0.44436137739E+02 -0.85202217985E+01  0.50963425832E+02  0.41800000000E+01 0. -1.
        -11    1    1    2    0    0  0.39216548766E+02 -0.91446916064E+01  0.44952140612E+02  0.60351122834E+02  0.00000000000E+00 0.  1.
         11    1    1    2    0    0 -0.34864784129E+02  0.37228095748E+02  0.22111050464E+02  0.55591211878E+02  0.00000000000E+00 0. -1.
</event>
<event>
 7    1  0.2648915E-009  0.1679196E+03  0.7561462E-02  0.1180035E+00
          2   -1    0    0  501    0  0.00000000000E+00  0.00000000000E+00  0.57949198190E+03  0.57949198190E+03  0.00000000000E+00 0. -1.
         -2   -1    0    0    0  501 -0.00000000000E+00 -0.00000000000E+00 -0.67785480243E+02  0.67785480243E+02  0.00000000000E+00 0.  1.
         25    2    1    2    0    0 -0.15060205354E+03  0.62848944709E+02  0.24649958650E+03  0.32099926085E+03  0.12509001136E+03 0.  0.
          5    1    3    3  502    0 -0.51776908057E+02 -0.43048453985E+00  0.17718788796E+03  0.18464575155E+03  0.41800000000E+01 0.  1.
         -5    1    3    3    0  502 -0.98825145479E+02  0.63279429249E+02  0.69311698536E+02  0.13635350930E+03  0.41800000000E+01 0.  1.
        -11    1    1    2    0    0  0.32575001126E+02  0.37038734670E+00  0.13729353999E+03  0.14110557753E+03  0.00000000000E+00 0. -1.
         11    1    1    2    0    0  0.11802705241E+03 -0.63219332056E+02  0.12791337517E+03  0.18517262377E+03  0.00000000000E+00 0.  1.
</event>
<event>
 7    1  0.2648915E-009  0.1694904E+03  0.7561462E-02  0.1178380E+00
         -2   -1    0    0    0  501 -0.00000000000E+00  0.00000000000E+00  0.30500802627E+02  0.30500802627E+02  0.00000000000E+00 0.  1.
          2   -1    0    0  501    0  0.00000000000E+00 -0.00000000000E+00 -0.11430043328E+04  0.11430043328E+04  0.00000000000E+00 0. -1.
         25    2    1    2    0    0  0.11912304307E+03  0.75604086616E+02 -0.41463114036E+03  0.45549225876E+03  0.12509171806E+03 0.  0.
          5    1    3    3  502    0  0.19144504062E+02 -0.23764557560E+02 -0.17298890853E+03  0.17570970692E+03  0.41800000000E+01 0.  1.
         -5    1    3    3    0  502  0.99978539010E+02  0.99368644176E+02 -0.24164223183E+03  0.27978255184E+03  0.41800000000E+01 0.  1.
        -11    1    1    2    0    0 -0.86631546320E+02 -0.19488687192E+01 -0.41246989807E+03  0.42147388973E+03  0.00000000000E+00 0.  1.
         11    1    1    2    0    0 -0.32491496752E+02 -0.73655217897E+02 -0.28540249173E+03  0.29653898693E+03  0.00000000000E+00 0. -1.
</event>
<event>
 7    1  0.2648915E-009  0.1679875E+03  0.7561462E-02  0.1179963E+00
          1   -1    0    0  501    0  0.00000000000E+00  0.00000000000E+00  0.38958920051E+03  0.38958920051E+03  0.00000000000E+00 0. -1.
         -1   -1    0    0    0  501 -0.00000000000E+00 -0.00000000000E+00 -0.84235866484E+02  0.84235866484E+02  0.00000000000E+00 0.  1.
         25    2    1    2    0    0  0.12210513494E+03  0.43458767648E+02  0.24649754343E+03  0.30529902947E+03  0.12509248583E+03 0.  0.
          5    1    3    3  502    0  0.13296698707E+03  0.69612167209E+02  0.21957776434E+03  0.26600364747E+03  0.41800000000E+01 0.  1.
         -5    1    3    3    0  502 -0.10861852128E+02 -0.26153399561E+02  0.26919779097E+02  0.39295382004E+02  0.41800000000E+01 0.  1.
        -11    1    1    2    0    0 -0.63316368444E+02  0.24009657492E+02  0.17479187501E+02  0.69935314123E+02  0.00000000000E+00 0.  1.
         11    1    1    2    0    0 -0.58788766498E+02 -0.67468425140E+02  0.41376603092E+02  0.98590723400E+02  0.00000000000E+00 0. -1.
</event>
<event>
 7    1  0.2648915E-009  0.1021856E+03  0.7561462E-02  0.1275766E+00
          2   -1    0    0  501    0  0.00000000000E+00  0.00000000000E+00  0.44620894774E+03  0.44620894774E+03  0.00000000000E+00 0. -1.
         -2   -1    0    0    0  501 -0.00000000000E+00 -0.00000000000E+00 -0.42808217740E+02  0.42808217740E+02  0.00000000000E+00 0.  1.
         25    2    1    2    0    0 -0.15137383490E+02 -0.83098054501E+02  0.20015716991E+03  0.25068988937E+03  0.12509236956E+03 0.  0.
          5    1    3    3  502    0 -0.38332369525E+02 -0.58264019234E+01  0.15137556085E+03  0.15631810623E+03  0.41800000000E+01 0.  1.
         -5    1    3    3    0  502  0.23194986035E+02 -0.77271652577E+02  0.48781609064E+02  0.94371783135E+02  0.41800000000E+01 0.  1.
        -11    1    1    2    0    0  0.33206143454E+01  0.99009667236E+01 -0.88239653949E+01  0.13671795309E+02  0.00000000000E+00 0.  1.
         11    1    1    2    0    0  0.11816769145E+02  0.73197087777E+02  0.21206752548E+03  0.22465548081E+03  0.00000000000E+00 0. -1.
</event>
<event>
 7    1  0.2648915E-009  0.5672951E+02  0.7561462E-02  0.1412093E+00
         -1   -1    0    0    0  501 -0.00000000000E+00  0.00000000000E+00  0.17317856541E+03  0.17317856541E+03  0.00000000000E+00 0.  1.
          1   -1    0    0  501    0  0.00000000000E+00 -0.00000000000E+00 -0.74933748547E+02  0.74933748547E+02  0.00000000000E+00 0. -1.
         25    2    1    2    0    0  0.26878194808E+02  0.10608878355E+02  0.78230040737E+02  0.15034146788E+03  0.12509049538E+03 0.  0.
          5    1    3    3  502    0  0.44917123138E+01 -0.24575617113E+02 -0.27030400628E+02  0.37043911701E+02  0.41800000000E+01 0. -1.
         -5    1    3    3    0  502  0.22386482494E+02  0.35184495467E+02  0.10526044136E+03  0.11329755618E+03  0.41800000000E+01 0. -1.
        -11    1    1    2    0    0 -0.16541790510E+02 -0.24094465168E+02  0.53080682484E+02  0.60594826001E+02  0.00000000000E+00 0.  1.
         11    1    1    2    0    0 -0.10336404298E+02  0.13485586814E+02 -0.33065906358E+02  0.37176020078E+02  0.00000000000E+00 0. -1.
</event>
<event>
 7    1  0.2648915E-009  0.9906216E+02  0.7561462E-02  0.1282281E+00
         -1   -1    0    0    0  501 -0.00000000000E+00  0.00000000000E+00  0.20691815716E+02  0.20691815716E+02  0.00000000000E+00 0.  1.
          1   -1    0    0  501    0  0.00000000000E+00 -0.00000000000E+00 -0.59521974787E+03  0.59521974787E+03  0.00000000000E+00 0. -1.
         25    2    1    2    0    0  0.17006337036E+02  0.55350178504E+00 -0.37857182834E+03  0.39906395273E+03  0.12508352126E+03 0.  0.
          5    1    3    3  502    0  0.51351773243E+02  0.45618012835E+02 -0.18775155914E+03  0.19996531717E+03  0.41800000000E+01 0. -1.
         -5    1    3    3    0  502 -0.34345436207E+02 -0.45064511050E+02 -0.19082026920E+03  0.19909863556E+03  0.41800000000E+01 0. -1.
        -11    1    1    2    0    0 -0.41731730968E+02  0.13739914180E+02 -0.43814398673E+02  0.62048562774E+02  0.00000000000E+00 0.  1.
         11    1    1    2    0    0  0.24725393931E+02 -0.14293415965E+02 -0.15214170514E+03  0.15479904808E+03  0.00000000000E+00 0. -1.
</event>
<event>
 7    1  0.2648915E-009  0.9515494E+02  0.7561462E-02  0.1290828E+00
          4   -1    0    0  501    0  0.00000000000E+00  0.00000000000E+00  0.29476216700E+03  0.29476216700E+03  0.00000000000E+00 0. -1.
         -4   -1    0    0    0  501 -0.00000000000E+00 -0.00000000000E+00 -0.53478596675E+02  0.53478596675E+02  0.00000000000E+00 0.  1.
         25    2    1    2    0    0  0.51044946854E+01 -0.28738878770E+02  0.57634249418E+02  0.14078863507E+03  0.12509098305E+03 0.  0.
          5    1    3    3  502    0 -0.50426766034E+02  0.87098271454E+01  0.52578830545E+02  0.73489629493E+02  0.41800000000E+01 0. -1.
         -5    1    3    3    0  502  0.55531260719E+02 -0.37448705915E+02  0.50554188725E+01  0.67299005578E+02  0.41800000000E+01 0. -1.
        -11    1    1    2    0    0 -0.14917591134E+02 -0.18411539635E+02  0.75261185355E+01  0.24862859393E+02  0.00000000000E+00 0.  1.
         11    1    1    2    0    0  0.98130964485E+01  0.47150418405E+02  0.17612320238E+03  0.18258926922E+03  0.00000000000E+00 0. -1.
</event>
<event>
 7    1  0.4083348E-009  0.1742333E+03  0.7561462E-02  0.1173504E+00
         -1   -1    0    0    0  501 -0.00000000000E+00  0.00000000000E+00  0.36767507996E+02  0.36767507996E+02  0.00000000000E+00 0.  1.
          1   -1    0    0  501    0  0.00000000000E+00 -0.00000000000E+00 -0.87964069398E+03  0.87964069398E+03  0.00000000000E+00 0. -1.
         25    2    1    2    0    0  0.14033834440E+03 -0.25715973976E+02 -0.46539875280E+03  0.50259029457E+03  0.12507934626E+03 0.  0.
          5    1    3    3  502    0  0.97513813284E+02  0.39933618652E+02 -0.32573247519E+03  0.34237808848E+03  0.41800000000E+01 0. -1.
         -5    1    3    3    0  502  0.42824531117E+02 -0.65649592628E+02 -0.13966627761E+03  0.16021220609E+03  0.41800000000E+01 0. -1.
        -11    1    1    2    0    0 -0.70288990429E+02 -0.28590642048E+02 -0.22502459433E+03  0.23747428291E+03  0.00000000000E+00 0.  1.
         11    1    1    2    0    0 -0.70049353972E+02  0.54306616024E+02 -0.15244983886E+03  0.17634362450E+03  0.00000000000E+00 0. -1.
</event>
<event>
 7    1  0.2648915E-009  0.1478256E+03  0.7561462E-02  0.1203171E+00
         -1   -1    0    0    0  501 -0.00000000000E+00  0.00000000000E+00  0.60743447134E+02  0.60743447134E+02  0.00000000000E+00 0.  1.
          1   -1    0    0  501    0  0.00000000000E+00 -0.00000000000E+00 -0.39883172183E+03  0.39883172183E+03  0.00000000000E+00 0. -1.
         25    2    1    2    0    0  0.10257345135E+03 -0.27981155262E+02 -0.13253171967E+03  0.21098866753E+03  0.12508918072E+03 0.  0.
          5    1    3    3  502    0 -0.28043130428E+02 -0.13730909482E+02 -0.16081450091E+02  0.35370050557E+02  0.41800000000E+01 0.  1.
         -5    1    3    3    0  502  0.13061658178E+03 -0.14250245781E+02 -0.11645026958E+03  0.17561861697E+03  0.41800000000E+01 0.  1.
        -11    1    1    2    0    0 -0.88519085634E+02 -0.12906093822E+02 -0.17194612708E+03  0.19382380245E+03  0.00000000000E+00 0. -1.
         11    1    1    2    0    0 -0.14054365717E+02  0.40887249085E+02 -0.33610427937E+02  0.54762698980E+02  0.00000000000E+00 0.  1.
</event>
<event>
 7    1  0.2648915E-009  0.9720092E+02  0.7561462E-02  0.1286295E+00
         -1   -1    0    0    0  501 -0.00000000000E+00  0.00000000000E+00  0.15128900834E+02  0.15128900834E+02  0.00000000000E+00 0.  1.
          1   -1    0    0  501    0  0.00000000000E+00 -0.00000000000E+00 -0.11281091684E+04  0.11281091684E+04  0.00000000000E+00 0. -1.
         25    2    1    2    0    0  0.57686582698E+01  0.36837080157E+02 -0.88178325811E+03  0.89139185904E+03  0.12508990440E+03 0.  0.
          5    1    3    3  502    0  0.48219692973E+02  0.15287635245E+02 -0.74064018983E+03  0.74237740657E+03  0.41800000000E+01 0. -1.
         -5    1    3    3    0  502 -0.42451034703E+02  0.21549444912E+02 -0.14114306827E+03  0.14901445247E+03  0.41800000000E+01 0. -1.
        -11    1    1    2    0    0 -0.24659826858E+02  0.22622882192E+02 -0.49622349045E+02  0.59852146027E+02  0.00000000000E+00 0.  1.
         11    1    1    2    0    0  0.18891168588E+02 -0.59459962348E+02 -0.18157466045E+03  0.19199406421E+03  0.00000000000E+00 0. -1.
</event>
<event>
 7    1  0.2648915E-009  0.1227611E+03  0.7561462E-02  0.1238610E+00
         -1   -1    0    0    0  501 -0.00000000000E+00  0.00000000000E+00  0.16714216742E+02  0.16714216742E+02  0.00000000000E+00 0.  1.
          1   -1    0    0  501    0  0.00000000000E+00 -0.00000000000E+00 -0.92621708103E+03  0.92621708103E+03  0.00000000000E+00 0. -1.
         25    2    1    2    0    0 -0.32867026072E+02  0.52095540499E+02 -0.53084932556E+03  0.54885715003E+03  0.12509587502E+03 0.  0.
          5    1    3    3  502    0 -0.46284907402E+02 -0.28992629022E+02 -0.26327871387E+03  0.26891637877E+03  0.41800000000E+01 0.  1.
         -5    1    3    3    0  502  0.13417881330E+02  0.81088169521E+02 -0.26757061168E+03  0.27994077126E+03  0.41800000000E+01 0.  1.
        -11    1    1    2    0    0  0.47748772207E+02  0.63229433331E+01 -0.14614248840E+03  0.15387511747E+03  0.00000000000E+00 0.  1.
         11    1    1    2    0    0 -0.14881746135E+02 -0.58418483832E+02 -0.23251105033E+03  0.24019903028E+03  0.00000000000E+00 0. -1.
</event>
<event>
 7    1  0.2648915E-009  0.1583102E+03  0.7561462E-02  0.1190618E+00
          1   -1    0    0  501    0  0.00000000000E+00  0.00000000000E+00  0.35523291156E+03  0.35523291156E+03  0.00000000000E+00 0. -1.
         -1   -1    0    0    0  501 -0.00000000000E+00 -0.00000000000E+00 -0.11840426860E+03  0.11840426860E+03  0.00000000000E+00 0.  1.
         25    2    1    2    0    0 -0.11403136326E+03 -0.74330675576E+02  0.24790119972E+03  0.30924204769E+03  0.12508972019E+03 0.  0.
          5    1    3    3  502    0 -0.90946518794E+02  0.11245674518E+02  0.92391862190E+02  0.13019778445E+03  0.41800000000E+01 0. -1.
         -5    1    3    3    0  502 -0.23084844464E+02 -0.85576350094E+02  0.15550933753E+03  0.17904426324E+03  0.41800000000E+01 0. -1.
        -11    1    1    2    0    0  0.96096406058E+02  0.63938540380E+02 -0.45615226758E+02  0.12411045530E+03  0.00000000000E+00 0.  1.
         11    1    1    2    0    0  0.17934957200E+02  0.10392135197E+02  0.34542670000E+02  0.40284677167E+02  0.00000000000E+00 0. -1.
</event>
<event>
 7    1  0.2648915E-009  0.1034001E+03  0.7561462E-02  0.1273304E+00
         -2   -1    0    0    0  501 -0.00000000000E+00  0.00000000000E+00  0.22978386715E+02  0.22978386715E+02  0.00000000000E+00 0.  1.
          2   -1    0    0  501    0  0.00000000000E+00 -0.00000000000E+00 -0.52746270872E+03  0.52746270872E+03  0.00000000000E+00 0. -1.
         25    2    1    2    0    0  0.14972778902E+02 -0.13575932028E+02 -0.26299505613E+03  0.29192129019E+03  0.12507257925E+03 0.  0.
          5    1    3    3  502    0  0.66726621271E+02  0.16082996669E+01 -0.10101712289E+03  0.12114850445E+03  0.41800000000E+01 0.  1.
         -5    1    3    3    0  502 -0.51753842369E+02 -0.15184231694E+02 -0.16197793324E+03  0.17077278574E+03  0.41800000000E+01 0.  1.
        -11    1    1    2    0    0  0.59032847947E+01 -0.33664851938E+02 -0.14611256010E+03  0.15005682673E+03  0.00000000000E+00 0. -1.
         11    1    1    2    0    0 -0.20876063696E+02  0.47240783966E+02 -0.95376705770E+02  0.10846297852E+03  0.00000000000E+00 0.  1.
</event>
<event>
 7    1  0.2648915E-009  0.1061972E+03  0.7561462E-02  0.1267779E+00
          3   -1    0    0  501    0  0.00000000000E+00  0.00000000000E+00  0.64331946957E+02  0.64331946957E+02  0.00000000000E+00 0. -1.
         -3   -1    0    0    0  501 -0.00000000000E+00 -0.00000000000E+00 -0.25294105825E+03  0.25294105825E+03  0.00000000000E+00 0.  1.
         25    2    1    2    0    0 -0.16080000358E+02 -0.59864014004E+02 -0.14209264560E+03  0.19919743299E+03  0.12508809212E+03 0.  0.
          5    1    3    3  502    0  0.38686246633E+02 -0.57833130482E+02 -0.33173616608E+02  0.77196229822E+02  0.41800000000E+01 0.  1.
         -5    1    3    3    0  502 -0.54766246990E+02 -0.20308835218E+01 -0.10891902899E+03  0.12200120317E+03  0.41800000000E+01 0.  1.
        -11    1    1    2    0    0  0.31350139794E+02  0.64544338215E+02 -0.31083020426E+01  0.71822450546E+02  0.00000000000E+00 0. -1.
         11    1    1    2    0    0 -0.15270139437E+02 -0.46803242115E+01 -0.43408163653E+02  0.46253121677E+02  0.00000000000E+00 0.  1.
</event>
<event>
 7    1  0.2648915E-009  0.1658584E+03  0.7561462E-02  0.1182237E+00
         -2   -1    0    0    0  501 -0.00000000000E+00  0.00000000000E+00  0.14032118745E+03  0.14032118745E+03  0.00000000000E+00 0.  1.
          2   -1    0    0  501    0  0.00000000000E+00 -0.00000000000E+00 -0.24621487060E+03  0.24621487060E+03  0.00000000000E+00 0. -1.
         25    2    1    2    0    0 -0.12682034587E+03  0.54924663298E+02  0.46968546518E+01  0.18645816412E+03  0.12507784680E+03 0.  0.
          5    1    3    3  502    0 -0.11594480638E+03 -0.32085878123E+01 -0.27091911448E+02  0.11918446722E+03  0.41800000000E+01 0. -1.
         -5    1    3    3    0  502 -0.10875539489E+02  0.58133251110E+02  0.31788766100E+02  0.67273696895E+02  0.41800000000E+01 0. -1.
        -11    1    1    2    0    0  0.13559289403E+03 -0.44433949608E+02 -0.73414708037E+02  0.16046659511E+03  0.00000000000E+00 0.  1.
         11    1    1    2    0    0 -0.87725481678E+01 -0.10490713690E+02 -0.37175829767E+02  0.39611298816E+02  0.00000000000E+00 0. -1.
</event>
<event>
 7    1  0.2648915E-009  0.1163206E+03  0.7561462E-02  0.1249293E+00
          1   -1    0    0  501    0  0.00000000000E+00  0.00000000000E+00  0.37919969222E+02  0.37919969222E+02  0.00000000000E+00 0. -1.
         -1   -1    0    0    0  501 -0.00000000000E+00 -0.00000000000E+00 -0.41223378650E+03  0.41223378650E+03  0.00000000000E+00 0.  1.
         25    2    1    2    0    0  0.69118652036E+02 -0.14737512191E+02 -0.23973066345E+03  0.27948626654E+03  0.12508876793E+03 0.  0.
          5    1    3    3  502    0  0.41110390511E+02 -0.66226804933E+02 -0.17744219335E+03  0.19385370330E+03  0.41800000000E+01 0. -1.
         -5    1    3    3    0  502  0.28008261525E+02  0.51489292742E+02 -0.62288470099E+02  0.85632563245E+02  0.41800000000E+01 0.  1.
        -11    1    1    2    0    0 -0.66634586648E+02 -0.13065538533E+02 -0.12289225475E+03  0.14040435432E+03  0.00000000000E+00 0.  1.
         11    1    1    2    0    0 -0.24840653876E+01  0.27803050724E+02 -0.11690899080E+02  0.30263134863E+02  0.00000000000E+00 0. -1.
</event>
<event>
 7    1  0.2648915E-009  0.8394019E+02  0.7561462E-02  0.1318228E+00
          2   -1    0    0  501    0  0.00000000000E+00  0.00000000000E+00  0.21646488477E+03  0.21646488477E+03  0.00000000000E+00 0. -1.
         -2   -1    0    0    0  501 -0.00000000000E+00 -0.00000000000E+00 -0.73446357341E+02  0.73446357341E+02  0.00000000000E+00 0.  1.
         25    2    1    2    0    0  0.18147846162E+02 -0.38554380287E+02  0.23748595469E+02  0.13426203422E+03  0.12508602435E+03 0.  0.
          5    1    3    3  502    0  0.31115266287E+02  0.33951688544E+02  0.37103968508E+02  0.59287889405E+02  0.41800000000E+01 0.  1.
         -5    1    3    3    0  502 -0.12967420125E+02 -0.72506068831E+02 -0.13355373038E+02  0.74974144817E+02  0.41800000000E+01 0.  1.
        -11    1    1    2    0    0 -0.18827440887E+02  0.14409930403E+02 -0.88240080681E+01  0.25297860443E+02  0.00000000000E+00 0.  1.
         11    1    1    2    0    0  0.67959472507E+00  0.24144449884E+02  0.12809394002E+03  0.13035134744E+03  0.00000000000E+00 0. -1.
</event>
<event>
 7    1  0.2648915E-009  0.1424246E+03  0.7561462E-02  0.1210103E+00
          2   -1    0    0  501    0  0.00000000000E+00  0.00000000000E+00  0.17693360894E+03  0.17693360894E+03  0.00000000000E+00 0. -1.
         -2   -1    0    0    0  501 -0.00000000000E+00 -0.00000000000E+00 -0.13264042306E+03  0.13264042306E+03  0.00000000000E+00 0.  1.
         25    2    1    2    0    0 -0.60375912175E+02 -0.89348781624E+02  0.13817337612E+02  0.16573501190E+03  0.12509484323E+03 0.  0.
          5    1    3    3  502    0  0.33684637606E+02 -0.54686006187E+02  0.11460389166E+02  0.65376043037E+02  0.41800000000E+01 0.  1.
         -5    1    3    3    0  502 -0.94060549780E+02 -0.34662775437E+02  0.23569484459E+01  0.10035896887E+03  0.41800000000E+01 0.  1.
        -11    1    1    2    0    0  0.40192118695E+02  0.14653702271E+02  0.48214617080E+02  0.64457634890E+02  0.00000000000E+00 0. -1.
         11    1    1    2    0    0  0.20183793479E+02  0.74695079353E+02 -0.17738768805E+02  0.79381385208E+02  0.00000000000E+00 0.  1.
</event>
<event>
 7    1  0.2648915E-009  0.1158236E+03  0.7561462E-02  0.1250150E+00
         -2   -1    0    0    0  501 -0.00000000000E+00  0.00000000000E+00  0.22138906320E+02  0.22138906320E+02  0.00000000000E+00 0.  1.
          2   -1    0    0  501    0  0.00000000000E+00 -0.00000000000E+00 -0.65608673504E+03  0.65608673504E+03  0.00000000000E+00 0. -1.
         25    2    1    2    0    0 -0.22425263594E+02 -0.36206080052E+02 -0.44353750957E+03  0.46280350155E+03  0.12509111066E+03 0.  0.
          5    1    3    3  502    0 -0.52964579002E+02 -0.68936249583E+02 -0.30269099494E+03  0.31495517769E+03  0.41800000000E+01 0.  1.
         -5    1    3    3    0  502  0.30539315407E+02  0.32730169531E+02 -0.14084651463E+03  0.14784832386E+03  0.41800000000E+01 0.  1.
        -11    1    1    2    0    0 -0.11089251653E+02  0.58408337808E+02 -0.97638376384E+02  0.11431429469E+03  0.00000000000E+00 0.  1.
         11    1    1    2    0    0  0.33514515247E+02 -0.22202257755E+02 -0.92771942767E+02  0.10110784513E+03  0.00000000000E+00 0. -1.
</event>
<event>
 7    1  0.2648915E-009  0.2325946E+03  0.7561462E-02  0.1124827E+00
         -1   -1    0    0    0  501 -0.00000000000E+00  0.00000000000E+00  0.14644371309E+03  0.14644371309E+03  0.00000000000E+00 0.  1.
          1   -1    0    0  501    0  0.00000000000E+00 -0.00000000000E+00 -0.37270835721E+03  0.37270835721E+03  0.00000000000E+00 0. -1.
         25    2    1    2    0    0 -0.20010805529E+03 -0.37846257780E+02 -0.13264642912E+03  0.27334537378E+03  0.12508814968E+03 0.  0.
          5    1    3    3  502    0 -0.96225866861E+02 -0.81569232577E+02 -0.69552546291E+02  0.14411102058E+03  0.41800000000E+01 0.  1.
         -5    1    3    3    0  502 -0.10388218842E+03  0.43722974797E+02 -0.63093882830E+02  0.12923435320E+03  0.41800000000E+01 0.  1.
        -11    1    1    2    0    0  0.11208647600E+03  0.70374339388E+02 -0.42834677547E+02  0.13910692056E+03  0.00000000000E+00 0. -1.
         11    1    1    2    0    0  0.88021579284E+02 -0.32528081608E+02 -0.50783537451E+02  0.10669977595E+03  0.00000000000E+00 0.  1.
</event>
<event>
 7    1  0.2648915E-009  0.8349601E+02  0.7561462E-02  0.1319413E+00
          1   -1    0    0  501    0  0.00000000000E+00  0.00000000000E+00  0.18107299054E+03  0.18107299054E+03  0.00000000000E+00 0. -1.
         -1   -1    0    0    0  501 -0.00000000000E+00 -0.00000000000E+00 -0.10690538989E+03  0.10690538989E+03  0.00000000000E+00 0.  1.
         25    2    1    2    0    0 -0.61307716412E+02  0.40738833826E+02 -0.79858947427E+01  0.14535622998E+03  0.12508545242E+03 0.  0.
          5    1    3    3  502    0 -0.24627783472E+02  0.43624135416E+02 -0.62030478011E+02  0.79842629665E+02  0.41800000000E+01 0. -1.
         -5    1    3    3    0  502 -0.36679932939E+02 -0.28853015902E+01  0.54044583268E+02  0.65513600316E+02  0.41800000000E+01 0. -1.
        -11    1    1    2    0    0  0.22318360668E+02  0.12998101705E+01  0.82303671593E+02  0.85285948942E+02  0.00000000000E+00 0. -1.
         11    1    1    2    0    0  0.38989355744E+02 -0.42038643997E+02 -0.15017619248E+00  0.57336201507E+02  0.00000000000E+00 0.  1.
</event>
<event>
 7    1  0.2648915E-009  0.9347182E+02  0.7561462E-02  0.1294655E+00
         -2   -1    0    0    0  501 -0.00000000000E+00  0.00000000000E+00  0.70452688532E+02  0.70452688532E+02  0.00000000000E+00 0.  1.
          2   -1    0    0  501    0  0.00000000000E+00 -0.00000000000E+00 -0.21345236930E+03  0.21345236930E+03  0.00000000000E+00 0. -1.
         25    2    1    2    0    0  0.35171829607E-01 -0.46157659636E+02 -0.41360752178E+02  0.13960498213E+03  0.12509319900E+03 0.  0.
          5    1    3    3  502    0  0.52315835638E+02 -0.22371105982E+02 -0.56253802730E+02  0.80121007001E+02  0.41800000000E+01 0. -1.
         -5    1    3    3    0  502 -0.52280663808E+02 -0.23786553653E+02  0.14893050552E+02  0.59483975133E+02  0.41800000000E+01 0. -1.
        -11    1    1    2    0    0  0.27527451803E+02  0.28188524285E+02 -0.10409884814E+03  0.11130554204E+03  0.00000000000E+00 0. -1.
         11    1    1    2    0    0 -0.27562623633E+02  0.17969135351E+02  0.24599195557E+01  0.32994533653E+02  0.00000000000E+00 0.  1.
</event>
<event>
 7    1  0.2648915E-009  0.1281937E+03  0.7561462E-02  0.1230161E+00
          1   -1    0    0  501    0  0.00000000000E+00  0.00000000000E+00  0.10181802893E+04  0.10181802893E+04  0.00000000000E+00 0. -1.
         -1   -1    0    0    0  501 -0.00000000000E+00 -0.00000000000E+00 -0.19209123203E+02  0.19209123203E+02  0.00000000000E+00 0.  1.
         25    2    1    2    0    0  0.77157925537E+02 -0.71330841100E+01  0.60595587161E+03  0.62356516458E+03  0.12508704875E+03 0.  0.
          5    1    3    3  502    0  0.93138250280E+02  0.27227436195E+02  0.30216241976E+03  0.31738882661E+03  0.41800000000E+01 0. -1.
         -5    1    3    3    0  502 -0.15980324743E+02 -0.34360520306E+02  0.30379345186E+03  0.30617633796E+03  0.41800000000E+01 0. -1.
        -11    1    1    2    0    0 -0.35120997905E+02  0.49996800887E+02  0.27145891803E+03  0.27825008315E+03  0.00000000000E+00 0.  1.
         11    1    1    2    0    0 -0.42036927632E+02 -0.42863716777E+02  0.12155637647E+03  0.13557416480E+03  0.00000000000E+00 0. -1.
</event>
<event>
 7    1  0.2648915E-009  0.9065030E+02  0.7561462E-02  0.1301285E+00
         -2   -1    0    0    0  501 -0.00000000000E+00  0.00000000000E+00  0.17092330716E+03  0.17092330716E+03  0.00000000000E+00 0.  1.
          2   -1    0    0  501    0  0.00000000000E+00 -0.00000000000E+00 -0.96121792589E+02  0.96121792589E+02  0.00000000000E+00 0. -1.
         25    2    1    2    0    0  0.12345144982E+02 -0.37292502081E+01  0.11137512207E+03  0.16798498837E+03  0.12509287985E+03 0.  0.
          5    1    3    3  502    0  0.21125069666E+02 -0.45693846382E+02  0.21357746886E+01  0.50559174232E+02  0.41800000000E+01 0. -1.
         -5    1    3    3    0  502 -0.87799246840E+01  0.41964596174E+02  0.10923934738E+03  0.11742581413E+03  0.41800000000E+01 0. -1.
        -11    1    1    2    0    0  0.23967502618E+02 -0.29829322372E+02 -0.12351627143E+01  0.38285183582E+02  0.00000000000E+00 0. -1.
         11    1    1    2    0    0 -0.36312647600E+02  0.33558572581E+02 -0.35338444782E+02  0.60774927799E+02  0.00000000000E+00 0.  1.
</event>
<event>
 7    1  0.2648915E-009  0.1115557E+03  0.7561462E-02  0.1257716E+00
          2   -1    0    0  501    0  0.00000000000E+00  0.00000000000E+00  0.13808269906E+04  0.13808269906E+04  0.00000000000E+00 0. -1.
         -2   -1    0    0    0  501 -0.00000000000E+00 -0.00000000000E+00 -0.15030857578E+02  0.15030857578E+02  0.00000000000E+00 0.  1.
         25    2    1    2    0    0 -0.34352725893E+02 -0.89798703577E+01  0.11655574150E+04  0.11727881730E+04  0.12508902135E+03 0.  0.
          5    1    3    3  502    0 -0.68239928828E+02 -0.41701601992E+02  0.61262351557E+03  0.61783554100E+03  0.41800000000E+01 0. -1.
         -5    1    3    3    0  502  0.33887202935E+02  0.32721731634E+02  0.55293389939E+03  0.55495263198E+03  0.41800000000E+01 0. -1.
        -11    1    1    2    0    0  0.56224281988E+02 -0.19782899174E+02  0.98786065257E+02  0.11537425915E+03  0.00000000000E+00 0.  1.
         11    1    1    2    0    0 -0.21871556095E+02  0.28762769532E+02  0.10145265277E+03  0.10769541602E+03  0.00000000000E+00 0. -1.
</event>
<event>
 7    1  0.2648915E-009  0.1120558E+03  0.7561462E-02  0.1256810E+00
          4   -1    0    0  501    0  0.00000000000E+00  0.00000000000E+00  0.10725842100E+03  0.10725842100E+03  0.00000000000E+00 0. -1.
         -4   -1    0    0    0  501 -0.00000000000E+00 -0.00000000000E+00 -0.13713520434E+03  0.13713520434E+03  0.00000000000E+00 0.  1.
         25    2    1    2    0    0 -0.20146422331E+02 -0.47375674014E+02 -0.44506222795E+01  0.13534232656E+03  0.12508958589E+03 0.  0.
          5    1    3    3  502    0  0.41231139706E+02  0.34653000503E+01  0.26974493546E+02  0.49569253454E+02  0.41800000000E+01 0. -1.
         -5    1    3    3    0  502 -0.61377562038E+02 -0.50840974064E+02 -0.31425115826E+02  0.85773073107E+02  0.41800000000E+01 0. -1.
        -11    1    1    2    0    0  0.52844674162E+02  0.11324479455E+02 -0.26876930950E+02  0.60358701440E+02  0.00000000000E+00 0.  1.
         11    1    1    2    0    0 -0.32698251831E+02  0.36051194559E+02  0.14507698881E+01  0.48692597334E+02  0.00000000000E+00 0. -1.
</event>
<event>
 7    1  0.2648915E-009  0.1072342E+03  0.7561462E-02  0.1265779E+00
         -2   -1    0    0    0  501 -0.00000000000E+00  0.00000000000E+00  0.35402793717E+02  0.35402793717E+02  0.00000000000E+00 0.  1.
          2   -1    0    0  501    0  0.00000000000E+00 -0.00000000000E+00 -0.38427034702E+03  0.38427034702E+03  0.00000000000E+00 0. -1.
         25    2    1    2    0    0 -0.59265630969E+01  0.34039149005E+02 -0.14851352603E+03  0.19722666304E+03  0.12509317081E+03 0.  0.
          5    1    3    3  502    0 -0.61319692068E+02  0.33858226780E+02 -0.58057300816E+02  0.91074731589E+02  0.41800000000E+01 0.  1.
         -5    1    3    3    0  502  0.55393128971E+02  0.18092222480E+00 -0.90456225214E+02  0.10615193145E+03  0.41800000000E+01 0.  1.
        -11    1    1    2    0    0 -0.26759942673E+02 -0.46594036836E+02 -0.74781178412E+02  0.92083241935E+02  0.00000000000E+00 0.  1.
         11    1    1    2    0    0  0.32686505770E+02  0.12554887831E+02 -0.12557284886E+03  0.13036323576E+03  0.00000000000E+00 0. -1.
</event>
<event>
 7    1  0.2648915E-009  0.9844052E+02  0.7561462E-02  0.1283610E+00
          1   -1    0    0  501    0  0.00000000000E+00  0.00000000000E+00  0.29890008824E+03  0.29890008824E+03  0.00000000000E+00 0. -1.
         -1   -1    0    0    0  501 -0.00000000000E+00 -0.00000000000E+00 -0.76172879508E+02  0.76172879508E+02  0.00000000000E+00 0.  1.
         25    2    1    2    0    0 -0.17184866617E+02  0.45024614096E+02  0.19666682376E+03  0.23800897903E+03  0.12509156253E+03 0.  0.
          5    1    3    3  502    0  0.11381841212E+02  0.70931409404E+02  0.18340057080E+03  0.19701282425E+03  0.41800000000E+01 0. -1.
         -5    1    3    3    0  502 -0.28566707829E+02 -0.25906795308E+02  0.13266252968E+02  0.40996154785E+02  0.41800000000E+01 0. -1.
        -11    1    1    2    0    0  0.43465948399E+02 -0.40602556620E+02  0.66128091367E+02  0.88942569909E+02  0.00000000000E+00 0. -1.
         11    1    1    2    0    0 -0.26281081781E+02 -0.44220574760E+01 -0.40067706399E+02  0.48121418807E+02  0.00000000000E+00 0.  1.
</event>
<event>
 7    1  0.2648915E-009  0.1237742E+03  0.7561462E-02  0.1236998E+00
          1   -1    0    0  501    0  0.00000000000E+00  0.00000000000E+00  0.49916767813E+02  0.49916767813E+02  0.00000000000E+00 0. -1.
         -1   -1    0    0    0  501 -0.00000000000E+00 -0.00000000000E+00 -0.48488237373E+03  0.48488237373E+03  0.00000000000E+00 0.  1.
         25    2    1    2    0    0  0.48065600224E+02 -0.98470024998E+02 -0.25367741044E+03  0.30332540111E+03  0.12508965841E+03 0.  0.
          5    1    3    3  502    0 -0.61123955061E+01 -0.60445561611E+02 -0.26053957897E+02  0.66236760332E+02  0.41800000000E+01 0.  1.
         -5    1    3    3    0  502  0.54177995730E+02 -0.38024463387E+02 -0.22762345254E+03  0.23708864078E+03  0.41800000000E+01 0.  1.
        -11    1    1    2    0    0 -0.91532332627E+01  0.73558195010E+02 -0.43052867060E+02  0.85721287289E+02  0.00000000000E+00 0. -1.
         11    1    1    2    0    0 -0.38912366961E+02  0.24911829988E+02 -0.13823532842E+03  0.14575245315E+03  0.00000000000E+00 0.  1.
</event>
<event>
 7    1  0.2648915E-009  0.2150665E+03  0.7561462E-02  0.1137616E+00
         -1   -1    0    0    0  501 -0.00000000000E+00  0.00000000000E+00  0.11040154975E+03  0.11040154975E+03  0.00000000000E+00 0.  1.
          1   -1    0    0  501    0  0.00000000000E+00 -0.00000000000E+00 -0.50203005856E+03  0.50203005856E+03  0.00000000000E+00 0. -1.
         25    2    1    2    0    0  0.15625861752E+03  0.12727844305E+03 -0.26354327486E+03  0.35456822661E+03  0.12508801694E+03 0.  0.
          5    1    3    3  502    0  0.98777803245E+02  0.28093083733E+02 -0.55035171297E+02  0.11658738460E+03  0.41800000000E+01 0. -1.
         -5    1    3    3    0  502  0.57480814272E+02  0.99185359321E+02 -0.20850810356E+03  0.23798084201E+03  0.41800000000E+01 0. -1.
        -11    1    1    2    0    0 -0.96276499439E+02 -0.11743345944E+03 -0.12553550931E+03  0.19702524162E+03  0.00000000000E+00 0. -1.
         11    1    1    2    0    0 -0.59982118079E+02 -0.98449836166E+01 -0.25497246427E+01  0.60838140072E+02  0.00000000000E+00 0.  1.
</event>
<event>
 7    1  0.2648915E-009  0.9703322E+02  0.7561462E-02  0.1286661E+00
          4   -1    0    0  501    0  0.00000000000E+00  0.00000000000E+00  0.30630573114E+02  0.30630573114E+02  0.00000000000E+00 0. -1.
         -4   -1    0    0    0  501 -0.00000000000E+00 -0.00000000000E+00 -0.49533761350E+03  0.49533761350E+03  0.00000000000E+00 0.  1.
         25    2    1    2    0    0  0.34580529500E+02  0.48808304139E+02 -0.27946766416E+03  0.31197355126E+03  0.12508899953E+03 0.  0.
          5    1    3    3  502    0 -0.15548048076E+02  0.66896958319E+02 -0.22649682848E+03  0.23671761772E+03  0.41800000000E+01 0.  1.
         -5    1    3    3    0  502  0.50128577575E+02 -0.18088654180E+02 -0.52970835687E+02  0.75255933541E+02  0.41800000000E+01 0.  1.
        -11    1    1    2    0    0  0.76248291283E+01 -0.18003996393E+02  0.19503724921E+01  0.19649067617E+02  0.00000000000E+00 0. -1.
         11    1    1    2    0    0 -0.42205358628E+02 -0.30804307746E+02 -0.18718974872E+03  0.19434556773E+03  0.00000000000E+00 0.  1.
</event>
<event>
 7    1  0.2648915E-009  0.1149580E+03  0.7561462E-02  0.1251654E+00
         -2   -1    0    0    0  501 -0.00000000000E+00  0.00000000000E+00  0.41366101544E+03  0.41366101544E+03  0.00000000000E+00 0.  1.
          2   -1    0    0  501    0  0.00000000000E+00 -0.00000000000E+00 -0.40270479975E+02  0.40270479975E+02  0.00000000000E+00 0. -1.
         25    2    1    2    0    0  0.26723997043E+02 -0.63926018853E+02  0.20155285333E+03  0.24712729482E+03  0.12509052424E+03 0.  0.
          5    1    3    3  502    0  0.63715766473E+02 -0.13051796168E+02  0.47413488266E+02  0.80595034276E+02  0.41800000000E+01 0. -1.
         -5    1    3    3    0  502 -0.36991769429E+02 -0.50874222685E+02  0.15413936507E+03  0.16653226055E+03  0.41800000000E+01 0. -1.
        -11    1    1    2    0    0  0.25248427641E+02  0.31793606792E+02  0.24797547049E+02  0.47573468140E+02  0.00000000000E+00 0. -1.
         11    1    1    2    0    0 -0.51972424685E+02  0.32132412062E+02  0.14704013508E+03  0.15923073245E+03  0.00000000000E+00 0.  1.
</event>
<event>
 7    1  0.2648915E-009  0.1075563E+03  0.7561462E-02  0.1265163E+00
          2   -1    0    0  501    0  0.00000000000E+00  0.00000000000E+00  0.52167573847E+03  0.52167573847E+03  0.00000000000E+00 0.  1.
         -2   -1    0    0    0  501 -0.00000000000E+00 -0.00000000000E+00 -0.24760357032E+02  0.24760357032E+02  0.00000000000E+00 0. -1.
         25    2    1    2    0    0 -0.23937959265E+02 -0.73284076366E+01  0.34357565177E+03  0.36649381562E+03  0.12508699750E+03 0.  0.
          5    1    3    3  502    0 -0.13686388096E+01 -0.63383363807E+02  0.21804493293E+03  0.22711316377E+03  0.41800000000E+01 0.  1.
         -5    1    3    3    0  502 -0.22569320456E+02  0.56054956171E+02  0.12553071884E+03  0.13938065185E+03  0.41800000000E+01 0.  1.
        -11    1    1    2    0    0 -0.17423521985E+02  0.36463069775E+02  0.45696330216E+02  0.61002370207E+02  0.00000000000E+00 0.  1.
         11    1    1    2    0    0  0.41361481250E+02 -0.29134662138E+02  0.10764339946E+03  0.11893990968E+03  0.00000000000E+00 0. -1.
</event>
<event>
 7    1  0.2648915E-009  0.7312677E+02  0.7561462E-02  0.1349772E+00
         -1   -1    0    0    0  501 -0.00000000000E+00  0.00000000000E+00  0.16611501925E+02  0.16611501925E+02  0.00000000000E+00 0.  1.
          1   -1    0    0  501    0  0.00000000000E+00 -0.00000000000E+00 -0.78438527010E+03  0.78438527010E+03  0.00000000000E+00 0. -1.
         25    2    1    2    0    0  0.93756198791E+01  0.72187750916E+01 -0.55782078277E+03  0.57179656982E+03  0.12508908266E+03 0.  0.
          5    1    3    3  502    0  0.27542552954E+02 -0.21505767673E+02 -0.51834399067E+03  0.51953734739E+03  0.41800000000E+01 0.  1.
         -5    1    3    3    0  502 -0.18166933075E+02  0.28724542764E+02 -0.39476792099E+02  0.52259222428E+02  0.41800000000E+01 0.  1.
        -11    1    1    2    0    0 -0.27047146834E+02  0.27054769918E+02 -0.41720155011E+02  0.56604593995E+02  0.00000000000E+00 0.  1.
         11    1    1    2    0    0  0.17671526955E+02 -0.34273545010E+02 -0.16823283039E+03  0.17259560821E+03  0.00000000000E+00 0. -1.
</event>
<event>
 7    1  0.2648915E-009  0.8595949E+02  0.7561462E-02  0.1312942E+00
          3   -1    0    0  501    0  0.00000000000E+00  0.00000000000E+00  0.28216857270E+03  0.28216857270E+03  0.00000000000E+00 0. -1.
         -3   -1    0    0    0  501 -0.00000000000E+00 -0.00000000000E+00 -0.95162577886E+02  0.95162577886E+02  0.00000000000E+00 0.  1.
         25    2    1    2    0    0  0.16607941225E+01 -0.24622570367E+01  0.24075557067E+03  0.27132678718E+03  0.12508461012E+03 0.  0.
          5    1    3    3  502    0  0.42564835117E+02  0.93129063650E+01  0.23069692866E+02  0.49479071762E+02  0.41800000000E+01 0. -1.
         -5    1    3    3    0  502 -0.40904040995E+02 -0.11775163402E+02  0.21768587780E+03  0.22184771542E+03  0.41800000000E+01 0. -1.
        -11    1    1    2    0    0 -0.20100304612E+02  0.39322543277E+02 -0.46549485004E+02  0.64164937539E+02  0.00000000000E+00 0.  1.
         11    1    1    2    0    0  0.18439510490E+02 -0.36860286240E+02 -0.72000908458E+01  0.41839425868E+02  0.00000000000E+00 0. -1.
</event>
<event>
 7    1  0.2648915E-009  0.2836744E+03  0.7561462E-02  0.1093699E+00
         -2   -1    0    0    0  501 -0.00000000000E+00  0.00000000000E+00  0.15075988397E+03  0.15075988397E+03  0.00000000000E+00 0.  1.
          2   -1    0    0  501    0  0.00000000000E+00 -0.00000000000E+00 -0.58682125262E+03  0.58682125262E+03  0.00000000000E+00 0. -1.
         25    2    1    2    0    0  0.27099214700E+03 -0.54920398151E+02 -0.23931216751E+03  0.38648172339E+03  0.12507923540E+03 0.  0.
          5    1    3    3  502    0  0.23057524048E+02 -0.31641082756E+02 -0.84513010085E+02  0.93234804697E+02  0.41800000000E+01 0.  1.
         -5    1    3    3    0  502  0.24793462295E+03 -0.23279315394E+02 -0.15479915743E+03  0.29324691869E+03  0.41800000000E+01 0.  1.
        -11    1    1    2    0    0 -0.19154186884E+03  0.55646608749E+02 -0.92079998500E+02  0.21968968731E+03  0.00000000000E+00 0.  1.
         11    1    1    2    0    0 -0.79450278154E+02 -0.72621059795E+00 -0.10466920264E+03  0.13140972590E+03  0.00000000000E+00 0. -1.
</event>
<event>
 7    1  0.2648915E-009  0.1112449E+03  0.7561462E-02  0.1258282E+00
         -2   -1    0    0    0  501 -0.00000000000E+00  0.00000000000E+00  0.35884884816E+02  0.35884884816E+02  0.00000000000E+00 0.  1.
          2   -1    0    0  501    0  0.00000000000E+00 -0.00000000000E+00 -0.11319495361E+04  0.11319495361E+04  0.00000000000E+00 0. -1.
         25    2    1    2    0    0  0.61828246587E+02 -0.48978022723E+02 -0.99830097770E+03  0.10091948669E+04  0.12509140038E+03 0.  0.
          5    1    3    3  502    0 -0.17715759511E+02 -0.45289597662E+02 -0.16447536488E+03  0.17156518832E+03  0.41800000000E+01 0. -1.
         -5    1    3    3    0  502  0.79544006097E+02 -0.36884250606E+01 -0.83382561282E+03  0.83762967854E+03  0.41800000000E+01 0. -1.
        -11    1    1    2    0    0 -0.57893789086E+02  0.15094794563E+02 -0.10762063482E+03  0.12313303650E+03  0.00000000000E+00 0. -1.
         11    1    1    2    0    0 -0.39344575003E+01  0.33883228159E+02  0.98569612095E+01  0.35506517579E+02  0.00000000000E+00 0.  1.
</event>
<event>
 7    1  0.2648915E-009  0.1314672E+03  0.7561462E-02  0.1225295E+00
         -2   -1    0    0    0  501 -0.00000000000E+00  0.00000000000E+00  0.15376188705E+02  0.15376188705E+02  0.00000000000E+00 0.  1.
          2   -1    0    0  501    0  0.00000000000E+00 -0.00000000000E+00 -0.18057872262E+04  0.18057872262E+04  0.00000000000E+00 0. -1.
         25    2    1    2    0    0 -0.14077727753E+02  0.88875365363E+02 -0.14454606162E+04  0.14536504600E+04  0.12508498655E+03 0.  0.
          5    1    3    3  502    0  0.51495475762E+02  0.63282972742E+02 -0.88740793352E+03  0.89116038486E+03  0.41800000000E+01 0.  1.
         -5    1    3    3    0  502 -0.65573203515E+02  0.25592392621E+02 -0.55805268266E+03  0.56249007512E+03  0.41800000000E+01 0.  1.
        -11    1    1    2    0    0 -0.24566827332E+02 -0.19709875475E+02 -0.32836377039E+02  0.45499844543E+02  0.00000000000E+00 0.  1.
         11    1    1    2    0    0  0.38644555085E+02 -0.69165489889E+02 -0.31211404426E+03  0.32201311038E+03  0.00000000000E+00 0. -1.
</event>
<event>
 7    1  0.2745843E-009  0.1481198E+03  0.7561462E-02  0.1202803E+00
          2   -1    0    0  501    0  0.00000000000E+00  0.00000000000E+00  0.93297031011E+03  0.93297031011E+03  0.00000000000E+00 0. -1.
         -2   -1    0    0    0  501 -0.00000000000E+00 -0.00000000000E+00 -0.24820512181E+02  0.24820512181E+02  0.00000000000E+00 0.  1.
         25    2    1    2    0    0  0.10263185028E+03  0.23530300993E+02  0.54189207974E+03  0.56602234183E+03  0.12508914262E+03 0.  0.
          5    1    3    3  502    0 -0.15384109239E+02 -0.28648291414E+02  0.14499774632E+03  0.14865804470E+03  0.41800000000E+01 0.  1.
         -5    1    3    3    0  502  0.11801595952E+03  0.52178592407E+02  0.39689433343E+03  0.41736429712E+03  0.41800000000E+01 0.  1.
        -11    1    1    2    0    0 -0.74538816842E+02  0.24708589463E+02  0.16214403941E+03  0.18015892741E+03  0.00000000000E+00 0.  1.
         11    1    1    2    0    0 -0.28093033440E+02 -0.48238890456E+02  0.20411367877E+03  0.21160955305E+03  0.00000000000E+00 0. -1.
</event>
<event>
 7    1  0.2648915E-009  0.1418311E+03  0.7561462E-02  0.1210886E+00
         -2   -1    0    0    0  501 -0.00000000000E+00  0.00000000000E+00  0.18726765379E+03  0.18726765379E+03  0.00000000000E+00 0.  1.
          2   -1    0    0  501    0  0.00000000000E+00 -0.00000000000E+00 -0.13138317262E+03  0.13138317262E+03  0.00000000000E+00 0. -1.
         25    2    1    2    0    0 -0.10831707444E+03  0.13724480353E+02  0.66446827256E+02  0.17883906024E+03  0.12508908282E+03 0.  0.
          5    1    3    3  502    0 -0.70304693257E+02  0.68953270413E+02  0.34241896038E+02  0.10434214508E+03  0.41800000000E+01 0.  1.
         -5    1    3    3    0  502 -0.38012381187E+02 -0.55228790060E+02  0.32204931218E+02  0.74496915170E+02  0.41800000000E+01 0.  1.
        -11    1    1    2    0    0  0.38527938871E+02 -0.26782398026E+02  0.32218713230E+02  0.56918752621E+02  0.00000000000E+00 0.  1.
         11    1    1    2    0    0  0.69789135572E+02  0.13057917673E+02 -0.42781059323E+02  0.82893013546E+02  0.00000000000E+00 0. -1.
</event>
<event>
 7    1  0.2648915E-009  0.6020719E+02  0.7561462E-02  0.1396964E+00
          1   -1    0    0  501    0  0.00000000000E+00  0.00000000000E+00  0.58242062509E+02  0.58242062509E+02  0.00000000000E+00 0. -1.
         -1   -1    0    0    0  501 -0.00000000000E+00 -0.00000000000E+00 -0.33304539170E+03  0.33304539170E+03  0.00000000000E+00 0.  1.
         25    2    1    2    0    0 -0.47049700557E+01 -0.15515280202E+02 -0.29604817585E+02  0.12956383541E+03  0.12508989391E+03 0.  0.
          5    1    3    3  502    0  0.13640695735E+02  0.25180238015E+01 -0.75450115823E+02  0.76828389295E+02  0.41800000000E+01 0. -1.
         -5    1    3    3    0  502 -0.18345665791E+02 -0.18033304003E+02  0.45845298238E+02  0.52735446116E+02  0.41800000000E+01 0. -1.
        -11    1    1    2    0    0  0.41489836227E+02  0.98917659385E+01 -0.65152975960E+02  0.77872741187E+02  0.00000000000E+00 0. -1.
         11    1    1    2    0    0 -0.36784866171E+02  0.56235142630E+01 -0.18004553565E+03  0.18385087761E+03  0.00000000000E+00 0.  1.
</event>
<event>
 7    1  0.2648915E-009  0.6395241E+02  0.7561462E-02  0.1381956E+00
          1   -1    0    0  501    0  0.00000000000E+00  0.00000000000E+00  0.59276180499E+03  0.59276180499E+03  0.00000000000E+00 0. -1.
         -1   -1    0    0    0  501 -0.00000000000E+00 -0.00000000000E+00 -0.24423250862E+02  0.24423250862E+02  0.00000000000E+00 0.  1.
         25    2    1    2    0    0 -0.28361158994E+02  0.44118005040E+02  0.34848203598E+03  0.37394841113E+03  0.12508769356E+03 0.  0.
          5    1    3    3  502    0 -0.11894587370E+02  0.35185459394E+02  0.15579654748E+02  0.40493157490E+02  0.41800000000E+01 0.  1.
         -5    1    3    3    0  502 -0.16466571624E+02  0.89325456461E+01  0.33290238123E+03  0.33345525364E+03  0.41800000000E+01 0.  1.
        -11    1    1    2    0    0 -0.11097132010E+02 -0.25283847373E+02  0.10787051688E+02  0.29644219689E+02  0.00000000000E+00 0.  1.
         11    1    1    2    0    0  0.39458291005E+02 -0.18834157667E+02  0.20906946646E+03  0.21359242503E+03  0.00000000000E+00 0. -1.
</event>
<event>
 7    1  0.2648915E-009  0.8556106E+02  0.7561462E-02  0.1313972E+00
          1   -1    0    0  501    0  0.00000000000E+00  0.00000000000E+00  0.74022707783E+03  0.74022707783E+03  0.00000000000E+00 0. -1.
         -1   -1    0    0    0  501 -0.00000000000E+00 -0.00000000000E+00 -0.23378380566E+02  0.23378380566E+02  0.00000000000E+00 0.  1.
         25    2    1    2    0    0 -0.69767823164E+02  0.25220332547E+02  0.39693441859E+03  0.42273769541E+03  0.12508641867E+03 0.  0.
          5    1    3    3  502    0 -0.76048135981E+02  0.11457665516E+02  0.10416022222E+03  0.12954312555E+03  0.41800000000E+01 0.  1.
         -5    1    3    3    0  502  0.62803128173E+01  0.13762667032E+02  0.29277419638E+03  0.29319456986E+03  0.41800000000E+01 0.  1.
        -11    1    1    2    0    0  0.56651056395E+02 -0.30415075260E+02  0.32036364518E+03  0.32675263449E+03  0.00000000000E+00 0. -1.
         11    1    1    2    0    0  0.13116766769E+02  0.51947427123E+01 -0.44936650064E+00  0.14115128500E+02  0.00000000000E+00 0.  1.
</event>
<event>
 7    1  0.2648915E-009  0.9283274E+02  0.7561462E-02  0.1296133E+00
         -3   -1    0    0    0  501 -0.00000000000E+00  0.00000000000E+00  0.14267494333E+02  0.14267494333E+02  0.00000000000E+00 0.  1.
          3   -1    0    0  501    0  0.00000000000E+00 -0.00000000000E+00 -0.10729015514E+04  0.10729015514E+04  0.00000000000E+00 0. -1.
         25    2    1    2    0    0 -0.23414617498E+01  0.25020640590E+01 -0.84666770845E+03  0.85586481484E+03  0.12508648996E+03 0.  0.
          5    1    3    3  502    0 -0.26936919288E+02 -0.49630130125E+02 -0.59296976316E+03  0.59566715527E+03  0.41800000000E+01 0.  1.
         -5    1    3    3    0  502  0.24595457539E+02  0.52132194184E+02 -0.25369794529E+03  0.26019765957E+03  0.41800000000E+01 0.  1.
        -11    1    1    2    0    0 -0.11086381602E+02  0.32191088261E+02 -0.29392240137E+02  0.44978637160E+02  0.00000000000E+00 0.  1.
         11    1    1    2    0    0  0.13427843352E+02 -0.34693152320E+02 -0.18257410847E+03  0.18632559373E+03  0.00000000000E+00 0. -1.
</event>
<event>
 7    1  0.2648915E-009  0.1044419E+03  0.7561462E-02  0.1271223E+00
          2   -1    0    0  501    0  0.00000000000E+00  0.00000000000E+00  0.13420206070E+04  0.13420206070E+04  0.00000000000E+00 0. -1.
         -2   -1    0    0    0  501 -0.00000000000E+00 -0.00000000000E+00 -0.13441365293E+02  0.13441365293E+02  0.00000000000E+00 0.  1.
         25    2    1    2    0    0  0.13224437752E+02 -0.76734884352E+02  0.79978492325E+03  0.81324473600E+03  0.12509176211E+03 0.  0.
          5    1    3    3  502    0 -0.17618118809E+02 -0.11291637828E+02  0.17464249043E+02  0.27574836171E+02  0.41800000000E+01 0.  1.
         -5    1    3    3    0  502  0.30842556560E+02 -0.65443246525E+02  0.78232067420E+03  0.78566989983E+03  0.41800000000E+01 0.  1.
        -11    1    1    2    0    0  0.17683751832E+02 -0.11828442307E+02  0.50281764779E+02  0.54597463271E+02  0.00000000000E+00 0.  1.
         11    1    1    2    0    0 -0.30908189584E+02  0.88563326660E+02  0.47851255365E+03  0.48761977299E+03  0.00000000000E+00 0. -1.
</event>
<event>
 7    1  0.2648915E-009  0.9485540E+02  0.7561462E-02  0.1291502E+00
         -1   -1    0    0    0  501 -0.00000000000E+00  0.00000000000E+00  0.21602408723E+03  0.21602408723E+03  0.00000000000E+00 0.  1.
          1   -1    0    0  501    0  0.00000000000E+00 -0.00000000000E+00 -0.53700044541E+02  0.53700044541E+02  0.00000000000E+00 0. -1.
         25    2    1    2    0    0  0.48063600659E+01  0.52389340845E+01  0.68867163530E+02  0.14296702017E+03  0.12508531135E+03 0.  0.
          5    1    3    3  502    0 -0.29163082173E+02  0.49196945706E+02  0.65643612261E+02  0.87162956922E+02  0.41800000000E+01 0. -1.
         -5    1    3    3    0  502  0.33969442239E+02 -0.43958011622E+02  0.32235512686E+01  0.55804063244E+02  0.41800000000E+01 0. -1.
        -11    1    1    2    0    0  0.31581078665E+02  0.15061847503E+02  0.71630646980E+02  0.79719341233E+02  0.00000000000E+00 0.  1.
         11    1    1    2    0    0 -0.36387438730E+02 -0.20300781588E+02  0.21826232180E+02  0.47037770372E+02  0.00000000000E+00 0. -1.
</event>
<event>
 7    1  0.2648915E-009  0.2034415E+03  0.7561462E-02  0.1146867E+00
         -2   -1    0    0    0  501 -0.00000000000E+00  0.00000000000E+00  0.51331816844E+02  0.51331816844E+02  0.00000000000E+00 0.  1.
          2   -1    0    0  501    0  0.00000000000E+00 -0.00000000000E+00 -0.91601496124E+03  0.91601496124E+03  0.00000000000E+00 0. -1.
         25    2    1    2    0    0 -0.12671051407E+03 -0.11667893307E+03 -0.61269020349E+03  0.64861909998E+03  0.12509166084E+03 0.  0.
          5    1    3    3  502    0 -0.93749609209E+02 -0.33613508283E+01 -0.24228607149E+03  0.25984668700E+03  0.41800000000E+01 0. -1.
         -5    1    3    3    0  502 -0.32960904862E+02 -0.11331758224E+03 -0.37040413200E+03  0.38877241298E+03  0.41800000000E+01 0. -1.
        -11    1    1    2    0    0  0.12297671436E+03  0.57778826829E+02 -0.18320129769E+03  0.22808853671E+03  0.00000000000E+00 0. -1.
         11    1    1    2    0    0  0.37337997107E+01  0.58900106238E+02 -0.68791643211E+02  0.90639141384E+02  0.00000000000E+00 0.  1.
</event>
<event>
 7    1  0.2648915E-009  0.1868447E+03  0.7561462E-02  0.1161338E+00
          2   -1    0    0  501    0  0.00000000000E+00  0.00000000000E+00  0.13664323648E+03  0.13664323648E+03  0.00000000000E+00 0. -1.
         -2   -1    0    0    0  501 -0.00000000000E+00 -0.00000000000E+00 -0.29319861442E+03  0.29319861442E+03  0.00000000000E+00 0.  1.
         25    2    1    2    0    0 -0.79256406770E+02  0.14665617805E+03 -0.65226080918E+02  0.21838928240E+03  0.12509925844E+03 0.  0.
          5    1    3    3  502    0 -0.98555552605E+02  0.14682018142E+03 -0.79598103006E+02  0.19396570064E+03  0.41800000000E+01 0. -1.
         -5    1    3    3    0  502  0.19299145836E+02 -0.16400337889E+00  0.14372022088E+02  0.24423581760E+02  0.41800000000E+01 0. -1.
        -11    1    1    2    0    0  0.70193266398E+02 -0.67481919726E+02 -0.10483349338E+02  0.97932654160E+02  0.00000000000E+00 0. -1.
         11    1    1    2    0    0  0.90631403721E+01 -0.79174258319E+02 -0.80845947691E+02  0.11351991434E+03  0.00000000000E+00 0.  1.
</event>
<event>
 7    1  0.2648915E-009  0.1041551E+03  0.7561462E-02  0.1271793E+00
          2   -1    0    0  501    0  0.00000000000E+00  0.00000000000E+00  0.15527120150E+04  0.15527120150E+04  0.00000000000E+00 0. -1.
         -2   -1    0    0    0  501 -0.00000000000E+00 -0.00000000000E+00 -0.13291939915E+02  0.13291939915E+02  0.00000000000E+00 0.  1.
         25    2    1    2    0    0 -0.61272435894E+02  0.17563274088E+02  0.12097031185E+04  0.12178227601E+04  0.12509140700E+03 0.  0.
          5    1    3    3  502    0 -0.96852213462E+01  0.48110572314E+02  0.18771585634E+03  0.19406995080E+03  0.41800000000E+01 0. -1.
         -5    1    3    3    0  502 -0.51587214548E+02 -0.30547298226E+02  0.10219872621E+04  0.10237528093E+04  0.41800000000E+01 0. -1.
        -11    1    1    2    0    0  0.17712443254E+02 -0.44394578027E+02  0.79295441299E+02  0.92587127696E+02  0.00000000000E+00 0.  1.
         11    1    1    2    0    0  0.43559992640E+02  0.26831303939E+02  0.25042151533E+03  0.25559406717E+03  0.00000000000E+00 0. -1.
</event>
<event>
 7    1  0.2648915E-009  0.1103547E+03  0.7561462E-02  0.1259914E+00
          1   -1    0    0  501    0  0.00000000000E+00  0.00000000000E+00  0.21226473809E+03  0.21226473809E+03  0.00000000000E+00 0. -1.
         -1   -1    0    0    0  501 -0.00000000000E+00 -0.00000000000E+00 -0.10928453108E+03  0.10928453108E+03  0.00000000000E+00 0.  1.
         25    2    1    2    0    0 -0.75709386943E+02  0.52361185612E+02 -0.41155048551E+01  0.15536364205E+03  0.12508924359E+03 0.  0.
          5    1    3    3  502    0 -0.43421824139E+02  0.20904163028E+02 -0.64042930802E+02  0.80258384167E+02  0.41800000000E+01 0. -1.
         -5    1    3    3    0  502 -0.32287562804E+02  0.31457022584E+02  0.59927425946E+02  0.75105257887E+02  0.41800000000E+01 0. -1.
        -11    1    1    2    0    0  0.46358112954E+01  0.23007887506E+02  0.18975653561E+02  0.30181601381E+02  0.00000000000E+00 0.  1.
         11    1    1    2    0    0  0.71073575648E+02 -0.75369073118E+02  0.88120058305E+02  0.13600402573E+03  0.00000000000E+00 0. -1.
</event>
<event>
 7    1  0.2648915E-009  0.1066726E+03  0.7561462E-02  0.1266859E+00
         -1   -1    0    0    0  501 -0.00000000000E+00  0.00000000000E+00  0.94641150208E+01  0.94641150208E+01  0.00000000000E+00 0.  1.
          1   -1    0    0  501    0  0.00000000000E+00 -0.00000000000E+00 -0.16886406969E+04  0.16886406969E+04  0.00000000000E+00 0. -1.
         25    2    1    2    0    0 -0.23898639488E+02 -0.12258454003E+02 -0.13469856847E+04  0.13530481234E+04  0.12508946761E+03 0.  0.
          5    1    3    3  502    0 -0.20309568109E+02  0.51774150329E+02 -0.39800548037E+03  0.40189411044E+03  0.41800000000E+01 0.  1.
         -5    1    3    3    0  502 -0.35890713791E+01 -0.64032604332E+02 -0.94898020431E+03  0.95115401299E+03  0.41800000000E+01 0.  1.
        -11    1    1    2    0    0  0.19993905750E+02  0.50785551623E+02 -0.19934429447E+03  0.20668109797E+03  0.00000000000E+00 0.  1.
         11    1    1    2    0    0  0.39047337388E+01 -0.38527097620E+02 -0.13284660275E+03  0.13837559054E+03  0.00000000000E+00 0. -1.
</event>
<event>
 7    1  0.2648915E-009  0.8029202E+02  0.7561462E-02  0.1328225E+00
          1   -1    0    0  501    0  0.00000000000E+00  0.00000000000E+00  0.16218514648E+03  0.16218514648E+03  0.00000000000E+00 0. -1.
         -1   -1    0    0    0  501 -0.00000000000E+00 -0.00000000000E+00 -0.10654409024E+03  0.10654409024E+03  0.00000000000E+00 0.  1.
         25    2    1    2    0    0 -0.55148061729E+01  0.11290204056E+02 -0.44576836699E+02  0.13339218784E+03  0.12509396313E+03 0.  0.
          5    1    3    3  502    0 -0.54049640709E+02  0.27530147475E+02 -0.53840708176E+02  0.81213095850E+02  0.41800000000E+01 0. -1.
         -5    1    3    3    0  502  0.48534834536E+02 -0.16239943419E+02  0.92638714769E+01  0.52179091985E+02  0.41800000000E+01 0. -1.
        -11    1    1    2    0    0 -0.13393361471E+02 -0.22694484606E+02 -0.58514258251E+01  0.26993720515E+02  0.00000000000E+00 0.  1.
         11    1    1    2    0    0  0.18908167644E+02  0.11404280550E+02  0.10606931877E+03  0.10834332837E+03  0.00000000000E+00 0. -1.
</event>
<event>
 7    1  0.2648915E-009  0.1366580E+03  0.7561462E-02  0.1217898E+00
         -1   -1    0    0    0  501 -0.00000000000E+00  0.00000000000E+00  0.59383406113E+03  0.59383406113E+03  0.00000000000E+00 0. -1.
          1   -1    0    0  501    0  0.00000000000E+00 -0.00000000000E+00 -0.52673825847E+02  0.52673825847E+02  0.00000000000E+00 0.  1.
         25    2    1    2    0    0 -0.10804516674E+03  0.48461632576E+02  0.14963936955E+03  0.22817202718E+03  0.12509294616E+03 0.  0.
          5    1    3    3  502    0 -0.87371605976E+02  0.69612073590E+02  0.46989708900E+02  0.12126476596E+03  0.41800000000E+01 0.  1.
         -5    1    3    3    0  502 -0.20673560760E+02 -0.21150441014E+02  0.10264966065E+03  0.10690726122E+03  0.41800000000E+01 0.  1.
        -11    1    1    2    0    0  0.28862797893E+02 -0.43646851524E+02  0.25609482584E+03  0.26138605275E+03  0.00000000000E+00 0. -1.
         11    1    1    2    0    0  0.79182368844E+02 -0.48147810519E+01  0.13542603989E+03  0.15694980705E+03  0.00000000000E+00 0.  1.
</event>
<event>
 7    1  0.2648915E-009  0.1030658E+03  0.7561462E-02  0.1273978E+00
         -3   -1    0    0    0  501 -0.00000000000E+00  0.00000000000E+00  0.54530860029E+02  0.54530860029E+02  0.00000000000E+00 0.  1.
          3   -1    0    0  501    0  0.00000000000E+00 -0.00000000000E+00 -0.48914753572E+03  0.48914753572E+03  0.00000000000E+00 0. -1.
         25    2    1    2    0    0  0.53247913555E+02  0.58548554867E+01 -0.41254617197E+03  0.43440653117E+03  0.12508025698E+03 0.  0.
          5    1    3    3  502    0 -0.31420772160E+02  0.19190706131E+02 -0.52400006212E+02  0.64177731153E+02  0.41800000000E+01 0.  1.
         -5    1    3    3    0  502  0.84668685716E+02 -0.13335850644E+02 -0.36014616575E+03  0.37022880002E+03  0.41800000000E+01 0.  1.
        -11    1    1    2    0    0 -0.50260243798E+02 -0.30266044610E+02  0.18769292546E+02  0.61598797924E+02  0.00000000000E+00 0.  1.
         11    1    1    2    0    0 -0.29876697571E+01  0.24411189124E+02 -0.40839796275E+02  0.47673066660E+02  0.00000000000E+00 0. -1.
</event>
<event>
 7    1  0.2648915E-009  0.1447457E+03  0.7561462E-02  0.1207082E+00
         -1   -1    0    0    0  501 -0.00000000000E+00  0.00000000000E+00  0.26679502939E+03  0.26679502939E+03  0.00000000000E+00 0.  1.
          1   -1    0    0  501    0  0.00000000000E+00 -0.00000000000E+00 -0.96273898249E+02  0.96273898249E+02  0.00000000000E+00 0. -1.
         25    2    1    2    0    0  0.32366221410E+02 -0.11277805871E+03  0.73630867391E+02  0.18664617492E+03  0.12509527235E+03 0.  0.
          5    1    3    3  502    0  0.26625335785E+02 -0.13933244142E+03  0.71937249651E+02  0.15910649900E+03  0.41800000000E+01 0. -1.
         -5    1    3    3    0  502  0.57408856254E+01  0.26554382708E+02  0.16936177402E+01  0.27539675921E+02  0.41800000000E+01 0. -1.
        -11    1    1    2    0    0 -0.33304929846E+02  0.72327206155E+02  0.10826363901E+03  0.13439292628E+03  0.00000000000E+00 0.  1.
         11    1    1    2    0    0  0.93870843585E+00  0.40450852554E+02 -0.11373375259E+02  0.42029826441E+02  0.00000000000E+00 0. -1.
</event>
<event>
 7    1  0.2648915E-009  0.8929384E+02  0.7561462E-02  0.1304571E+00
         -4   -1    0    0    0  501 -0.00000000000E+00  0.00000000000E+00  0.41991221472E+03  0.41991221472E+03  0.00000000000E+00 0. -1.
          4   -1    0    0  501    0  0.00000000000E+00 -0.00000000000E+00 -0.33697826663E+02  0.33697826663E+02  0.00000000000E+00 0.  1.
         25    2    1    2    0    0 -0.32885105768E+02  0.35500825699E+02  0.26510519651E+03  0.29710113386E+03  0.12508628909E+03 0.  0.
          5    1    3    3  502    0 -0.62788850193E+02 -0.15933957527E+02  0.82342332074E+02  0.10485257633E+03  0.41800000000E+01 0. -1.
         -5    1    3    3    0  502  0.29903744425E+02  0.51434783226E+02  0.18276286444E+03  0.19224855753E+03  0.41800000000E+01 0. -1.
        -11    1    1    2    0    0  0.23615896815E+02 -0.78789025359E+01 -0.64067960779E+01  0.25706705808E+02  0.00000000000E+00 0.  1.
         11    1    1    2    0    0  0.92692089533E+01 -0.27621923164E+02  0.12751598762E+03  0.13080220171E+03  0.00000000000E+00 0. -1.
</event>
<event>
 7    1  0.2648915E-009  0.1184555E+03  0.7561462E-02  0.1245667E+00
          2   -1    0    0  501    0  0.00000000000E+00  0.00000000000E+00  0.33102280890E+03  0.33102280890E+03  0.00000000000E+00 0. -1.
         -2   -1    0    0    0  501 -0.00000000000E+00 -0.00000000000E+00 -0.42605603796E+02  0.42605603796E+02  0.00000000000E+00 0.  1.
         25    2    1    2    0    0  0.21914284150E+02 -0.44767593107E+02  0.17440210422E+03  0.22033582667E+03  0.12508960514E+03 0.  0.
          5    1    3    3  502    0  0.62776932853E+02  0.12325641552E+02  0.89298834511E+02  0.10993006406E+03  0.41800000000E+01 0. -1.
         -5    1    3    3    0  502 -0.40862648703E+02 -0.57093234658E+02  0.85103269709E+02  0.11040576261E+03  0.41800000000E+01 0. -1.
        -11    1    1    2    0    0  0.61199147857E+01 -0.25808910240E+02  0.29702522663E+02  0.39822017243E+02  0.00000000000E+00 0. -1.
         11    1    1    2    0    0 -0.28034198936E+02  0.70576503347E+02  0.84312578225E+02  0.11347056879E+03  0.00000000000E+00 0.  1.
</event>
<event>
 7    1  0.2648915E-009  0.1068694E+03  0.7561462E-02  0.1266480E+00
          2   -1    0    0  501    0  0.00000000000E+00  0.00000000000E+00  0.21792406593E+03  0.21792406593E+03  0.00000000000E+00 0. -1.
         -2   -1    0    0    0  501 -0.00000000000E+00 -0.00000000000E+00 -0.68984681366E+02  0.68984681366E+02  0.00000000000E+00 0.  1.
         25    2    1    2    0    0  0.49108854792E+02 -0.23773273984E+02  0.60297956595E+02  0.14919747886E+03  0.12508875231E+03 0.  0.
          5    1    3    3  502    0 -0.23109513475E+02  0.29402083871E+02 -0.53057135092E+01  0.38002041325E+02  0.41800000000E+01 0.  1.
         -5    1    3    3    0  502  0.72218368267E+02 -0.53175357856E+02  0.65603670104E+02  0.11119543754E+03  0.41800000000E+01 0.  1.
        -11    1    1    2    0    0 -0.12142630943E+02  0.42985453294E+02  0.84836619934E+02  0.95877237981E+02  0.00000000000E+00 0. -1.
         11    1    1    2    0    0 -0.36966223849E+02 -0.19212179309E+02  0.38048080328E+01  0.41834030450E+02  0.00000000000E+00 0.  1.
</event>
<event>
 7    1  0.2648915E-009  0.1045154E+03  0.7561462E-02  0.1271077E+00
         -1   -1    0    0    0  501 -0.00000000000E+00  0.00000000000E+00  0.46003842455E+03  0.46003842455E+03  0.00000000000E+00 0.  1.
          1   -1    0    0  501    0  0.00000000000E+00 -0.00000000000E+00 -0.41899776771E+02  0.41899776771E+02  0.00000000000E+00 0. -1.
         25    2    1    2    0    0  0.60300531942E+02 -0.63371263560E+02  0.22640975897E+03  0.27305841305E+03  0.12508975491E+03 0.  0.
          5    1    3    3  502    0  0.30665281304E+02 -0.14773527082E+02  0.21123587732E+03  0.21400160010E+03  0.41800000000E+01 0. -1.
         -5    1    3    3    0  502  0.29635250638E+02 -0.48597736477E+02  0.15173881649E+02  0.59056812947E+02  0.41800000000E+01 0. -1.
        -11    1    1    2    0    0 -0.31986199283E+02 -0.14265920691E+02  0.25764881819E+02  0.43479450007E+02  0.00000000000E+00 0. -1.
         11    1    1    2    0    0 -0.28314332659E+02  0.77637184251E+02  0.16596400700E+03  0.18540033827E+03  0.00000000000E+00 0.  1.
</event>
<event>
 7    1  0.2648915E-009  0.1085000E+03  0.7561462E-02  0.1263373E+00
          1   -1    0    0  501    0  0.00000000000E+00  0.00000000000E+00  0.35002370867E+03  0.35002370867E+03  0.00000000000E+00 0. -1.
         -1   -1    0    0    0  501 -0.00000000000E+00 -0.00000000000E+00 -0.52494401313E+02  0.52494401313E+02  0.00000000000E+00 0.  1.
         25    2    1    2    0    0 -0.61295319711E+02 -0.28217124974E+02  0.95114401865E+02  0.17101665641E+03  0.12508646996E+03 0.  0.
          5    1    3    3  502    0 -0.90585715758E+02 -0.39688350667E+02  0.38686933013E+02  0.10627835275E+03  0.41800000000E+01 0. -1.
         -5    1    3    3    0  502  0.29290396047E+02  0.11471225692E+02  0.56427468852E+02  0.64738303658E+02  0.41800000000E+01 0. -1.
        -11    1    1    2    0    0  0.42766933436E+02 -0.99002471705E+01  0.17638218528E+03  0.18176275959E+03  0.00000000000E+00 0. -1.
         11    1    1    2    0    0  0.18528386276E+02  0.38117372145E+02  0.26032720211E+02  0.49738693980E+02  0.00000000000E+00 0.  1.
</event>
<event>
 7    1  0.2648915E-009  0.1112111E+03  0.7561462E-02  0.1258343E+00
          2   -1    0    0  501    0  0.00000000000E+00  0.00000000000E+00  0.31122568127E+03  0.31122568127E+03  0.00000000000E+00 0. -1.
         -2   -1    0    0    0  501 -0.00000000000E+00 -0.00000000000E+00 -0.64950610456E+02  0.64950610456E+02  0.00000000000E+00 0.  1.
         25    2    1    2    0    0 -0.42493860985E+02  0.67348211593E+02  0.68851986619E+02  0.16348902584E+03  0.12508619302E+03 0.  0.
          5    1    3    3  502    0  0.24974390789E+02  0.84803224620E+00 -0.20960755484E+02  0.32882594551E+02  0.41800000000E+01 0. -1.
         -5    1    3    3    0  502 -0.67468251773E+02  0.66500179347E+02  0.89812742104E+02  0.13060643129E+03  0.41800000000E+01 0. -1.
        -11    1    1    2    0    0  0.35689927034E+02 -0.80165016251E+02  0.17768722192E+03  0.19817403855E+03  0.00000000000E+00 0. -1.
         11    1    1    2    0    0  0.68039339509E+01  0.12816804659E+02 -0.26413772350E+00  0.14513227332E+02  0.00000000000E+00 0.  1.
</event>
<event>
 7    1  0.2648915E-009  0.1054406E+03  0.7561462E-02  0.1269254E+00
          1   -1    0    0  501    0  0.00000000000E+00  0.00000000000E+00  0.90319611682E+03  0.90319611682E+03  0.00000000000E+00 0. -1.
         -1   -1    0    0    0  501 -0.00000000000E+00 -0.00000000000E+00 -0.27846313834E+02  0.27846313834E+02  0.00000000000E+00 0.  1.
         25    2    1    2    0    0  0.45215356862E+02 -0.10359247414E+02  0.77747899918E+03  0.78884252021E+03  0.12508870857E+03 0.  0.
          5    1    3    3  502    0 -0.21156410814E+02 -0.47050914608E+02  0.43342836136E+03  0.43650773088E+03  0.41800000000E+01 0.  1.
         -5    1    3    3    0  502  0.66371767677E+02  0.36691667194E+02  0.34405063782E+03  0.35233478933E+03  0.41800000000E+01 0.  1.
        -11    1    1    2    0    0 -0.20613318448E+02 -0.29704069810E+02  0.29523129541E+01  0.36276119039E+02  0.00000000000E+00 0.  1.
         11    1    1    2    0    0 -0.24602038414E+02  0.40063317224E+02  0.94918490849E+02  0.10592379141E+03  0.00000000000E+00 0. -1.
</event>
<event>
 7    1  0.2648915E-009  0.5060476E+02  0.7561462E-02  0.1442107E+00
          2   -1    0    0  501    0  0.00000000000E+00  0.00000000000E+00  0.15499803334E+04  0.15499803334E+04  0.00000000000E+00 0. -1.
         -2   -1    0    0    0  501 -0.00000000000E+00 -0.00000000000E+00 -0.14083653289E+02  0.14083653289E+02  0.00000000000E+00 0.  1.
         25    2    1    2    0    0 -0.24394355592E+02 -0.14631685164E+02  0.13388330189E+04  0.13449649447E+04  0.12509068379E+03 0.  0.
          5    1    3    3  502    0 -0.28246661245E+02  0.28659881070E+01  0.65641876923E+02  0.71640883337E+02  0.41800000000E+01 0.  1.
         -5    1    3    3    0  502  0.38523056528E+01 -0.17497673272E+02  0.12731911420E+04  0.12733240614E+04  0.41800000000E+01 0.  1.
        -11    1    1    2    0    0 -0.32357176313E+01 -0.13973714330E+02 -0.33896475013E+01  0.14738530149E+02  0.00000000000E+00 0.  1.
         11    1    1    2    0    0  0.27630073224E+02  0.28605399495E+02  0.20045330863E+03  0.20436051176E+03  0.00000000000E+00 0. -1.
</event>
<event>
 7    1  0.2648915E-009  0.1241339E+03  0.7561462E-02  0.1236429E+00
          2   -1    0    0  501    0  0.00000000000E+00  0.00000000000E+00  0.68587731083E+02  0.68587731083E+02  0.00000000000E+00 0. -1.
         -2   -1    0    0    0  501 -0.00000000000E+00 -0.00000000000E+00 -0.43398991435E+03  0.43398991435E+03  0.00000000000E+00 0.  1.
         25    2    1    2    0    0  0.83683811982E+02  0.36702909586E+01 -0.42252902948E+02  0.15636421648E+03  0.12509200199E+03 0.  0.
          5    1    3    3  502    0  0.82507684523E+02  0.49321918913E+02 -0.34267602785E+01  0.96277644221E+02  0.41800000000E+01 0. -1.
         -5    1    3    3    0  502  0.11761274590E+01 -0.45651627954E+02 -0.38826142670E+02  0.60086572254E+02  0.41800000000E+01 0. -1.
        -11    1    1    2    0    0 -0.52479864068E+02 -0.34118420505E+02 -0.27150427109E+03  0.27862658160E+03  0.00000000000E+00 0.  1.
         11    1    1    2    0    0 -0.31203947914E+02  0.30448129546E+02 -0.51645009227E+02  0.67586847362E+02  0.00000000000E+00 0. -1.
</event>
<event>
 7    1  0.2648915E-009  0.1226952E+03  0.7561462E-02  0.1238716E+00
         -2   -1    0    0    0  501 -0.00000000000E+00  0.00000000000E+00  0.14063095961E+03  0.14063095961E+03  0.00000000000E+00 0. -1.
          2   -1    0    0  501    0  0.00000000000E+00 -0.00000000000E+00 -0.15581356115E+03  0.15581356115E+03  0.00000000000E+00 0.  1.
         25    2    1    2    0    0 -0.90079367200E+02  0.29863346598E+02  0.26985801522E+02  0.15931729802E+03  0.12509059157E+03 0.  0.
          5    1    3    3  502    0 -0.87107364867E+02  0.54807323143E+02 -0.20883439403E+02  0.10509579499E+03  0.41800000000E+01 0. -1.
         -5    1    3    3    0  502 -0.29720023330E+01 -0.24943976546E+02  0.47869240926E+02  0.54221503028E+02  0.41800000000E+01 0. -1.
        -11    1    1    2    0    0  0.39833455461E+02 -0.49008374320E+02 -0.52797399482E+02  0.82317011118E+02  0.00000000000E+00 0.  1.
         11    1    1    2    0    0  0.50245911739E+02  0.19145027722E+02  0.10628996417E+02  0.54810211620E+02  0.00000000000E+00 0. -1.
</event>
<event>
 7    1  0.2648915E-009  0.3866241E+03  0.7561462E-02  0.1048512E+00
          2   -1    0    0  501    0  0.00000000000E+00  0.00000000000E+00  0.99940106613E+03  0.99940106613E+03  0.00000000000E+00 0.  1.
         -2   -1    0    0    0  501 -0.00000000000E+00 -0.00000000000E+00 -0.15768824729E+03  0.15768824729E+03  0.00000000000E+00 0. -1.
         25    2    1    2    0    0 -0.28087826148E+03 -0.25310629020E+03  0.34451954227E+03  0.52658928482E+03  0.12508864044E+03 0.  0.
          5    1    3    3  502    0 -0.27445226447E+03 -0.19900126193E+03  0.26600962019E+03  0.43093402993E+03  0.41800000000E+01 0. -1.
         -5    1    3    3    0  502 -0.64259970106E+01 -0.54105028265E+02  0.78509922081E+02  0.95655254881E+02  0.41800000000E+01 0. -1.
        -11    1    1    2    0    0  0.11293670961E+03  0.80108007308E+02  0.24618126704E+03  0.28244859613E+03  0.00000000000E+00 0.  1.
         11    1    1    2    0    0  0.16794155187E+03  0.17299828289E+03  0.25101200952E+03  0.34805143248E+03  0.00000000000E+00 0. -1.
</event>
<event>
 7    1  0.2648915E-009  0.1692965E+03  0.7561462E-02  0.1178583E+00
         -1   -1    0    0    0  501 -0.00000000000E+00  0.00000000000E+00  0.16009246321E+02  0.16009246321E+02  0.00000000000E+00 0.  1.
          1   -1    0    0  501    0  0.00000000000E+00 -0.00000000000E+00 -0.20498319877E+04  0.20498319877E+04  0.00000000000E+00 0. -1.
         25    2    1    2    0    0 -0.79049840826E+01  0.13188204711E+03 -0.14122021902E+04  0.14238740545E+04  0.12508770431E+03 0.  0.
          5    1    3    3  502    0 -0.66079821052E+02  0.77727717828E+02 -0.83002312799E+03  0.83627986121E+03  0.41800000000E+01 0. -1.
         -5    1    3    3    0  502  0.58174836970E+02  0.54154329285E+02 -0.58217906225E+03  0.58759419327E+03  0.41800000000E+01 0. -1.
        -11    1    1    2    0    0  0.28150701624E+02 -0.52233336697E+01 -0.69974761550E+02  0.75605637823E+02  0.00000000000E+00 0.  1.
         11    1    1    2    0    0 -0.20245717541E+02 -0.12665871344E+03 -0.55164578959E+03  0.56636154172E+03  0.00000000000E+00 0. -1.
</event>
<event>
 7    1  0.2648915E-009  0.1255823E+03  0.7561462E-02  0.1234162E+00
          1   -1    0    0  501    0  0.00000000000E+00  0.00000000000E+00  0.30333560754E+03  0.30333560754E+03  0.00000000000E+00 0. -1.
         -1   -1    0    0    0  501 -0.00000000000E+00 -0.00000000000E+00 -0.67777175578E+02  0.67777175578E+02  0.00000000000E+00 0.  1.
         25    2    1    2    0    0 -0.24468516342E+01 -0.73202836639E+02  0.52174899028E+02  0.15406107171E+03  0.12509177172E+03 0.  0.
          5    1    3    3  502    0  0.35982103245E+02 -0.87243928868E+02  0.97387757815E+01  0.94965946697E+02  0.41800000000E+01 0.  1.
         -5    1    3    3    0  502 -0.38428954879E+02  0.14041092230E+02  0.42436123246E+02  0.59095125013E+02  0.41800000000E+01 0.  1.
        -11    1    1    2    0    0  0.42266808549E+02  0.60448633234E+02  0.12684593636E+03  0.14673245018E+03  0.00000000000E+00 0.  1.
         11    1    1    2    0    0 -0.39819956915E+02  0.12754203405E+02  0.56537596570E+02  0.70319261224E+02  0.00000000000E+00 0. -1.
</event>
<event>
 7    1  0.2648915E-009  0.8163082E+02  0.7561462E-02  0.1324486E+00
         -2   -1    0    0    0  501 -0.00000000000E+00  0.00000000000E+00  0.26448072309E+02  0.26448072309E+02  0.00000000000E+00 0.  1.
          2   -1    0    0  501    0  0.00000000000E+00 -0.00000000000E+00 -0.15744612992E+04  0.15744612992E+04  0.00000000000E+00 0. -1.
         25    2    1    2    0    0  0.34400693255E+02  0.54369195529E+02 -0.14386379419E+04  0.14454991779E+04  0.12509727543E+03 0.  0.
          5    1    3    3  502    0  0.14485614149E+02  0.20104425016E+02 -0.47047037210E+02  0.53337763664E+02  0.41800000000E+01 0.  1.
         -5    1    3    3    0  502  0.19915079105E+02  0.34264770513E+02 -0.13915909047E+04  0.13921614143E+04  0.41800000000E+01 0.  1.
        -11    1    1    2    0    0  0.21645152604E+02 -0.30413491006E+02 -0.78855970404E+02  0.87245384604E+02  0.00000000000E+00 0.  1.
         11    1    1    2    0    0 -0.56045845859E+02 -0.23955704523E+02 -0.30519314503E+02  0.68164808919E+02  0.00000000000E+00 0. -1.
</event>
<event>
 7    1  0.2648915E-009  0.1774339E+03  0.7561462E-02  0.1170310E+00
         -1   -1    0    0    0  501 -0.00000000000E+00  0.00000000000E+00  0.34447471309E+03  0.34447471309E+03  0.00000000000E+00 0.  1.
          1   -1    0    0  501    0  0.00000000000E+00 -0.00000000000E+00 -0.13941495497E+03  0.13941495497E+03  0.00000000000E+00 0. -1.
         25    2    1    2    0    0 -0.17784436004E+02  0.14492913137E+03  0.24164700597E+03  0.30880605721E+03  0.12508863335E+03 0.  0.
          5    1    3    3  502    0 -0.15470284502E+02  0.16730598566E+03  0.19960741484E+03  0.26094293437E+03  0.41800000000E+01 0. -1.
         -5    1    3    3    0  502 -0.23141515013E+01 -0.22376854295E+02  0.42039591132E+02  0.47863122839E+02  0.41800000000E+01 0. -1.
        -11    1    1    2    0    0  0.62344294385E+01  0.82277541447E+01  0.10211573328E+02  0.14520340166E+02  0.00000000000E+00 0.  1.
         11    1    1    2    0    0  0.11550006565E+02 -0.15315688551E+03 -0.46798821178E+02  0.16056327069E+03  0.00000000000E+00 0. -1.
</event>
<event>
 7    1  0.2648915E-009  0.1041061E+03  0.7561462E-02  0.1271891E+00
         -2   -1    0    0    0  501 -0.00000000000E+00  0.00000000000E+00  0.51839001396E+02  0.51839001396E+02  0.00000000000E+00 0.  1.
          2   -1    0    0  501    0  0.00000000000E+00 -0.00000000000E+00 -0.24898428330E+03  0.24898428330E+03  0.00000000000E+00 0. -1.
         25    2    1    2    0    0  0.57408058710E+02  0.61271123842E+01 -0.97255463253E+02  0.16863963712E+03  0.12508986915E+03 0.  0.
          5    1    3    3  502    0  0.87241508661E+02 -0.11175890048E+02 -0.30145785135E+02  0.93071059483E+02  0.41800000000E+01 0. -1.
         -5    1    3    3    0  502 -0.29833449951E+02  0.17303002433E+02 -0.67109678118E+02  0.75568577639E+02  0.41800000000E+01 0. -1.
        -11    1    1    2    0    0 -0.55737857368E+02  0.20014999405E+02 -0.78683232506E+02  0.98480251943E+02  0.00000000000E+00 0. -1.
         11    1    1    2    0    0 -0.16702013412E+01 -0.26142111789E+02 -0.21206586148E+02  0.33703395635E+02  0.00000000000E+00 0.  1.
</event>
<event>
 7    1  0.2648915E-009  0.1415761E+03  0.7561462E-02  0.1211224E+00
          1   -1    0    0  501    0  0.00000000000E+00  0.00000000000E+00  0.88620933899E+03  0.88620933899E+03  0.00000000000E+00 0. -1.
         -1   -1    0    0    0  501 -0.00000000000E+00 -0.00000000000E+00 -0.31099989295E+02  0.31099989295E+02  0.00000000000E+00 0.  1.
         25    2    1    2    0    0  0.58484487053E+02  0.10534962245E+03  0.37801304309E+03  0.41600521622E+03  0.12508997164E+03 0.  0.
          5    1    3    3  502    0  0.61717653081E+02  0.12405511910E+03  0.36975515382E+03  0.39488617025E+03  0.41800000000E+01 0. -1.
         -5    1    3    3    0  502 -0.32331660281E+01 -0.18705496654E+02  0.82578892633E+01  0.21119045971E+02  0.41800000000E+01 0. -1.
        -11    1    1    2    0    0 -0.44917837794E+02 -0.46315983301E+02  0.38948202266E+03  0.39478985351E+03  0.00000000000E+00 0. -1.
         11    1    1    2    0    0 -0.13566649259E+02 -0.59033639144E+02  0.87614283945E+02  0.10651425855E+03  0.00000000000E+00 0.  1.
</event>
<event>
 7    1  0.2648915E-009  0.8758273E+02  0.7561462E-02  0.1308813E+00
          1   -1    0    0  501    0  0.00000000000E+00  0.00000000000E+00  0.16093045215E+03  0.16093045215E+03  0.00000000000E+00 0. -1.
         -1   -1    0    0    0  501 -0.00000000000E+00 -0.00000000000E+00 -0.11440409607E+03  0.11440409607E+03  0.00000000000E+00 0.  1.
         25    2    1    2    0    0 -0.25937483382E+02  0.38050843678E+02  0.95242900425E+02  0.16382377057E+03  0.12508556261E+03 0.  0.
          5    1    3    3  502    0  0.35334508576E+02  0.63950714601E+01 -0.10378106548E+02  0.37611194222E+02  0.41800000000E+01 0.  1.
         -5    1    3    3    0  502 -0.61271991958E+02  0.31655772217E+02  0.10562100697E+03  0.12621257634E+03  0.41800000000E+01 0.  1.
        -11    1    1    2    0    0 -0.16295343567E+02 -0.12744895895E+02  0.18797150833E+02  0.27951806253E+02  0.00000000000E+00 0. -1.
         11    1    1    2    0    0  0.42232826949E+02 -0.25305947782E+02 -0.67513695179E+02  0.83558971403E+02  0.00000000000E+00 0.  1.
</event>
<event>
 7    1  0.2648915E-009  0.1621277E+03  0.7561462E-02  0.1186315E+00
         -2   -1    0    0    0  501 -0.00000000000E+00  0.00000000000E+00  0.33448987065E+02  0.33448987065E+02  0.00000000000E+00 0.  1.
          2   -1    0    0  501    0  0.00000000000E+00 -0.00000000000E+00 -0.11532651013E+04  0.11532651013E+04  0.00000000000E+00 0. -1.
         25    2    1    2    0    0  0.83830607156E+02  0.10140510261E+03 -0.89507648936E+03  0.91330182013E+03  0.12509087625E+03 0.  0.
          5    1    3    3  502    0  0.46212219176E+02  0.12718658111E+03 -0.64290052718E+03  0.65700118406E+03  0.41800000000E+01 0. -1.
         -5    1    3    3    0  502  0.37618387980E+02 -0.25781478491E+02 -0.25217596218E+03  0.25630063606E+03  0.41800000000E+01 0. -1.
        -11    1    1    2    0    0 -0.30608497391E+02 -0.80092412010E+02 -0.18425536407E+03  0.20322823072E+03  0.00000000000E+00 0. -1.
         11    1    1    2    0    0 -0.53222109765E+02 -0.21312690605E+02 -0.40484260813E+02  0.70184037518E+02  0.00000000000E+00 0.  1.
</event>
<event>
 7    1  0.2648915E-009  0.1052370E+03  0.7561462E-02  0.1269653E+00
         -1   -1    0    0    0  501 -0.00000000000E+00  0.00000000000E+00  0.32837888840E+02  0.32837888840E+02  0.00000000000E+00 0.  1.
          1   -1    0    0  501    0  0.00000000000E+00 -0.00000000000E+00 -0.63772513063E+03  0.63772513063E+03  0.00000000000E+00 0. -1.
         25    2    1    2    0    0  0.79003538210E+02 -0.31877961056E+02 -0.44243901859E+03  0.46760814109E+03  0.12508926808E+03 0.  0.
          5    1    3    3  502    0 -0.51642654899E+01 -0.64803820433E+01  0.57106732403E+01  0.10897209658E+02  0.41800000000E+01 0. -1.
         -5    1    3    3    0  502  0.84167803700E+02 -0.25397579013E+02 -0.44814969183E+03  0.45671093143E+03  0.41800000000E+01 0. -1.
        -11    1    1    2    0    0 -0.58855651434E+02 -0.16203452067E+02 -0.49631422193E+02  0.78675394079E+02  0.00000000000E+00 0.  1.
         11    1    1    2    0    0 -0.20147886776E+02  0.48081413123E+02 -0.11281680101E+03  0.12427948430E+03  0.00000000000E+00 0. -1.
</event>
<event>
 7    1  0.2648915E-009  0.1426468E+03  0.7561462E-02  0.1209811E+00
          2   -1    0    0  501    0  0.00000000000E+00  0.00000000000E+00  0.11407345576E+03  0.11407345576E+03  0.00000000000E+00 0. -1.
         -2   -1    0    0    0  501 -0.00000000000E+00 -0.00000000000E+00 -0.21251440921E+03  0.21251440921E+03  0.00000000000E+00 0.  1.
         25    2    1    2    0    0 -0.11014716126E+03 -0.12064020585E+02 -0.34644769806E+02  0.17066328147E+03  0.12509099824E+03 0.  0.
          5    1    3    3  502    0 -0.83285853116E+02 -0.54848494192E+02 -0.57356035027E+02  0.11511766936E+03  0.41800000000E+01 0. -1.
         -5    1    3    3    0  502 -0.26861308142E+02  0.42784473607E+02  0.22711265221E+02  0.55545612112E+02  0.41800000000E+01 0. -1.
        -11    1    1    2    0    0  0.94789366050E+02  0.40022754868E+02 -0.25352255102E+02  0.10596972050E+03  0.00000000000E+00 0. -1.
         11    1    1    2    0    0  0.15357795208E+02 -0.27958734283E+02 -0.38443928541E+02  0.49954863007E+02  0.00000000000E+00 0.  1.
</event>
<event>
 7    1  0.2648915E-009  0.1203186E+03  0.7561462E-02  0.1242572E+00
         -3   -1    0    0    0  501 -0.00000000000E+00  0.00000000000E+00  0.73796316426E+02  0.73796316426E+02  0.00000000000E+00 0.  1.
          3   -1    0    0  501    0  0.00000000000E+00 -0.00000000000E+00 -0.29221347280E+03  0.29221347280E+03  0.00000000000E+00 0. -1.
         25    2    1    2    0    0  0.66523921537E+02  0.44553487544E+02 -0.42703671436E+02  0.15454215862E+03  0.12509688185E+03 0.  0.
          5    1    3    3  502    0  0.10012418447E+03  0.36164689303E+02 -0.51843190838E+02  0.11848175347E+03  0.41800000000E+01 0.  1.
         -5    1    3    3    0  502 -0.33600262934E+02  0.83887982409E+01  0.91395194021E+01  0.36060405156E+02  0.41800000000E+01 0.  1.
        -11    1    1    2    0    0  0.10947099414E+02 -0.32298619788E+01  0.34686534813E+01  0.11929063289E+02  0.00000000000E+00 0.  1.
         11    1    1    2    0    0 -0.77471020951E+02 -0.41323625565E+02 -0.17918213841E+03  0.19953856731E+03  0.00000000000E+00 0. -1.
</event>
<event>
 7    1  0.2648915E-009  0.1043710E+03  0.7561462E-02  0.1271364E+00
         -1   -1    0    0    0  501 -0.00000000000E+00  0.00000000000E+00  0.41760204582E+02  0.41760204582E+02  0.00000000000E+00 0.  1.
          1   -1    0    0  501    0  0.00000000000E+00 -0.00000000000E+00 -0.33762954299E+03  0.33762954299E+03  0.00000000000E+00 0. -1.
         25    2    1    2    0    0 -0.39760261015E+02 -0.26980989206E+02 -0.15974143658E+03  0.20850351990E+03  0.12509012398E+03 0.  0.
          5    1    3    3  502    0 -0.49957454956E+02 -0.57592689088E+02 -0.43676270553E+02  0.87964505065E+02  0.41800000000E+01 0. -1.
         -5    1    3    3    0  502  0.10197193941E+02  0.30611699882E+02 -0.11606516603E+03  0.12053901484E+03  0.41800000000E+01 0. -1.
        -11    1    1    2    0    0  0.11002008715E+02  0.57133768072E+02 -0.56965060499E+02  0.81426836900E+02  0.00000000000E+00 0.  1.
         11    1    1    2    0    0  0.28758252301E+02 -0.30152778867E+02 -0.79162841331E+02  0.89459390767E+02  0.00000000000E+00 0. -1.
</event>
<event>
 7    1  0.2648915E-009  0.8340855E+02  0.7561462E-02  0.1319648E+00
          2   -1    0    0  501    0  0.00000000000E+00  0.00000000000E+00  0.32766628669E+03  0.32766628669E+03  0.00000000000E+00 0. -1.
         -2   -1    0    0    0  501 -0.00000000000E+00 -0.00000000000E+00 -0.37793291704E+02  0.37793291704E+02  0.00000000000E+00 0.  1.
         25    2    1    2    0    0 -0.34173106096E+01 -0.25854894348E+02  0.16666436767E+03  0.21001033558E+03  0.12508867265E+03 0.  0.
          5    1    3    3  502    0 -0.17120448827E+02 -0.67141255872E+02  0.50339262324E+02  0.85747138374E+02  0.41800000000E+01 0. -1.
         -5    1    3    3    0  502  0.13703138217E+02  0.41286361524E+02  0.11632510535E+03  0.12426319720E+03  0.41800000000E+01 0. -1.
        -11    1    1    2    0    0  0.21994055089E+02  0.16173781838E+00 -0.56816695833E+01  0.22716645607E+02  0.00000000000E+00 0.  1.
         11    1    1    2    0    0 -0.18576744479E+02  0.25693156529E+02  0.12889029690E+03  0.13273259721E+03  0.00000000000E+00 0. -1.
</event>
<event>
 7    1  0.2648915E-009  0.1041005E+03  0.7561462E-02  0.1271902E+00
         -2   -1    0    0    0  501 -0.00000000000E+00  0.00000000000E+00  0.20448899699E+02  0.20448899699E+02  0.00000000000E+00 0.  1.
          2   -1    0    0  501    0  0.00000000000E+00 -0.00000000000E+00 -0.94261119476E+03  0.94261119476E+03  0.00000000000E+00 0. -1.
         25    2    1    2    0    0  0.77823454491E+02  0.21474741728E+02 -0.40152784614E+03  0.42824014375E+03  0.12508938759E+03 0.  0.
          5    1    3    3  502    0  0.42699715544E+02 -0.63932919721E+01 -0.27171092395E+02  0.51184768748E+02  0.41800000000E+01 0. -1.
         -5    1    3    3    0  502  0.35123738946E+02  0.27868033700E+02 -0.37435675375E+03  0.37705537500E+03  0.41800000000E+01 0. -1.
        -11    1    1    2    0    0 -0.34252314512E+02 -0.55015517973E+02 -0.33509652023E+03  0.34130573705E+03  0.00000000000E+00 0. -1.
         11    1    1    2    0    0 -0.43571139979E+02  0.33540776245E+02 -0.18553792869E+03  0.19351421367E+03  0.00000000000E+00 0.  1.
</event>
<event>
 7    1  0.2648915E-009  0.9782832E+02  0.7561462E-02  0.1284930E+00
          1   -1    0    0  501    0  0.00000000000E+00  0.00000000000E+00  0.83867778243E+02  0.83867778243E+02  0.00000000000E+00 0. -1.
         -1   -1    0    0    0  501 -0.00000000000E+00 -0.00000000000E+00 -0.15895664027E+03  0.15895664027E+03  0.00000000000E+00 0.  1.
         25    2    1    2    0    0  0.22879382356E+02 -0.13833856423E+02 -0.75224952797E+02  0.14839694454E+03  0.12509203774E+03 0.  0.
          5    1    3    3  502    0  0.24203748639E+02 -0.55817018479E+02  0.13065574492E+01  0.60996233428E+02  0.41800000000E+01 0. -1.
         -5    1    3    3    0  502 -0.13243662829E+01  0.41983162056E+02 -0.76531510247E+02  0.87400711112E+02  0.41800000000E+01 0. -1.
        -11    1    1    2    0    0  0.25663273192E+02  0.31656187458E+02  0.95760971687E+01  0.41861909085E+02  0.00000000000E+00 0. -1.
         11    1    1    2    0    0 -0.48542655548E+02 -0.17822331034E+02 -0.94400064000E+01  0.52565564888E+02  0.00000000000E+00 0.  1.
</event>
<event>
 7    1  0.2648915E-009  0.1123621E+03  0.7561462E-02  0.1256257E+00
          1   -1    0    0  501    0  0.00000000000E+00  0.00000000000E+00  0.69796353146E+03  0.69796353146E+03  0.00000000000E+00 0. -1.
         -1   -1    0    0    0  501 -0.00000000000E+00 -0.00000000000E+00 -0.36521200312E+02  0.36521200312E+02  0.00000000000E+00 0.  1.
         25    2    1    2    0    0  0.77392017644E+02  0.99527686176E+00  0.54330384995E+03  0.56286554705E+03  0.12509210891E+03 0.  0.
          5    1    3    3  502    0  0.36690033762E+02  0.35185577312E+02  0.46700168579E+03  0.46977891647E+03  0.41800000000E+01 0.  1.
         -5    1    3    3    0  502  0.40701983882E+02 -0.34190300450E+02  0.76302164157E+02  0.93086630575E+02  0.41800000000E+01 0.  1.
        -11    1    1    2    0    0  0.16095482571E+02  0.18890762432E+02  0.86518009974E+01  0.26282677279E+02  0.00000000000E+00 0.  1.
         11    1    1    2    0    0 -0.93487500215E+02 -0.19886039294E+02  0.10948668020E+03  0.14533650745E+03  0.00000000000E+00 0. -1.
</event>
<event>
 7    1  0.2648915E-009  0.1761915E+03  0.7561462E-02  0.1171541E+00
          2   -1    0    0  501    0  0.00000000000E+00  0.00000000000E+00  0.15538283158E+03  0.15538283158E+03  0.00000000000E+00 0. -1.
         -2   -1    0    0    0  501 -0.00000000000E+00 -0.00000000000E+00 -0.22378529598E+03  0.22378529598E+03  0.00000000000E+00 0.  1.
         25    2    1    2    0    0 -0.84249324298E+02  0.12041790485E+03 -0.72716047602E+02  0.20623973542E+03  0.12509510156E+03 0.  0.
          5    1    3    3  502    0 -0.11124955954E+03  0.59641307313E+02 -0.50090924401E+02  0.13586803577E+03  0.41800000000E+01 0.  1.
         -5    1    3    3    0  502  0.27000235245E+02  0.60776597541E+02 -0.22625123200E+02  0.70371699651E+02  0.41800000000E+01 0.  1.
        -11    1    1    2    0    0  0.10902367839E+02 -0.69047655228E+02  0.35121133584E+02  0.78230009211E+02  0.00000000000E+00 0. -1.
         11    1    1    2    0    0  0.73346956459E+02 -0.51370249627E+02 -0.30807550379E+02  0.94698382926E+02  0.00000000000E+00 0.  1.
</event>
<event>
 7    1  0.2648915E-009  0.2589457E+03  0.7561462E-02  0.1107778E+00
          1   -1    0    0  501    0  0.00000000000E+00  0.00000000000E+00  0.65441947775E+03  0.65441947775E+03  0.00000000000E+00 0. -1.
         -1   -1    0    0    0  501 -0.00000000000E+00 -0.00000000000E+00 -0.12229884208E+03  0.12229884208E+03  0.00000000000E+00 0.  1.
         25    2    1    2    0    0 -0.24608065009E+03  0.56744226102E+02  0.20873739672E+03  0.35070952653E+03  0.12510106981E+03 0.  0.
          5    1    3    3  502    0 -0.12856966054E+02  0.26776052876E+02  0.73581833513E+02  0.79460790375E+02  0.41800000000E+01 0.  1.
         -5    1    3    3    0  502 -0.23322368404E+03  0.29968173226E+02  0.13515556321E+03  0.27124873616E+03  0.41800000000E+01 0.  1.
        -11    1    1    2    0    0  0.83407974519E+02 -0.14623778698E+02  0.20105732757E+03  0.21816231133E+03  0.00000000000E+00 0. -1.
         11    1    1    2    0    0  0.16267267557E+03 -0.42120447405E+02  0.12232591138E+03  0.20784648196E+03  0.00000000000E+00 0.  1.
</event>
<event>
 7    1  0.2648915E-009  0.1439195E+03  0.7561462E-02  0.1208150E+00
         -2   -1    0    0    0  501 -0.00000000000E+00  0.00000000000E+00  0.43575198831E+02  0.43575198831E+02  0.00000000000E+00 0.  1.
          2   -1    0    0  501    0  0.00000000000E+00 -0.00000000000E+00 -0.77109358063E+03  0.77109358063E+03  0.00000000000E+00 0. -1.
         25    2    1    2    0    0  0.11719485031E+03 -0.20083137060E+02 -0.18945580959E+03  0.25628012664E+03  0.12509210283E+03 0.  0.
          5    1    3    3  502    0  0.87529381748E+02 -0.46321250038E+02 -0.49544459942E+02  0.11081144700E+03  0.41800000000E+01 0.  1.
         -5    1    3    3    0  502  0.29665468559E+02  0.26238112978E+02 -0.13991134964E+03  0.14546867964E+03  0.41800000000E+01 0.  1.
        -11    1    1    2    0    0 -0.11387311330E+03 -0.13929472124E+02 -0.39681599863E+03  0.41306664461E+03  0.00000000000E+00 0.  1.
         11    1    1    2    0    0 -0.33217370087E+01  0.34012609184E+02 -0.14124657359E+03  0.14532200821E+03  0.00000000000E+00 0. -1.
</event>
<event>
 7    1  0.2648915E-009  0.1305854E+03  0.7561462E-02  0.1226590E+00
         -2   -1    0    0    0  501 -0.00000000000E+00  0.00000000000E+00  0.45420630865E+02  0.45420630865E+02  0.00000000000E+00 0. -1.
          2   -1    0    0  501    0  0.00000000000E+00 -0.00000000000E+00 -0.54447490526E+03  0.54447490526E+03  0.00000000000E+00 0.  1.
         25    2    1    2    0    0 -0.38641128163E+01  0.88843969535E+02 -0.39942016844E+03  0.42789322013E+03  0.12509178462E+03 0.  0.
          5    1    3    3  502    0  0.25640119171E+02  0.10073744934E+03 -0.19542902064E+03  0.22139427255E+03  0.41800000000E+01 0. -1.
         -5    1    3    3    0  502 -0.29504231988E+02 -0.11893479803E+02 -0.20399114780E+03  0.20649894757E+03  0.41800000000E+01 0. -1.
        -11    1    1    2    0    0 -0.41231050581E+02 -0.54653270447E+02 -0.70807634530E+02  0.98492134763E+02  0.00000000000E+00 0.  1.
         11    1    1    2    0    0  0.45095163397E+02 -0.34190699088E+02 -0.28826471418E+02  0.63510181234E+02  0.00000000000E+00 0. -1.
</event>
<event>
 7    1  0.2648915E-009  0.1157846E+03  0.7561462E-02  0.1250218E+00
         -2   -1    0    0    0  501 -0.00000000000E+00  0.00000000000E+00  0.82932316781E+02  0.82932316781E+02  0.00000000000E+00 0.  1.
          2   -1    0    0  501    0  0.00000000000E+00 -0.00000000000E+00 -0.25695381084E+03  0.25695381084E+03  0.00000000000E+00 0. -1.
         25    2    1    2    0    0 -0.89307614825E+02  0.36162595446E+02 -0.77365127814E+02  0.17582927873E+03  0.12508792460E+03 0.  0.
          5    1    3    3  502    0 -0.32836259399E+00  0.29877026072E+02 -0.81020718112E+02  0.86455616777E+02  0.41800000000E+01 0.  1.
         -5    1    3    3    0  502 -0.88979252231E+02  0.62855693735E+01  0.36555902979E+01  0.89373661950E+02  0.41800000000E+01 0.  1.
        -11    1    1    2    0    0  0.63207350760E+02 -0.51758819742E+02 -0.10451207331E+03  0.13265337568E+03  0.00000000000E+00 0. -1.
         11    1    1    2    0    0  0.26100264065E+02  0.15596224297E+02  0.78557070654E+01  0.31403473216E+02  0.00000000000E+00 0.  1.
</event>
<event>
 7    1  0.2648915E-009  0.1834429E+03  0.7561462E-02  0.1164512E+00
          3   -1    0    0  501    0  0.00000000000E+00  0.00000000000E+00  0.42794221854E+03  0.42794221854E+03  0.00000000000E+00 0. -1.
         -3   -1    0    0    0  501 -0.00000000000E+00 -0.00000000000E+00 -0.99575562553E+02  0.99575562553E+02  0.00000000000E+00 0.  1.
         25    2    1    2    0    0  0.13081194841E+02  0.15030828730E+03  0.61069022233E+02  0.20528238374E+03  0.12509089778E+03 0.  0.
          5    1    3    3  502    0  0.23591943504E+02 -0.15801108723E+02  0.15715457153E+02  0.32721595754E+02  0.41800000000E+01 0. -1.
         -5    1    3    3    0  502 -0.10510748663E+02  0.16610939602E+03  0.45353565080E+02  0.17256078798E+03  0.41800000000E+01 0. -1.
        -11    1    1    2    0    0  0.32999661550E+02 -0.38189791427E+02  0.39120188297E+02  0.63857865326E+02  0.00000000000E+00 0.  1.
         11    1    1    2    0    0 -0.46080856391E+02 -0.11211849587E+03  0.22817744546E+03  0.25837753203E+03  0.00000000000E+00 0. -1.
</event>
<event>
 7    1  0.2648915E-009  0.9839046E+02  0.7561462E-02  0.1283717E+00
          2   -1    0    0  501    0  0.00000000000E+00  0.00000000000E+00  0.13671639801E+03  0.13671639801E+03  0.00000000000E+00 0. -1.
         -2   -1    0    0    0  501 -0.00000000000E+00 -0.00000000000E+00 -0.12208481330E+03  0.12208481330E+03  0.00000000000E+00 0.  1.
         25    2    1    2    0    0  0.69450335504E+01  0.12675910137E+02 -0.59866111377E+02  0.13942974753E+03  0.12509113084E+03 0.  0.
          5    1    3    3  502    0 -0.48105492926E+02  0.12567082963E+02  0.94825944684E+01  0.50788404402E+02  0.41800000000E+01 0. -1.
         -5    1    3    3    0  502  0.55050526476E+02  0.10882717410E+00 -0.69348705846E+02  0.88641343126E+02  0.41800000000E+01 0. -1.
        -11    1    1    2    0    0 -0.44910459989E+02 -0.25449258609E+02  0.30880650291E+02  0.60151714377E+02  0.00000000000E+00 0.  1.
         11    1    1    2    0    0  0.37965426438E+02  0.12773348471E+02  0.43617045799E+02  0.59219749409E+02  0.00000000000E+00 0. -1.
</event>
<event>
 7    1  0.2648915E-009  0.1735643E+03  0.7561462E-02  0.1174181E+00
          2   -1    0    0  501    0  0.00000000000E+00  0.00000000000E+00  0.26676377079E+03  0.26676377079E+03  0.00000000000E+00 0. -1.
         -2   -1    0    0    0  501 -0.00000000000E+00 -0.00000000000E+00 -0.13197485064E+03  0.13197485064E+03  0.00000000000E+00 0.  1.
         25    2    1    2    0    0  0.12571434940E+03  0.84635577173E+02  0.55816634158E+02  0.20429207355E+03  0.12510985612E+03 0.  0.
          5    1    3    3  502    0  0.13854344156E+03  0.63518172125E+02  0.10898715736E+02  0.15285646140E+03  0.41800000000E+01 0.  1.
         -5    1    3    3    0  502 -0.12829092155E+02  0.21117405048E+02  0.44917918422E+02  0.51435612146E+02  0.41800000000E+01 0.  1.
        -11    1    1    2    0    0 -0.90198348736E+02 -0.96562053618E+02  0.35029403752E+02  0.13670051734E+03  0.00000000000E+00 0.  1.
         11    1    1    2    0    0 -0.35516000665E+02  0.11926476445E+02  0.43942882239E+02  0.57746030540E+02  0.00000000000E+00 0. -1.
</event>
<event>
 7    1  0.2648915E-009  0.1337268E+03  0.7561462E-02  0.1222028E+00
         -1   -1    0    0    0  501 -0.00000000000E+00  0.00000000000E+00  0.43834958416E+02  0.43834958416E+02  0.00000000000E+00 0.  1.
          1   -1    0    0  501    0  0.00000000000E+00 -0.00000000000E+00 -0.50324478168E+03  0.50324478168E+03  0.00000000000E+00 0. -1.
         25    2    1    2    0    0 -0.39059505151E+02  0.90925812559E+02 -0.21975628899E+03  0.27153713104E+03  0.12508572521E+03 0.  0.
          5    1    3    3  502    0 -0.12789128197E+02  0.11183300734E+03 -0.20645337432E+03  0.23518216662E+03  0.41800000000E+01 0.  1.
         -5    1    3    3    0  502 -0.26270376954E+02 -0.20907194780E+02 -0.13302914666E+02  0.36354964413E+02  0.41800000000E+01 0.  1.
        -11    1    1    2    0    0  0.25624982300E+02  0.32687549570E+01 -0.11959267140E+03  0.12235085423E+03  0.00000000000E+00 0. -1.
         11    1    1    2    0    0  0.13434522851E+02 -0.94194567516E+02 -0.12006086287E+03  0.15319175483E+03  0.00000000000E+00 0.  1.
</event>
<event>
 7    1  0.2648915E-009  0.1901524E+03  0.7561462E-02  0.1158324E+00
         -3   -1    0    0    0  501 -0.00000000000E+00  0.00000000000E+00  0.26946281418E+03  0.26946281418E+03  0.00000000000E+00 0.  1.
          3   -1    0    0  501    0  0.00000000000E+00 -0.00000000000E+00 -0.17169467730E+03  0.17169467730E+03  0.00000000000E+00 0. -1.
         25    2    1    2    0    0 -0.18356861212E+03  0.20559381522E+02  0.56143498616E+02  0.23004372245E+03  0.12509155957E+03 0.  0.
          5    1    3    3  502    0 -0.16721283729E+02  0.16017810144E+02 -0.33190720444E+02  0.40684983654E+02  0.41800000000E+01 0.  1.
         -5    1    3    3    0  502 -0.16684732839E+03  0.45415713778E+01  0.89334219060E+02  0.18935873879E+03  0.41800000000E+01 0.  1.
        -11    1    1    2    0    0  0.11485893289E+03 -0.34034154364E+02  0.66246529153E+02  0.13689229618E+03  0.00000000000E+00 0.  1.
         11    1    1    2    0    0  0.68709679230E+02  0.13474772842E+02 -0.24621890885E+02  0.74221472862E+02  0.00000000000E+00 0. -1.
</event>
<event>
 7    1  0.2648915E-009  0.9828511E+02  0.7561462E-02  0.1283944E+00
         -1   -1    0    0    0  501 -0.00000000000E+00  0.00000000000E+00  0.13914409654E+03  0.13914409654E+03  0.00000000000E+00 0.  1.
          1   -1    0    0  501    0  0.00000000000E+00 -0.00000000000E+00 -0.87251815081E+02  0.87251815081E+02  0.00000000000E+00 0. -1.
         25    2    1    2    0    0  0.19077981278E+02 -0.42629890052E+01  0.29936875355E+02  0.13010574405E+03  0.12509654545E+03 0.  0.
          5    1    3    3  502    0  0.86757389438E+01 -0.62792087617E+02  0.30593136557E+02  0.70509056992E+02  0.41800000000E+01 0.  1.
         -5    1    3    3    0  502  0.10402242334E+02  0.58529098611E+02 -0.65626120208E+00  0.59596687061E+02  0.41800000000E+01 0.  1.
        -11    1    1    2    0    0 -0.43411043411E+02  0.16215516317E+02 -0.16542304668E+02  0.49204771142E+02  0.00000000000E+00 0.  1.
         11    1    1    2    0    0  0.24333062133E+02 -0.11952527312E+02  0.38497710768E+02  0.47085396423E+02  0.00000000000E+00 0. -1.
</event>
<event>
 7    1  0.2648915E-009  0.1057185E+03  0.7561462E-02  0.1268711E+00
         -3   -1    0    0    0  501 -0.00000000000E+00  0.00000000000E+00  0.66406274645E+03  0.66406274645E+03  0.00000000000E+00 0.  1.
          3   -1    0    0  501    0  0.00000000000E+00 -0.00000000000E+00 -0.20357201452E+02  0.20357201452E+02  0.00000000000E+00 0. -1.
         25    2    1    2    0    0 -0.34698170843E+02  0.23003841937E+02  0.38891567845E+03  0.41065294552E+03  0.12508915588E+03 0.  0.
          5    1    3    3  502    0 -0.61512102189E+02  0.47800633455E+02  0.34338132737E+03  0.35213186119E+03  0.41800000000E+01 0. -1.
         -5    1    3    3    0  502  0.26813931346E+02 -0.24796791518E+02  0.45534351079E+02  0.58521084337E+02  0.41800000000E+01 0. -1.
        -11    1    1    2    0    0  0.41603825125E+01 -0.53408256548E+02  0.10463610517E+03  0.11755196789E+03  0.00000000000E+00 0.  1.
         11    1    1    2    0    0  0.30537788330E+02  0.30404414611E+02  0.15015376137E+03  0.15621503448E+03  0.00000000000E+00 0. -1.
</event>
<event>
 7    1  0.2648915E-009  0.1097484E+03  0.7561462E-02  0.1261037E+00
          1   -1    0    0  501    0  0.00000000000E+00  0.00000000000E+00  0.49224744117E+02  0.49224744117E+02  0.00000000000E+00 0. -1.
         -1   -1    0    0    0  501 -0.00000000000E+00 -0.00000000000E+00 -0.29516606496E+03  0.29516606496E+03  0.00000000000E+00 0.  1.
         25    2    1    2    0    0 -0.20117367166E+02 -0.16954445993E+02 -0.76045920898E+02  0.14875034083E+03  0.12510603548E+03 0.  0.
          5    1    3    3  502    0  0.34291836002E+01 -0.68984707184E+02 -0.30670722728E+02  0.75688934186E+02  0.41800000000E+01 0. -1.
         -5    1    3    3    0  502 -0.23546550766E+02  0.52030261191E+02 -0.45375198169E+02  0.73061406648E+02  0.41800000000E+01 0. -1.
        -11    1    1    2    0    0  0.50394882479E+02  0.31518177088E+02 -0.79947678234E+02  0.99622642617E+02  0.00000000000E+00 0.  1.
         11    1    1    2    0    0 -0.30277515313E+02 -0.14563731094E+02 -0.89947721710E+02  0.96017825625E+02  0.00000000000E+00 0. -1.
</event>
<event>
 7    1  0.2648915E-009  0.9262128E+02  0.7561462E-02  0.1296625E+00
         -3   -1    0    0    0  501 -0.00000000000E+00  0.00000000000E+00  0.12068810028E+03  0.12068810028E+03  0.00000000000E+00 0.  1.
          3   -1    0    0  501    0  0.00000000000E+00 -0.00000000000E+00 -0.12673823278E+03  0.12673823278E+03  0.00000000000E+00 0. -1.
         25    2    1    2    0    0  0.16785508624E+02 -0.15093957565E+02 -0.61080493375E+02  0.14102403997E+03  0.12508945728E+03 0.  0.
          5    1    3    3  502    0  0.43478382336E+02  0.32113784894E+02  0.61322927010E+01  0.54559530098E+02  0.41800000000E+01 0. -1.
         -5    1    3    3    0  502 -0.26692873712E+02 -0.47207742458E+02 -0.67212786076E+02  0.86464509870E+02  0.41800000000E+01 0. -1.
        -11    1    1    2    0    0 -0.45765875873E+02  0.13018979305E+02  0.60363876952E+02  0.76862258991E+02  0.00000000000E+00 0.  1.
         11    1    1    2    0    0  0.28980367249E+02  0.20749782600E+01 -0.53335160822E+01  0.29540034097E+02  0.00000000000E+00 0. -1.
</event>
<event>
 7    1  0.2648915E-009  0.2516750E+03  0.7561462E-02  0.1112251E+00
         -1   -1    0    0    0  501 -0.00000000000E+00  0.00000000000E+00  0.29549848067E+02  0.29549848067E+02  0.00000000000E+00 0. -1.
          1   -1    0    0  501    0  0.00000000000E+00 -0.00000000000E+00 -0.24446551014E+04  0.24446551014E+04  0.00000000000E+00 0.  1.
         25    2    1    2    0    0  0.61102822794E+02  0.23514273132E+03 -0.13961538185E+04  0.14226450559E+04  0.12509121113E+03 0.  0.
          5    1    3    3  502    0 -0.22769040938E+02  0.35892867782E+02 -0.45369045571E+03  0.45569642218E+03  0.41800000000E+01 0. -1.
         -5    1    3    3    0  502  0.83871863732E+02  0.19924986354E+03 -0.94246336280E+03  0.96694863373E+03  0.41800000000E+01 0. -1.
        -11    1    1    2    0    0 -0.51352270050E+02 -0.14651592238E+03 -0.80395084770E+03  0.81880457783E+03  0.00000000000E+00 0.  1.
         11    1    1    2    0    0 -0.97505527438E+01 -0.88626808941E+02 -0.21500058716E+03  0.23275531578E+03  0.00000000000E+00 0. -1.
</event>
<event>
 7    1  0.2648915E-009  0.8450685E+02  0.7561462E-02  0.1316727E+00
         -2   -1    0    0    0  501 -0.00000000000E+00  0.00000000000E+00  0.36655081892E+02  0.36655081892E+02  0.00000000000E+00 0. -1.
          2   -1    0    0  501    0  0.00000000000E+00 -0.00000000000E+00 -0.34811499330E+03  0.34811499330E+03  0.00000000000E+00 0.  1.
         25    2    1    2    0    0  0.27929610609E+02  0.40304849753E+01 -0.20513507619E+03  0.24191786544E+03  0.12509015219E+03 0.  0.
          5    1    3    3  502    0  0.65713863550E+02  0.39039374968E+02 -0.12346910037E+03  0.14527379600E+03  0.41800000000E+01 0.  1.
         -5    1    3    3    0  502 -0.37784252940E+02 -0.35008889993E+02 -0.81665975829E+02  0.96644069434E+02  0.41800000000E+01 0.  1.
        -11    1    1    2    0    0 -0.57485104727E+01  0.12074847510E+02  0.14049202619E+02  0.19396582413E+02  0.00000000000E+00 0. -1.
         11    1    1    2    0    0 -0.22181100137E+02 -0.16105332486E+02 -0.12037403783E+03  0.12345562734E+03  0.00000000000E+00 0.  1.
</event>
<event>
 7    1  0.2695035E-009  0.1083347E+03  0.7561462E-02  0.1263685E+00
         -2   -1    0    0    0  501 -0.00000000000E+00  0.00000000000E+00  0.61018477370E+02  0.61018477370E+02  0.00000000000E+00 0. -1.
          2   -1    0    0  501    0  0.00000000000E+00 -0.00000000000E+00 -0.33104537247E+03  0.33104537247E+03  0.00000000000E+00 0.  1.
         25    2    1    2    0    0  0.39331739038E+02  0.60919804323E+02 -0.71113448704E+02  0.16113014910E+03  0.12509034379E+03 0.  0.
          5    1    3    3  502    0  0.77415349277E+02  0.29089833559E+02 -0.74252793312E+02  0.11122187031E+03  0.41800000000E+01 0. -1.
         -5    1    3    3    0  502 -0.38083610239E+02  0.31829970764E+02  0.31393446077E+01  0.49908278795E+02  0.41800000000E+01 0. -1.
        -11    1    1    2    0    0 -0.39766086383E+01 -0.45178199199E+02 -0.23072899832E+02  0.50884593010E+02  0.00000000000E+00 0. -1.
         11    1    1    2    0    0 -0.35355130400E+02 -0.15741605125E+02 -0.17584054657E+03  0.18004910773E+03  0.00000000000E+00 0.  1.
</event>
<event>
 7    1  0.2648915E-009  0.1636809E+03  0.7561462E-02  0.1184603E+00
          1   -1    0    0  501    0  0.00000000000E+00  0.00000000000E+00  0.60354859168E+03  0.60354859168E+03  0.00000000000E+00 0. -1.
         -1   -1    0    0    0  501 -0.00000000000E+00 -0.00000000000E+00 -0.56717301376E+02  0.56717301376E+02  0.00000000000E+00 0.  1.
         25    2    1    2    0    0  0.61246588845E+02  0.12134200209E+03  0.40224258727E+03  0.44263104451E+03  0.12509243154E+03 0.  0.
          5    1    3    3  502    0  0.22503810928E+02  0.12359773494E+03  0.37370466338E+03  0.39427841612E+03  0.41800000000E+01 0. -1.
         -5    1    3    3    0  502  0.38742777917E+02 -0.22557328524E+01  0.28537923891E+02  0.48352628382E+02  0.41800000000E+01 0. -1.
        -11    1    1    2    0    0 -0.63924332289E+02 -0.28907801215E+02  0.60222795721E+02  0.92459539011E+02  0.00000000000E+00 0. -1.
         11    1    1    2    0    0  0.26777434442E+01 -0.92434200876E+02  0.84365907314E+02  0.12517530954E+03  0.00000000000E+00 0.  1.
</event>
<event>
 7    1  0.2648915E-009  0.1017293E+03  0.7561462E-02  0.1276701E+00
          1   -1    0    0  501    0  0.00000000000E+00  0.00000000000E+00  0.64567495565E+03  0.64567495565E+03  0.00000000000E+00 0. -1.
         -1   -1    0    0    0  501 -0.00000000000E+00 -0.00000000000E+00 -0.28775892625E+02  0.28775892625E+02  0.00000000000E+00 0.  1.
         25    2    1    2    0    0 -0.22456593688E+02  0.67073054119E+01  0.53648603081E+03  0.55137525804E+03  0.12509247530E+03 0.  0.
          5    1    3    3  502    0 -0.66504967268E+02  0.54681466799E+01  0.44208140457E+03  0.44710876972E+03  0.41800000000E+01 0.  1.
         -5    1    3    3    0  502  0.44048373580E+02  0.12391587319E+01  0.94404626245E+02  0.10426648832E+03  0.41800000000E+01 0.  1.
        -11    1    1    2    0    0  0.51520211360E+02 -0.25741514885E+02  0.41991114448E+02  0.71275602135E+02  0.00000000000E+00 0.  1.
         11    1    1    2    0    0 -0.29063617672E+02  0.19034209473E+02  0.38421917766E+02  0.51799988101E+02  0.00000000000E+00 0. -1.
</event>
<event>
 7    1  0.2648915E-009  0.1012689E+03  0.7561462E-02  0.1277650E+00
          1   -1    0    0  501    0  0.00000000000E+00  0.00000000000E+00  0.16200197303E+03  0.16200197303E+03  0.00000000000E+00 0. -1.
         -1   -1    0    0    0  501 -0.00000000000E+00 -0.00000000000E+00 -0.80669812659E+02  0.80669812659E+02  0.00000000000E+00 0.  1.
         25    2    1    2    0    0  0.34012021689E+02  0.10338628402E+02  0.32093347987E+02  0.13394603032E+03  0.12509137140E+03 0.  0.
          5    1    3    3  502    0 -0.26503518469E+02  0.33383977545E+02 -0.23185291281E+02  0.48702736882E+02  0.41800000000E+01 0. -1.
         -5    1    3    3    0  502  0.60515540158E+02 -0.23045349143E+02  0.55278639268E+02  0.85243293443E+02  0.41800000000E+01 0. -1.
        -11    1    1    2    0    0 -0.38255022701E+02 -0.45475432853E+02  0.19638226710E+02  0.62586913195E+02  0.00000000000E+00 0.  1.
         11    1    1    2    0    0  0.42430010119E+01  0.35136804451E+02  0.29600585678E+02  0.46138842173E+02  0.00000000000E+00 0. -1.
</event>
<event>
 7    1  0.2648915E-009  0.1006521E+03  0.7561462E-02  0.1278931E+00
         -1   -1    0    0    0  501 -0.00000000000E+00  0.00000000000E+00  0.29179146432E+03  0.29179146432E+03  0.00000000000E+00 0.  1.
          1   -1    0    0  501    0  0.00000000000E+00 -0.00000000000E+00 -0.62453079406E+02  0.62453079406E+02  0.00000000000E+00 0. -1.
         25    2    1    2    0    0 -0.48737000285E+01  0.35494608614E+02  0.32016145834E+02  0.13399557810E+03  0.12508461602E+03 0.  0.
          5    1    3    3  502    0 -0.58739947917E+02 -0.39727381185E+01  0.31891297014E+02  0.67087192181E+02  0.41800000000E+01 0.  1.
         -5    1    3    3    0  502  0.53866247889E+02  0.39467346733E+02  0.12484882030E+00  0.66908385924E+02  0.41800000000E+01 0.  1.
        -11    1    1    2    0    0  0.28523658166E+02 -0.42068657922E+02  0.51436043907E+02  0.72312085209E+02  0.00000000000E+00 0. -1.
         11    1    1    2    0    0 -0.23649958137E+02  0.65740493076E+01  0.14588619518E+03  0.14793688042E+03  0.00000000000E+00 0.  1.
</event>
<event>
 7    1  0.2648915E-009  0.1325477E+03  0.7561462E-02  0.1223724E+00
          1   -1    0    0  501    0  0.00000000000E+00  0.00000000000E+00  0.12465648718E+04  0.12465648718E+04  0.00000000000E+00 0. -1.
         -1   -1    0    0    0  501 -0.00000000000E+00 -0.00000000000E+00 -0.30864855534E+02  0.30864855534E+02  0.00000000000E+00 0.  1.
         25    2    1    2    0    0 -0.78731811908E+02 -0.86244924395E+02  0.10104879268E+04  0.10248764360E+04  0.12509585810E+03 0.  0.
          5    1    3    3  502    0 -0.52463770832E+02 -0.66297313391E+02  0.25550437399E+03  0.26916117577E+03  0.41800000000E+01 0. -1.
         -5    1    3    3    0  502 -0.26268041076E+02 -0.19947611003E+02  0.75498355279E+03  0.75571526024E+03  0.41800000000E+01 0. -1.
        -11    1    1    2    0    0  0.26275200877E+02  0.90819879373E+02  0.13030747916E+03  0.16099278181E+03  0.00000000000E+00 0. -1.
         11    1    1    2    0    0  0.52456611031E+02 -0.45749549783E+01  0.74904610274E+02  0.91560509469E+02  0.00000000000E+00 0.  1.
</event>
<event>
 7    1  0.2648915E-009  0.9220427E+02  0.7561462E-02  0.1297600E+00
          1   -1    0    0  501    0  0.00000000000E+00  0.00000000000E+00  0.42599615812E+02  0.42599615812E+02  0.00000000000E+00 0. -1.
         -1   -1    0    0    0  501 -0.00000000000E+00 -0.00000000000E+00 -0.37382697566E+03  0.37382697566E+03  0.00000000000E+00 0.  1.
         25    2    1    2    0    0  0.20394149664E+02  0.54127179783E+02 -0.22629557001E+03  0.26495553575E+03  0.12508428354E+03 0.  0.
          5    1    3    3  502    0  0.47322321240E+02  0.69048972867E+02 -0.81646864171E+02  0.11700788679E+03  0.41800000000E+01 0.  1.
         -5    1    3    3    0  502 -0.26928171577E+02 -0.14921793084E+02 -0.14464870584E+03  0.14794764896E+03  0.41800000000E+01 0.  1.
        -11    1    1    2    0    0 -0.27719143799E+02 -0.18907783193E+02 -0.11012662083E+03  0.11512483578E+03  0.00000000000E+00 0.  1.
         11    1    1    2    0    0  0.73249941352E+01 -0.35219396590E+02  0.51948309873E+01  0.36346219944E+02  0.00000000000E+00 0. -1.
</event>
<event>
 7    1  0.2648915E-009  0.9351428E+02  0.7561462E-02  0.1294558E+00
         -2   -1    0    0    0  501 -0.00000000000E+00  0.00000000000E+00  0.42804035275E+03  0.42804035275E+03  0.00000000000E+00 0.  1.
          2   -1    0    0  501    0  0.00000000000E+00 -0.00000000000E+00 -0.38368680546E+02  0.38368680546E+02  0.00000000000E+00 0. -1.
         25    2    1    2    0    0  0.44438004195E+02  0.24563641699E+02  0.29575581066E+03  0.32511047953E+03  0.12508883103E+03 0.  0.
          5    1    3    3  502    0  0.19705221453E+02  0.44926704448E+02  0.30549612870E+02  0.57943556774E+02  0.41800000000E+01 0.  1.
         -5    1    3    3    0  502  0.24732782742E+02 -0.20363062749E+02  0.26520619779E+03  0.26716692276E+03  0.41800000000E+01 0.  1.
        -11    1    1    2    0    0  0.10620676438E+01 -0.52224878185E+02  0.43654126954E+02  0.68075316300E+02  0.00000000000E+00 0. -1.
         11    1    1    2    0    0 -0.45500071839E+02  0.27661236486E+02  0.50261734583E+02  0.73223237463E+02  0.00000000000E+00 0.  1.
</event>
<event>
 7    1  0.2648915E-009  0.1344153E+03  0.7561462E-02  0.1221048E+00
         -1   -1    0    0    0  501 -0.00000000000E+00  0.00000000000E+00  0.91386648213E+02  0.91386648213E+02  0.00000000000E+00 0.  1.
          1   -1    0    0  501    0  0.00000000000E+00 -0.00000000000E+00 -0.22607362431E+03  0.22607362431E+03  0.00000000000E+00 0. -1.
         25    2    1    2    0    0 -0.89028441527E+02  0.27409732994E+02 -0.86429045199E+02  0.17831120482E+03  0.12509016366E+03 0.  0.
          5    1    3    3  502    0 -0.82014268372E+02  0.71766827481E+02 -0.73053536322E+02  0.13126732005E+03  0.41800000000E+01 0. -1.
         -5    1    3    3    0  502 -0.70141731553E+01 -0.44357094487E+02 -0.13375508876E+02  0.47043884768E+02  0.41800000000E+01 0. -1.
        -11    1    1    2    0    0  0.63786905523E+02  0.14804235916E+02  0.61910892583E+01  0.65774343809E+02  0.00000000000E+00 0.  1.
         11    1    1    2    0    0  0.25241536004E+02 -0.42213968909E+02 -0.54449020152E+02  0.73374723894E+02  0.00000000000E+00 0. -1.
</event>
<event>
 7    1  0.2648915E-009  0.1087580E+03  0.7561462E-02  0.1262887E+00
          1   -1    0    0  501    0  0.00000000000E+00  0.00000000000E+00  0.59045036629E+02  0.59045036629E+02  0.00000000000E+00 0. -1.
         -1   -1    0    0    0  501 -0.00000000000E+00 -0.00000000000E+00 -0.37332484401E+03  0.37332484401E+03  0.00000000000E+00 0.  1.
         25    2    1    2    0    0  0.95777528295E+02 -0.28234295786E+02 -0.14091676896E+03  0.21324993311E+03  0.12508991891E+03 0.  0.
          5    1    3    3  502    0 -0.43284192694E+01  0.74538630671E+01 -0.98146757100E+02  0.98613151341E+02  0.41800000000E+01 0.  1.
         -5    1    3    3    0  502  0.10010594756E+03 -0.35688158853E+02 -0.42770011859E+02  0.11463678177E+03  0.41800000000E+01 0.  1.
        -11    1    1    2    0    0 -0.37953244066E+02  0.17971472438E+01 -0.14428673722E+03  0.14920570033E+03  0.00000000000E+00 0.  1.
         11    1    1    2    0    0 -0.57824284228E+02  0.26437148542E+02 -0.29076301198E+02  0.69914247195E+02  0.00000000000E+00 0. -1.
</event>
<event>
 7    1  0.2648915E-009  0.1333284E+03  0.7561462E-02  0.1222599E+00
          2   -1    0    0  501    0  0.00000000000E+00  0.00000000000E+00  0.99213425229E+02  0.99213425229E+02  0.00000000000E+00 0. -1.
         -2   -1    0    0    0  501 -0.00000000000E+00 -0.00000000000E+00 -0.19856152498E+03  0.19856152498E+03  0.00000000000E+00 0.  1.
         25    2    1    2    0    0 -0.45159910402E+01  0.84640686106E+02 -0.30816741957E+02  0.15421427444E+03  0.12509169012E+03 0.  0.
          5    1    3    3  502    0 -0.21314339683E+02  0.10881274308E+03 -0.46839339718E+02  0.12044048438E+03  0.41800000000E+01 0.  1.
         -5    1    3    3    0  502  0.16798348643E+02 -0.24172056978E+02  0.16022597761E+02  0.33773790055E+02  0.41800000000E+01 0.  1.
        -11    1    1    2    0    0 -0.27572601368E+02 -0.89373862594E+02 -0.54200326503E+02  0.10810000488E+03  0.00000000000E+00 0.  1.
         11    1    1    2    0    0  0.32088592408E+02  0.47331764884E+01 -0.14331031293E+02  0.35460670895E+02  0.00000000000E+00 0. -1.
</event>
<event>
 7    1  0.2648915E-009  0.1392387E+03  0.7561462E-02  0.1214357E+00
          1   -1    0    0  501    0  0.00000000000E+00  0.00000000000E+00  0.62074818209E+02  0.62074818209E+02  0.00000000000E+00 0. -1.
         -1   -1    0    0    0  501 -0.00000000000E+00 -0.00000000000E+00 -0.44577983051E+03  0.44577983051E+03  0.00000000000E+00 0.  1.
         25    2    1    2    0    0  0.32682850221E+02  0.99429243668E+02 -0.98764800138E+02  0.19067129320E+03  0.12508682229E+03 0.  0.
          5    1    3    3  502    0  0.62199845519E+02  0.11338449202E+02 -0.14114196899E+02  0.64915823703E+02  0.41800000000E+01 0. -1.
         -5    1    3    3    0  502 -0.29516995298E+02  0.88090794465E+02 -0.84650603238E+02  0.12575546950E+03  0.41800000000E+01 0. -1.
        -11    1    1    2    0    0  0.19103122020E+02 -0.26079744838E+02 -0.16055141787E+03  0.16377374680E+03  0.00000000000E+00 0.  1.
         11    1    1    2    0    0 -0.51785972241E+02 -0.73349498830E+02 -0.12438879430E+03  0.15340960872E+03  0.00000000000E+00 0. -1.
</event>
<event>
 7    1  0.2648915E-009  0.4611521E+02  0.7561462E-02  0.1467497E+00
         -1   -1    0    0    0  501 -0.00000000000E+00  0.00000000000E+00  0.11568913948E+03  0.11568913948E+03  0.00000000000E+00 0.  1.
          1   -1    0    0  501    0  0.00000000000E+00 -0.00000000000E+00 -0.10626428215E+03  0.10626428215E+03  0.00000000000E+00 0. -1.
         25    2    1    2    0    0 -0.17816185713E+02  0.31890195347E+02 -0.24699157716E+02  0.13262788672E+03  0.12508280022E+03 0.  0.
          5    1    3    3  502    0 -0.27346815312E+02  0.32061890875E+02  0.45211613856E+02  0.61946554235E+02  0.41800000000E+01 0.  1.
         -5    1    3    3    0  502  0.95306295987E+01 -0.17169552842E+00 -0.69910771572E+02  0.70681332484E+02  0.41800000000E+01 0.  1.
        -11    1    1    2    0    0  0.31145514202E+01 -0.20870696863E+02  0.56535649988E+02  0.60345390359E+02  0.00000000000E+00 0.  1.
         11    1    1    2    0    0  0.14701634293E+02 -0.11019498483E+02 -0.22411634936E+02  0.28980144551E+02  0.00000000000E+00 0. -1.
</event>
<event>
 7    1  0.2648915E-009  0.1188297E+03  0.7561462E-02  0.1245040E+00
         -1   -1    0    0    0  501 -0.00000000000E+00  0.00000000000E+00  0.63162622388E+02  0.63162622388E+02  0.00000000000E+00 0.  1.
          1   -1    0    0  501    0  0.00000000000E+00 -0.00000000000E+00 -0.31995901150E+03  0.31995901150E+03  0.00000000000E+00 0. -1.
         25    2    1    2    0    0 -0.70704349278E+02  0.26667281103E+02 -0.20820145769E+03  0.25437246557E+03  0.12508898980E+03 0.  0.
          5    1    3    3  502    0  0.33811438561E+02 -0.87052545034E+01 -0.41163331993E+02  0.54137668350E+02  0.41800000000E+01 0.  1.
         -5    1    3    3    0  502 -0.10451578784E+03  0.35372535606E+02 -0.16703812570E+03  0.20023479722E+03  0.41800000000E+01 0.  1.
        -11    1    1    2    0    0  0.12001165575E+02 -0.30972882621E+02  0.19676469398E+02  0.38607135105E+02  0.00000000000E+00 0.  1.
         11    1    1    2    0    0  0.58703183703E+02  0.43056015180E+01 -0.68271400818E+02  0.90142033209E+02  0.00000000000E+00 0. -1.
</event>
<event>
 7    1  0.2648915E-009  0.1181552E+03  0.7561462E-02  0.1246172E+00
          1   -1    0    0  501    0  0.00000000000E+00  0.00000000000E+00  0.99381477651E+03  0.99381477651E+03  0.00000000000E+00 0. -1.
         -1   -1    0    0    0  501 -0.00000000000E+00 -0.00000000000E+00 -0.19164954329E+02  0.19164954329E+02  0.00000000000E+00 0.  1.
         25    2    1    2    0    0  0.41170066193E+02  0.66902671590E+02  0.64100455435E+03  0.65780416607E+03  0.12509412608E+03 0.  0.
          5    1    3    3  502    0 -0.24081314314E+02  0.73754682914E+02  0.26742294633E+03  0.27848189811E+03  0.41800000000E+01 0. -1.
         -5    1    3    3    0  502  0.65251380507E+02 -0.68520113244E+01  0.37358160802E+03  0.37932226796E+03  0.41800000000E+01 0. -1.
        -11    1    1    2    0    0 -0.52788917244E+02 -0.54595242653E+02  0.32896200500E+03  0.33761414520E+03  0.00000000000E+00 0. -1.
         11    1    1    2    0    0  0.11618851051E+02 -0.12307428937E+02  0.46832628333E+01  0.17561419577E+02  0.00000000000E+00 0.  1.
</event>
<event>
 7    1  0.2648915E-009  0.1273846E+03  0.7561462E-02  0.1231389E+00
          1   -1    0    0  501    0  0.00000000000E+00  0.00000000000E+00  0.12356718241E+03  0.12356718241E+03  0.00000000000E+00 0. -1.
         -1   -1    0    0    0  501 -0.00000000000E+00 -0.00000000000E+00 -0.22214315899E+03  0.22214315899E+03  0.00000000000E+00 0.  1.
         25    2    1    2    0    0 -0.74899349204E+02 -0.65956030124E+01 -0.15605994840E+03  0.21367235889E+03  0.12509098676E+03 0.  0.
          5    1    3    3  502    0  0.13375272857E+02  0.35391599458E+02 -0.83801371588E+02  0.92041325046E+02  0.41800000000E+01 0.  1.
         -5    1    3    3    0  502 -0.88274622061E+02 -0.41987202470E+02 -0.72258576815E+02  0.12163103385E+03  0.41800000000E+01 0.  1.
        -11    1    1    2    0    0  0.67911776765E+02 -0.35197080184E+02  0.37539909731E+02  0.85206154117E+02  0.00000000000E+00 0. -1.
         11    1    1    2    0    0  0.69875724391E+01  0.41792683196E+02  0.19944062098E+02  0.46831828389E+02  0.00000000000E+00 0.  1.
</event>
<event>
 7    1  0.2648915E-009  0.6835078E+02  0.7561462E-02  0.1365793E+00
         -1   -1    0    0    0  501 -0.00000000000E+00  0.00000000000E+00  0.52308434240E+03  0.52308434240E+03  0.00000000000E+00 0.  1.
          1   -1    0    0  501    0  0.00000000000E+00 -0.00000000000E+00 -0.31046433959E+02  0.31046433959E+02  0.00000000000E+00 0. -1.
         25    2    1    2    0    0 -0.27687288320E+01 -0.20222358861E+02  0.41611114560E+03  0.43498521889E+03  0.12508815092E+03 0.  0.
          5    1    3    3  502    0 -0.28924931470E+02 -0.41108844613E+02  0.65082295086E+02  0.82339336284E+02  0.41800000000E+01 0.  1.
         -5    1    3    3    0  502  0.26156202638E+02  0.20886485752E+02  0.35102885052E+03  0.35264588261E+03  0.41800000000E+01 0.  1.
        -11    1    1    2    0    0 -0.62390897895E+01  0.34821575245E+02 -0.56149362055E+01  0.35818931483E+02  0.00000000000E+00 0. -1.
         11    1    1    2    0    0  0.90078186215E+01 -0.14599216384E+02  0.81541699045E+02  0.83326625988E+02  0.00000000000E+00 0.  1.
</event>
<event>
 7    1  0.2648915E-009  0.1172426E+03  0.7561462E-02  0.1247716E+00
          2   -1    0    0  501    0  0.00000000000E+00  0.00000000000E+00  0.36715076768E+03  0.36715076768E+03  0.00000000000E+00 0. -1.
         -2   -1    0    0    0  501 -0.00000000000E+00 -0.00000000000E+00 -0.50831311652E+02  0.50831311652E+02  0.00000000000E+00 0.  1.
         25    2    1    2    0    0 -0.43298712142E+02 -0.39751073577E+02  0.84277441559E+02  0.16188061528E+03  0.12509084748E+03 0.  0.
          5    1    3    3  502    0 -0.41123651786E+02 -0.80558094928E+02  0.79560340392E+02  0.12053249171E+03  0.41800000000E+01 0. -1.
         -5    1    3    3    0  502 -0.21750603561E+01  0.40807021351E+02  0.47171011667E+01  0.41348123567E+02  0.41800000000E+01 0. -1.
        -11    1    1    2    0    0 -0.19830832749E+02 -0.10256917819E+02  0.90869091438E+02  0.93571673436E+02  0.00000000000E+00 0. -1.
         11    1    1    2    0    0  0.63129544891E+02  0.50007991396E+02  0.14117292303E+03  0.16252979062E+03  0.00000000000E+00 0.  1.
</event>
<event>
 7    1  0.2648915E-009  0.7092314E+02  0.7561462E-02  0.1356982E+00
          2   -1    0    0  501    0  0.00000000000E+00  0.00000000000E+00  0.33269985004E+03  0.33269985004E+03  0.00000000000E+00 0. -1.
         -2   -1    0    0    0  501 -0.00000000000E+00 -0.00000000000E+00 -0.41112156632E+02  0.41112156632E+02  0.00000000000E+00 0.  1.
         25    2    1    2    0    0 -0.21000437185E+02 -0.39617440265E+02  0.15307521365E+03  0.20270463692E+03  0.12508632562E+03 0.  0.
          5    1    3    3  502    0 -0.24055700812E+02 -0.29089933119E+01 -0.16181537806E+02  0.29435583049E+02  0.41800000000E+01 0. -1.
         -5    1    3    3    0  502  0.30552636275E+01 -0.36708446953E+02  0.16925675146E+03  0.17326905387E+03  0.41800000000E+01 0. -1.
        -11    1    1    2    0    0  0.37454738448E+02  0.48663699118E+02  0.46048191291E+02  0.76755774800E+02  0.00000000000E+00 0.  1.
         11    1    1    2    0    0 -0.16454301263E+02 -0.90462588530E+01  0.92464288461E+02  0.94351594952E+02  0.00000000000E+00 0. -1.
</event>
<event>
 7    1  0.2648915E-009  0.1212183E+03  0.7561462E-02  0.1241101E+00
          2   -1    0    0  501    0  0.00000000000E+00  0.00000000000E+00  0.65622367490E+02  0.65622367490E+02  0.00000000000E+00 0. -1.
         -2   -1    0    0    0  501 -0.00000000000E+00 -0.00000000000E+00 -0.30494255852E+03  0.30494255852E+03  0.00000000000E+00 0.  1.
         25    2    1    2    0    0  0.71523206964E+02 -0.38356091511E+02 -0.72135059332E+02  0.16565069980E+03  0.12509967494E+03 0.  0.
          5    1    3    3  502    0 -0.61882549686E+01 -0.51809732854E+02  0.82134129397E+01  0.52985615690E+02  0.41800000000E+01 0.  1.
         -5    1    3    3    0  502  0.77711461932E+02  0.13453641343E+02 -0.80348472272E+02  0.11266508411E+03  0.41800000000E+01 0.  1.
        -11    1    1    2    0    0 -0.21148149620E+02 -0.23318745934E+02 -0.19227422009E+02  0.36887693089E+02  0.00000000000E+00 0.  1.
         11    1    1    2    0    0 -0.50375057343E+02  0.61674837445E+02 -0.14795770969E+03  0.16802653312E+03  0.00000000000E+00 0. -1.
</event>
<event>
 7    1  0.2775295E-009  0.1214049E+03  0.7561462E-02  0.1240797E+00
         -1   -1    0    0    0  501 -0.00000000000E+00  0.00000000000E+00  0.14376452551E+02  0.14376452551E+02  0.00000000000E+00 0.  1.
          1   -1    0    0  501    0  0.00000000000E+00 -0.00000000000E+00 -0.13739575126E+04  0.13739575126E+04  0.00000000000E+00 0. -1.
         25    2    1    2    0    0  0.46102145787E+02  0.57711575671E+02 -0.98938162895E+03  0.99999013016E+03  0.12509284111E+03 0.  0.
          5    1    3    3  502    0  0.69190808464E+02  0.84715345632E+02 -0.73554888045E+03  0.74364889947E+03  0.41800000000E+01 0.  1.
         -5    1    3    3    0  502 -0.23088662677E+02 -0.27003769962E+02 -0.25383274850E+03  0.25634123068E+03  0.41800000000E+01 0.  1.
        -11    1    1    2    0    0 -0.17766992465E+02  0.12592124349E+02 -0.18515579969E+02  0.28584162021E+02  0.00000000000E+00 0.  1.
         11    1    1    2    0    0 -0.28335153322E+02 -0.70303700019E+02 -0.35168385111E+03  0.35975967296E+03  0.00000000000E+00 0. -1.
</event>
<event>
 7    1  0.2648915E-009  0.2647598E+03  0.7561462E-02  0.1104317E+00
         -2   -1    0    0    0  501 -0.00000000000E+00  0.00000000000E+00  0.14026129352E+03  0.14026129352E+03  0.00000000000E+00 0.  1.
          2   -1    0    0  501    0  0.00000000000E+00 -0.00000000000E+00 -0.56021638160E+03  0.56021638160E+03  0.00000000000E+00 0. -1.
         25    2    1    2    0    0 -0.23795879234E+03  0.40746154399E+02 -0.32880361834E+03  0.42666596733E+03  0.12508953709E+03 0.  0.
          5    1    3    3  502    0 -0.17518319161E+03  0.85010104774E+02 -0.24322169685E+03  0.31159289908E+03  0.41800000000E+01 0.  1.
         -5    1    3    3    0  502 -0.62775600726E+02 -0.44263950375E+02 -0.85581921491E+02  0.11507306825E+03  0.41800000000E+01 0.  1.
        -11    1    1    2    0    0  0.17229994271E+03 -0.69963844843E+02 -0.72215768650E+02  0.19949267426E+03  0.00000000000E+00 0.  1.
         11    1    1    2    0    0  0.65658849629E+02  0.29217690444E+02 -0.18935701092E+02  0.74319033533E+02  0.00000000000E+00 0. -1.
</event>
<event>
 7    1  0.2648915E-009  0.1043370E+03  0.7561462E-02  0.1271432E+00
         -2   -1    0    0    0  501 -0.00000000000E+00  0.00000000000E+00  0.16827856411E+03  0.16827856411E+03  0.00000000000E+00 0.  1.
          2   -1    0    0  501    0  0.00000000000E+00 -0.00000000000E+00 -0.84460285394E+02  0.84460285394E+02  0.00000000000E+00 0. -1.
         25    2    1    2    0    0  0.18039157238E+02 -0.44210105679E+02  0.44756503494E+02  0.14117385392E+03  0.12508784028E+03 0.  0.
          5    1    3    3  502    0  0.71892627033E+02 -0.29963957085E+02  0.24608847108E+02  0.81789096473E+02  0.41800000000E+01 0. -1.
         -5    1    3    3    0  502 -0.53853469795E+02 -0.14246148594E+02  0.20147656386E+02  0.59384757443E+02  0.41800000000E+01 0. -1.
        -11    1    1    2    0    0 -0.85401985368E+01  0.57691679614E+02  0.60819617868E+02  0.84263223326E+02  0.00000000000E+00 0.  1.
         11    1    1    2    0    0 -0.94989587011E+01 -0.13481573935E+02 -0.21757842645E+02  0.27301772263E+02  0.00000000000E+00 0. -1.
</event>
<event>
 7    1  0.2648915E-009  0.9041074E+02  0.7561462E-02  0.1301860E+00
          1   -1    0    0  501    0  0.00000000000E+00  0.00000000000E+00  0.63430345741E+03  0.63430345741E+03  0.00000000000E+00 0. -1.
         -1   -1    0    0    0  501 -0.00000000000E+00 -0.00000000000E+00 -0.26383742490E+02  0.26383742490E+02  0.00000000000E+00 0.  1.
         25    2    1    2    0    0  0.74248428264E+01  0.68138494397E+02  0.39320904399E+03  0.41828162641E+03  0.12509270165E+03 0.  0.
          5    1    3    3  502    0 -0.12214047725E+01  0.80486212034E+02  0.11960159809E+03  0.14422737890E+03  0.41800000000E+01 0. -1.
         -5    1    3    3    0  502  0.86462475989E+01 -0.12347717637E+02  0.27360744589E+03  0.27405424751E+03  0.41800000000E+01 0. -1.
        -11    1    1    2    0    0  0.21197501307E+02 -0.24629650280E+02  0.14592100856E+02  0.35621386020E+02  0.00000000000E+00 0.  1.
         11    1    1    2    0    0 -0.28622344134E+02 -0.43508844117E+02  0.20011857007E+03  0.20678418747E+03  0.00000000000E+00 0. -1.
</event>
<event>
 7    1  0.2648915E-009  0.1337867E+03  0.7561462E-02  0.1221943E+00
         -1   -1    0    0    0  501 -0.00000000000E+00  0.00000000000E+00  0.12424881143E+02  0.12424881143E+02  0.00000000000E+00 0.  1.
          1   -1    0    0  501    0  0.00000000000E+00 -0.00000000000E+00 -0.15055669496E+04  0.15055669496E+04  0.00000000000E+00 0. -1.
         25    2    1    2    0    0  0.74840941681E+02 -0.29536335779E+02 -0.95668136388E+03  0.96817220310E+03  0.12507846007E+03 0.  0.
          5    1    3    3  502    0  0.18406500878E+02  0.48621802804E+02 -0.32150561199E+03  0.32570878085E+03  0.41800000000E+01 0.  1.
         -5    1    3    3    0  502  0.56434440803E+02 -0.78158138582E+02 -0.63517575190E+03  0.64246342225E+03  0.41800000000E+01 0.  1.
        -11    1    1    2    0    0  0.15207573262E+02  0.24370648005E+02 -0.17080401783E+03  0.17320280389E+03  0.00000000000E+00 0. -1.
         11    1    1    2    0    0 -0.90048514943E+02  0.51656877737E+01 -0.36565668679E+03  0.37661682380E+03  0.00000000000E+00 0.  1.
</event>
<event>
 7    1  0.2648915E-009  0.1181121E+03  0.7561462E-02  0.1246244E+00
         -2   -1    0    0    0  501 -0.00000000000E+00  0.00000000000E+00  0.19845202946E+03  0.19845202946E+03  0.00000000000E+00 0. -1.
          2   -1    0    0  501    0  0.00000000000E+00 -0.00000000000E+00 -0.83165385754E+02  0.83165385754E+02  0.00000000000E+00 0.  1.
         25    2    1    2    0    0  0.11271952273E+02  0.58905655028E+02  0.99712044656E+02  0.17083004461E+03  0.12507389492E+03 0.  0.
          5    1    3    3  502    0  0.63386878839E+02  0.42899268808E+02  0.30193841384E+02  0.82385582056E+02  0.41800000000E+01 0.  1.
         -5    1    3    3    0  502 -0.52114926566E+02  0.16006386220E+02  0.69518203273E+02  0.88444462557E+02  0.41800000000E+01 0.  1.
        -11    1    1    2    0    0  0.20961146604E+02 -0.68198836609E+02 -0.48510951485E+01  0.71512125587E+02  0.00000000000E+00 0.  1.
         11    1    1    2    0    0 -0.32233098877E+02  0.92931815812E+01  0.20425694194E+02  0.39275245008E+02  0.00000000000E+00 0. -1.
</event>
<event>
 7    1  0.2648915E-009  0.1705696E+03  0.7561462E-02  0.1177255E+00
          3   -1    0    0  501    0  0.00000000000E+00  0.00000000000E+00  0.64167247010E+03  0.64167247010E+03  0.00000000000E+00 0. -1.
         -3   -1    0    0    0  501 -0.00000000000E+00 -0.00000000000E+00 -0.47786471973E+02  0.47786471973E+02  0.00000000000E+00 0.  1.
         25    2    1    2    0    0 -0.99064274486E+01 -0.13276766146E+03  0.24701817828E+03  0.30723312991E+03  0.12509526960E+03 0.  0.
          5    1    3    3  502    0  0.54723858299E+02 -0.36792597738E+02  0.10411402586E+03  0.12331098368E+03  0.41800000000E+01 0.  1.
         -5    1    3    3    0  502 -0.64630285748E+02 -0.95975063727E+02  0.14290415242E+03  0.18392214623E+03  0.41800000000E+01 0.  1.
        -11    1    1    2    0    0 -0.36660428859E+02  0.85011705635E+02  0.22491597600E+03  0.24322453289E+03  0.00000000000E+00 0. -1.
         11    1    1    2    0    0  0.46566856308E+02  0.47755955830E+02  0.12195184384E+03  0.13900127928E+03  0.00000000000E+00 0.  1.
</event>
<event>
 7    1  0.2648915E-009  0.1032851E+03  0.7561462E-02  0.1273536E+00
          3   -1    0    0  501    0  0.00000000000E+00  0.00000000000E+00  0.20066682252E+02  0.20066682252E+02  0.00000000000E+00 0. -1.
         -3   -1    0    0    0  501 -0.00000000000E+00 -0.00000000000E+00 -0.68315458658E+03  0.68315458658E+03  0.00000000000E+00 0.  1.
         25    2    1    2    0    0 -0.40908343798E+02  0.87452736974E+01 -0.40766479936E+03  0.42847309886E+03  0.12509450588E+03 0.  0.
          5    1    3    3  502    0 -0.53969373061E+02 -0.44801635826E+02 -0.16057308622E+03  0.17527426571E+03  0.41800000000E+01 0. -1.
         -5    1    3    3    0  502  0.13061029263E+02  0.53546909523E+02 -0.24709171314E+03  0.25319883315E+03  0.41800000000E+01 0. -1.
        -11    1    1    2    0    0  0.11591579594E+02  0.30162017608E+02 -0.29902381355E+02  0.44025724689E+02  0.00000000000E+00 0. -1.
         11    1    1    2    0    0  0.29316764205E+02 -0.38907291306E+02 -0.22552072361E+03  0.23072244528E+03  0.00000000000E+00 0.  1.
</event>
<event>
 7    1  0.2648915E-009  0.8744246E+02  0.7561462E-02  0.1309166E+00
         -1   -1    0    0    0  501 -0.00000000000E+00  0.00000000000E+00  0.11181874477E+03  0.11181874477E+03  0.00000000000E+00 0.  1.
          1   -1    0    0  501    0  0.00000000000E+00 -0.00000000000E+00 -0.14976136395E+03  0.14976136395E+03  0.00000000000E+00 0. -1.
         25    2    1    2    0    0 -0.27716602558E+02 -0.54344292261E+02 -0.57436724546E+02  0.15055897019E+03  0.12509002366E+03 0.  0.
          5    1    3    3  502    0 -0.19350000515E+02 -0.10109543838E+02  0.38526010736E+02  0.44478661173E+02  0.41800000000E+01 0.  1.
         -5    1    3    3    0  502 -0.83666020429E+01 -0.44234748423E+02 -0.95962735282E+02  0.10608030901E+03  0.41800000000E+01 0.  1.
        -11    1    1    2    0    0 -0.17129480102E+02  0.59857495081E+02  0.21295632056E+02  0.65801540640E+02  0.00000000000E+00 0.  1.
         11    1    1    2    0    0  0.44846082661E+02 -0.55132028206E+01 -0.18015266903E+01  0.45219597895E+02  0.00000000000E+00 0. -1.
</event>
<event>
 7    1  0.2648915E-009  0.1130568E+03  0.7561462E-02  0.1255012E+00
          2   -1    0    0  501    0  0.00000000000E+00  0.00000000000E+00  0.16718074769E+03  0.16718074769E+03  0.00000000000E+00 0. -1.
         -2   -1    0    0    0  501 -0.00000000000E+00 -0.00000000000E+00 -0.11894590600E+03  0.11894590600E+03  0.00000000000E+00 0.  1.
         25    2    1    2    0    0 -0.57072025180E+02 -0.69149754723E+02  0.35415634582E+02  0.15793352768E+03  0.12509927001E+03 0.  0.
          5    1    3    3  502    0 -0.37043383194E+02 -0.75016437624E+02  0.75356398584E+02  0.11267536270E+03  0.41800000000E+01 0. -1.
         -5    1    3    3    0  502 -0.20028641986E+02  0.58666829018E+01 -0.39940764002E+02  0.45258164977E+02  0.41800000000E+01 0. -1.
        -11    1    1    2    0    0  0.76559988771E+02  0.41068381219E+02  0.27305005936E+02  0.91069243797E+02  0.00000000000E+00 0. -1.
         11    1    1    2    0    0 -0.19487963591E+02  0.28081373504E+02 -0.14485798826E+02  0.37123882211E+02  0.00000000000E+00 0.  1.
</event>
<event>
 7    1  0.2648915E-009  0.1116518E+03  0.7561462E-02  0.1257541E+00
         -1   -1    0    0    0  501 -0.00000000000E+00  0.00000000000E+00  0.10833217512E+02  0.10833217512E+02  0.00000000000E+00 0.  1.
          1   -1    0    0  501    0  0.00000000000E+00 -0.00000000000E+00 -0.32615986809E+04  0.32615986809E+04  0.00000000000E+00 0. -1.
         25    2    1    2    0    0  0.90415935681E+02  0.11617796943E+02 -0.28012900887E+04  0.28055624023E+04  0.12507684531E+03 0.  0.
          5    1    3    3  502    0  0.75617400278E+02  0.39404562114E+02 -0.90764927905E+03  0.91165530597E+03  0.41800000000E+01 0. -1.
         -5    1    3    3    0  502  0.14798535403E+02 -0.27786765171E+02 -0.18936408097E+04  0.18939070963E+04  0.41800000000E+01 0. -1.
        -11    1    1    2    0    0 -0.25892616079E+01 -0.17935170691E+02 -0.14891683589E+02  0.23454996558E+02  0.00000000000E+00 0.  1.
         11    1    1    2    0    0 -0.87826674073E+02  0.63173737484E+01 -0.43458369105E+03  0.44341449956E+03  0.00000000000E+00 0. -1.
</event>
<event>
 7    1  0.2648915E-009  0.1975114E+03  0.7561462E-02  0.1151856E+00
          2   -1    0    0  501    0  0.00000000000E+00  0.00000000000E+00  0.16435339320E+04  0.16435339320E+04  0.00000000000E+00 0. -1.
         -2   -1    0    0    0  501 -0.00000000000E+00 -0.00000000000E+00 -0.35323443157E+02  0.35323443157E+02  0.00000000000E+00 0.  1.
         25    2    1    2    0    0 -0.65947222522E+02  0.16499214039E+03  0.12506906539E+04  0.12694269948E+04  0.12508533440E+03 0.  0.
          5    1    3    3  502    0  0.21094775868E+01  0.11477040333E+03  0.95390337658E+03  0.96079436907E+03  0.41800000000E+01 0. -1.
         -5    1    3    3    0  502 -0.68056700109E+02  0.50221737064E+02  0.29678727732E+03  0.30863262576E+03  0.41800000000E+01 0. -1.
        -11    1    1    2    0    0 -0.14758002006E+02 -0.66600616669E+02  0.16618281633E+03  0.17963899690E+03  0.00000000000E+00 0. -1.
         11    1    1    2    0    0  0.80705224528E+02 -0.98391523721E+02  0.19133701858E+03  0.22979138340E+03  0.00000000000E+00 0.  1.
</event>
<event>
 7    1  0.2648915E-009  0.8009333E+02  0.7561462E-02  0.1328787E+00
         -1   -1    0    0    0  501 -0.00000000000E+00  0.00000000000E+00  0.31082250320E+02  0.31082250320E+02  0.00000000000E+00 0.  1.
          1   -1    0    0  501    0  0.00000000000E+00 -0.00000000000E+00 -0.49499257375E+03  0.49499257375E+03  0.00000000000E+00 0. -1.
         25    2    1    2    0    0  0.58390217502E+01 -0.57974501950E+02 -0.31510147953E+03  0.34399318160E+03  0.12508888653E+03 0.  0.
          5    1    3    3  502    0  0.23434933422E+02  0.97105958074E+01 -0.51468992520E+01  0.26219358256E+02  0.41800000000E+01 0.  1.
         -5    1    3    3    0  502 -0.17595911672E+02 -0.67685097757E+02 -0.30995458028E+03  0.31777382335E+03  0.41800000000E+01 0.  1.
        -11    1    1    2    0    0 -0.11119680242E+02  0.69333475535E+01  0.91595535253E+01  0.15987996052E+02  0.00000000000E+00 0.  1.
         11    1    1    2    0    0  0.52806584917E+01  0.51041154397E+02 -0.15796839743E+03  0.16609364642E+03  0.00000000000E+00 0. -1.
</event>
<event>
 7    1  0.2648915E-009  0.9094221E+02  0.7561462E-02  0.1300586E+00
          2   -1    0    0  501    0  0.00000000000E+00  0.00000000000E+00  0.28227525902E+03  0.28227525902E+03  0.00000000000E+00 0. -1.
         -2   -1    0    0    0  501 -0.00000000000E+00 -0.00000000000E+00 -0.48734450087E+02  0.48734450087E+02  0.00000000000E+00 0.  1.
         25    2    1    2    0    0 -0.32335716861E+02  0.25258055986E+02  0.15426967362E+03  0.20280617540E+03  0.12509054563E+03 0.  0.
          5    1    3    3  502    0 -0.80165234054E+02  0.23320079964E+02  0.98748058294E+02  0.12937906437E+03  0.41800000000E+01 0.  1.
         -5    1    3    3    0  502  0.47829517193E+02  0.19379760216E+01  0.55521615323E+02  0.73427111029E+02  0.41800000000E+01 0.  1.
        -11    1    1    2    0    0  0.13335720512E+02 -0.28028920841E+02 -0.13221977100E+02  0.33738442814E+02  0.00000000000E+00 0.  1.
         11    1    1    2    0    0  0.18999996348E+02  0.27708648552E+01  0.92493112421E+02  0.94465090899E+02  0.00000000000E+00 0. -1.
</event>
<event>
 7    1  0.2648915E-009  0.1755678E+03  0.7561462E-02  0.1172163E+00
         -1   -1    0    0    0  501 -0.00000000000E+00  0.00000000000E+00  0.10426454790E+03  0.10426454790E+03  0.00000000000E+00 0.  1.
          1   -1    0    0  501    0  0.00000000000E+00 -0.00000000000E+00 -0.34573675560E+03  0.34573675560E+03  0.00000000000E+00 0. -1.
         25    2    1    2    0    0  0.11933111904E+03 -0.98051308368E+02 -0.10290160099E+03  0.22381065877E+03  0.12509395050E+03 0.  0.
          5    1    3    3  502    0 -0.16431947532E+02 -0.20856215922E+02  0.12437459895E+02  0.29616776511E+02  0.41800000000E+01 0. -1.
         -5    1    3    3    0  502  0.13576306657E+03 -0.77195092447E+02 -0.11533906088E+03  0.19419388226E+03  0.41800000000E+01 0. -1.
        -11    1    1    2    0    0 -0.55032752437E+02  0.86762444147E+02 -0.12069778445E+03  0.15850640595E+03  0.00000000000E+00 0. -1.
         11    1    1    2    0    0 -0.64298366606E+02  0.11288864221E+02 -0.17872822257E+02  0.67684238778E+02  0.00000000000E+00 0.  1.
</event>
<event>
 7    1  0.2648915E-009  0.1267231E+03  0.7561462E-02  0.1232401E+00
         -1   -1    0    0    0  501 -0.00000000000E+00  0.00000000000E+00  0.93975566918E+02  0.93975566918E+02  0.00000000000E+00 0.  1.
          1   -1    0    0  501    0  0.00000000000E+00 -0.00000000000E+00 -0.23704966905E+03  0.23704966905E+03  0.00000000000E+00 0. -1.
         25    2    1    2    0    0 -0.93581857614E+02  0.32175383226E+02 -0.10350112748E+03  0.19013828818E+03  0.12508903182E+03 0.  0.
          5    1    3    3  502    0 -0.58367155314E+01  0.37600745215E+02  0.16197245513E+02  0.41565688388E+02  0.41800000000E+01 0. -1.
         -5    1    3    3    0  502 -0.87745142083E+02 -0.54253619890E+01 -0.11969837299E+03  0.14857259979E+03  0.41800000000E+01 0. -1.
        -11    1    1    2    0    0 -0.13072097060E+02 -0.13656219589E+02 -0.25474950710E+02  0.31722943884E+02  0.00000000000E+00 0. -1.
         11    1    1    2    0    0  0.10665395467E+03 -0.18519163638E+02 -0.14098023944E+02  0.10916400390E+03  0.00000000000E+00 0.  1.
</event>
<event>
 7    1  0.2648915E-009  0.9377926E+02  0.7561462E-02  0.1293949E+00
         -1   -1    0    0    0  501 -0.00000000000E+00  0.00000000000E+00  0.59384859956E+03  0.59384859956E+03  0.00000000000E+00 0.  1.
          1   -1    0    0  501    0  0.00000000000E+00 -0.00000000000E+00 -0.20641019508E+02  0.20641019508E+02  0.00000000000E+00 0. -1.
         25    2    1    2    0    0 -0.77079315766E+01  0.59106929492E+01  0.31434641693E+03  0.33846085241E+03  0.12509088809E+03 0.  0.
          5    1    3    3  502    0 -0.50996114291E+02  0.23889152036E+01  0.53793936359E+02  0.74280351222E+02  0.41800000000E+01 0. -1.
         -5    1    3    3    0  502  0.43288182714E+02  0.35217777456E+01  0.26055248057E+03  0.26418050119E+03  0.41800000000E+01 0. -1.
        -11    1    1    2    0    0 -0.31905105936E+02 -0.32066270200E+02  0.91572951195E+02  0.10213611927E+03  0.00000000000E+00 0.  1.
         11    1    1    2    0    0  0.39613037513E+02  0.26155577251E+02  0.16728821193E+03  0.17389264738E+03  0.00000000000E+00 0. -1.
</event>
<event>
 7    1  0.2648915E-009  0.1562211E+03  0.7561462E-02  0.1193030E+00
         -2   -1    0    0    0  501 -0.00000000000E+00  0.00000000000E+00  0.15248256879E+03  0.15248256879E+03  0.00000000000E+00 0. -1.
          2   -1    0    0  501    0  0.00000000000E+00 -0.00000000000E+00 -0.26978281359E+03  0.26978281359E+03  0.00000000000E+00 0.  1.
         25    2    1    2    0    0  0.11414563358E+03  0.70515442935E+02  0.48783314828E+02  0.18981259843E+03  0.12508939747E+03 0.  0.
          5    1    3    3  502    0  0.28060026411E+02  0.60378429476E+02 -0.29497311630E+02  0.72941645317E+02  0.41800000000E+01 0.  1.
         -5    1    3    3    0  502  0.86085607172E+02  0.10137013459E+02  0.78280626457E+02  0.11687095312E+03  0.41800000000E+01 0.  1.
        -11    1    1    2    0    0 -0.96860391201E+02 -0.11601848383E+02 -0.12507475844E+03  0.15861977641E+03  0.00000000000E+00 0.  1.
         11    1    1    2    0    0 -0.17285242383E+02 -0.58913594551E+02 -0.41008801187E+02  0.73833007537E+02  0.00000000000E+00 0. -1.
</event>
<event>
 7    1  0.2648915E-009  0.1832424E+03  0.7561462E-02  0.1164701E+00
         -1   -1    0    0    0  501 -0.00000000000E+00  0.00000000000E+00  0.17261142586E+03  0.17261142586E+03  0.00000000000E+00 0.  1.
          1   -1    0    0  501    0  0.00000000000E+00 -0.00000000000E+00 -0.22315397818E+03  0.22315397818E+03  0.00000000000E+00 0. -1.
         25    2    1    2    0    0 -0.79361033203E+02  0.15319374322E+03 -0.37894139721E+02  0.21644907638E+03  0.12509092808E+03 0.  0.
          5    1    3    3  502    0  0.43859852990E+01 -0.71224292872E+01  0.23582520983E+02  0.25368751682E+02  0.41800000000E+01 0. -1.
         -5    1    3    3    0  502 -0.83747018502E+02  0.16031617251E+03 -0.61476660703E+02  0.19108032470E+03  0.41800000000E+01 0. -1.
        -11    1    1    2    0    0  0.64591643781E+02 -0.86794791153E+02 -0.22724566811E+02  0.11055235029E+03  0.00000000000E+00 0. -1.
         11    1    1    2    0    0  0.14769389423E+02 -0.66398952071E+02  0.10076154203E+02  0.68763977369E+02  0.00000000000E+00 0.  1.
</event>
<event>
 7    1  0.2648915E-009  0.1132526E+03  0.7561462E-02  0.1254663E+00
          2   -1    0    0  501    0  0.00000000000E+00  0.00000000000E+00  0.17370881409E+03  0.17370881409E+03  0.00000000000E+00 0. -1.
         -2   -1    0    0    0  501 -0.00000000000E+00 -0.00000000000E+00 -0.94776354235E+02  0.94776354235E+02  0.00000000000E+00 0.  1.
         25    2    1    2    0    0 -0.54400029811E+02 -0.31222973259E+02  0.27870245620E+02  0.14268438602E+03  0.12509135110E+03 0.  0.
          5    1    3    3  502    0 -0.18582436279E+02  0.44910523657E+02 -0.10842964317E+02  0.49973036213E+02  0.41800000000E+01 0. -1.
         -5    1    3    3    0  502 -0.35817593532E+02 -0.76133496916E+02  0.38713209937E+02  0.92711349805E+02  0.41800000000E+01 0. -1.
        -11    1    1    2    0    0  0.48566653580E+02  0.52440862576E+02  0.14085249676E+01  0.71489494685E+02  0.00000000000E+00 0.  1.
         11    1    1    2    0    0  0.58333762308E+01 -0.21217889317E+02  0.49653689271E+02  0.54311287625E+02  0.00000000000E+00 0. -1.
</event>
<event>
 7    1  0.2648915E-009  0.1173689E+03  0.7561462E-02  0.1247502E+00
          1   -1    0    0  501    0  0.00000000000E+00  0.00000000000E+00  0.30703726658E+03  0.30703726658E+03  0.00000000000E+00 0. -1.
         -1   -1    0    0    0  501 -0.00000000000E+00 -0.00000000000E+00 -0.70025285616E+02  0.70025285616E+02  0.00000000000E+00 0.  1.
         25    2    1    2    0    0  0.66257458060E+02  0.65749421177E+02  0.89328015552E+02  0.17982989923E+03  0.12508501574E+03 0.  0.
          5    1    3    3  502    0  0.48910841433E+02  0.82027766136E+02  0.90785837703E+01  0.96024569305E+02  0.41800000000E+01 0. -1.
         -5    1    3    3    0  502  0.17346616628E+02 -0.16278344959E+02  0.80249431782E+02  0.83805329928E+02  0.41800000000E+01 0. -1.
        -11    1    1    2    0    0 -0.80265094576E+02 -0.57478919991E+02  0.78406459269E+02  0.12607095028E+03  0.00000000000E+00 0.  1.
         11    1    1    2    0    0  0.14007636516E+02 -0.82705011865E+01  0.69277506140E+02  0.71161702675E+02  0.00000000000E+00 0. -1.
</event>
<event>
 7    1  0.2648915E-009  0.1231337E+03  0.7561462E-02  0.1238015E+00
         -2   -1    0    0    0  501 -0.00000000000E+00  0.00000000000E+00  0.11052474114E+03  0.11052474114E+03  0.00000000000E+00 0.  1.
          2   -1    0    0  501    0  0.00000000000E+00 -0.00000000000E+00 -0.30350444298E+03  0.30350444298E+03  0.00000000000E+00 0. -1.
         25    2    1    2    0    0  0.68715066396E+02 -0.14472240790E+02 -0.24762614808E+03  0.28617668883E+03  0.12508869619E+03 0.  0.
          5    1    3    3  502    0 -0.32686769519E+02  0.65165393702E+01 -0.29595382956E+02  0.44768842729E+02  0.41800000000E+01 0.  1.
         -5    1    3    3    0  502  0.10140183592E+03 -0.20988780160E+02 -0.21803076513E+03  0.24140784610E+03  0.41800000000E+01 0.  1.
        -11    1    1    2    0    0 -0.45019722558E+02 -0.33110466045E+02  0.67316928790E+01  0.56288489675E+02  0.00000000000E+00 0. -1.
         11    1    1    2    0    0 -0.23695343839E+02  0.47582706835E+02  0.47914753367E+02  0.71564005615E+02  0.00000000000E+00 0.  1.
</event>
<event>
 7    1  0.2648915E-009  0.6157094E+02  0.7561462E-02  0.1391355E+00
          1   -1    0    0  501    0  0.00000000000E+00  0.00000000000E+00  0.77982439153E+03  0.77982439153E+03  0.00000000000E+00 0. -1.
         -1   -1    0    0    0  501 -0.00000000000E+00 -0.00000000000E+00 -0.49870079361E+02  0.49870079361E+02  0.00000000000E+00 0.  1.
         25    2    1    2    0    0 -0.27736892302E+02 -0.19157043336E+02  0.71947201481E+03  0.73104390468E+03  0.12509549542E+03 0.  0.
          5    1    3    3  502    0  0.10133245694E+02  0.99297636561E+01  0.62436683762E+03  0.62454199474E+03  0.41800000000E+01 0.  1.
         -5    1    3    3    0  502 -0.37870137997E+02 -0.29086806992E+02  0.95105177185E+02  0.10650190994E+03  0.41800000000E+01 0.  1.
        -11    1    1    2    0    0 -0.19181637794E+01  0.29082423965E+02  0.44020652438E+02  0.52794740051E+02  0.00000000000E+00 0. -1.
         11    1    1    2    0    0  0.29655056082E+02 -0.99253806297E+01 -0.33538355075E+02  0.45855826162E+02  0.00000000000E+00 0.  1.
</event>
<event>
 7    1  0.2648915E-009  0.9080826E+02  0.7561462E-02  0.1300906E+00
          1   -1    0    0  501    0  0.00000000000E+00  0.00000000000E+00  0.37161796752E+03  0.37161796752E+03  0.00000000000E+00 0. -1.
         -1   -1    0    0    0  501 -0.00000000000E+00 -0.00000000000E+00 -0.37157172880E+02  0.37157172880E+02  0.00000000000E+00 0.  1.
         25    2    1    2    0    0  0.13378670425E+02 -0.90827391138E+01  0.11850499563E+03  0.17306795357E+03  0.12509035770E+03 0.  0.
          5    1    3    3  502    0  0.63552614592E+02 -0.17022311284E+02  0.33489590066E+02  0.73944025761E+02  0.41800000000E+01 0. -1.
         -5    1    3    3    0  502 -0.50173944168E+02  0.79395721702E+01  0.85015405568E+02  0.99123927805E+02  0.41800000000E+01 0. -1.
        -11    1    1    2    0    0 -0.18579369224E+02  0.34280848943E+02  0.20335240360E+03  0.20705692361E+03  0.00000000000E+00 0. -1.
         11    1    1    2    0    0  0.52006987997E+01 -0.25198109829E+02  0.12603395402E+02  0.28650263221E+02  0.00000000000E+00 0.  1.
</event>
<event>
 7    1  0.2648915E-009  0.1164969E+03  0.7561462E-02  0.1248991E+00
          2   -1    0    0  501    0  0.00000000000E+00  0.00000000000E+00  0.30644976979E+03  0.30644976979E+03  0.00000000000E+00 0.  1.
         -2   -1    0    0    0  501 -0.00000000000E+00 -0.00000000000E+00 -0.45806510979E+02  0.45806510979E+02  0.00000000000E+00 0. -1.
         25    2    1    2    0    0 -0.28903065590E+02  0.35518719813E+02  0.14220436466E+03  0.19485042793E+03  0.12509053232E+03 0.  0.
          5    1    3    3  502    0 -0.63902881315E+02  0.61110911506E+02  0.10681945761E+03  0.13872991988E+03  0.41800000000E+01 0.  1.
         -5    1    3    3    0  502  0.34999815726E+02 -0.25592191693E+02  0.35384907046E+02  0.56120508044E+02  0.41800000000E+01 0.  1.
        -11    1    1    2    0    0  0.53291103958E+02  0.51032168669E+01  0.44630467417E+02  0.69698373046E+02  0.00000000000E+00 0.  1.
         11    1    1    2    0    0 -0.24388038368E+02 -0.40621936680E+02  0.73808426731E+02  0.87707479792E+02  0.00000000000E+00 0. -1.
</event>
<event>
 7    1  0.2648915E-009  0.9257379E+02  0.7561462E-02  0.1296736E+00
          1   -1    0    0  501    0  0.00000000000E+00  0.00000000000E+00  0.16169863843E+04  0.16169863843E+04  0.00000000000E+00 0. -1.
         -1   -1    0    0    0  501 -0.00000000000E+00 -0.00000000000E+00 -0.84807477485E+01  0.84807477485E+01  0.00000000000E+00 0.  1.
         25    2    1    2    0    0 -0.27825341698E+02  0.92990904374E+01  0.11230966075E+04  0.11304219778E+04  0.12508850999E+03 0.  0.
          5    1    3    3  502    0  0.18498144824E+02 -0.24127390656E+02  0.88503592261E+03  0.88556782295E+03  0.41800000000E+01 0.  1.
         -5    1    3    3    0  502 -0.46323486523E+02  0.33426481093E+02  0.23806068491E+03  0.24485415484E+03  0.41800000000E+01 0.  1.
        -11    1    1    2    0    0  0.10897771736E+02 -0.51013109472E+02  0.26526138312E+03  0.27034182092E+03  0.00000000000E+00 0.  1.
         11    1    1    2    0    0  0.16927569962E+02  0.41714019034E+02  0.22014764588E+03  0.22470333330E+03  0.00000000000E+00 0. -1.
</event>
<event>
 7    1  0.2648915E-009  0.9068437E+02  0.7561462E-02  0.1301203E+00
         -1   -1    0    0    0  501 -0.00000000000E+00  0.00000000000E+00  0.38084130446E+02  0.38084130446E+02  0.00000000000E+00 0.  1.
          1   -1    0    0  501    0  0.00000000000E+00 -0.00000000000E+00 -0.35465387301E+03  0.35465387301E+03  0.00000000000E+00 0. -1.
         25    2    1    2    0    0 -0.33883431939E+02  0.24056205687E+02 -0.16547426172E+03  0.21155541834E+03  0.12508867152E+03 0.  0.
          5    1    3    3  502    0  0.28830277084E+02  0.11682572679E+02  0.27890560337E+01  0.31510611145E+02  0.41800000000E+01 0.  1.
         -5    1    3    3    0  502 -0.62713709023E+02  0.12373633008E+02 -0.16826331776E+03  0.18004480719E+03  0.41800000000E+01 0.  1.
        -11    1    1    2    0    0 -0.15593001166E+02  0.15942331567E+02 -0.90904194637E+02  0.93599531108E+02  0.00000000000E+00 0. -1.
         11    1    1    2    0    0  0.49476433105E+02 -0.39998537254E+02 -0.60191286200E+02  0.87583054009E+02  0.00000000000E+00 0.  1.
</event>
<event>
 7    1  0.2648915E-009  0.1002982E+03  0.7561462E-02  0.1279670E+00
         -3   -1    0    0    0  501 -0.00000000000E+00  0.00000000000E+00  0.37391529432E+02  0.37391529432E+02  0.00000000000E+00 0.  1.
          3   -1    0    0  501    0  0.00000000000E+00 -0.00000000000E+00 -0.42000021318E+03  0.42000021318E+03  0.00000000000E+00 0. -1.
         25    2    1    2    0    0  0.25703473208E+02 -0.13507613979E+02 -0.31187925610E+03  0.33728047050E+03  0.12508525584E+03 0.  0.
          5    1    3    3  502    0  0.56041747490E+02 -0.36592710723E+02 -0.27842898348E+03  0.28639112273E+03  0.41800000000E+01 0.  1.
         -5    1    3    3    0  502 -0.30338274282E+02  0.23085096744E+02 -0.33450272621E+02  0.50889347770E+02  0.41800000000E+01 0.  1.
        -11    1    1    2    0    0  0.30870082241E+02 -0.12007629047E+02 -0.36294531138E+02  0.49136932377E+02  0.00000000000E+00 0. -1.
         11    1    1    2    0    0 -0.56573555449E+02  0.25515243026E+02 -0.34434896515E+02  0.70974339735E+02  0.00000000000E+00 0.  1.
</event>
<event>
 7    1  0.2648915E-009  0.1843886E+03  0.7561462E-02  0.1163622E+00
          2   -1    0    0  501    0  0.00000000000E+00  0.00000000000E+00  0.24970743512E+03  0.24970743512E+03  0.00000000000E+00 0. -1.
         -2   -1    0    0    0  501 -0.00000000000E+00 -0.00000000000E+00 -0.13883872837E+03  0.13883872837E+03  0.00000000000E+00 0.  1.
         25    2    1    2    0    0 -0.12521208086E+03 -0.83522309336E+02  0.42533391730E+02  0.20027657226E+03  0.12509026595E+03 0.  0.
          5    1    3    3  502    0 -0.66909747014E+02  0.24068803864E+02  0.29658440097E+02  0.77157741244E+02  0.41800000000E+01 0.  1.
         -5    1    3    3    0  502 -0.58302333842E+02 -0.10759111320E+03  0.12874951632E+02  0.12311883102E+03  0.41800000000E+01 0.  1.
        -11    1    1    2    0    0  0.10990665051E+03  0.22493666126E+02  0.38234198503E+02  0.11852126720E+03  0.00000000000E+00 0.  1.
         11    1    1    2    0    0  0.15305430342E+02  0.61028643210E+02  0.30101116520E+02  0.69748324035E+02  0.00000000000E+00 0. -1.
</event>
<event>
 7    1  0.2648915E-009  0.7556161E+02  0.7561462E-02  0.1342141E+00
          1   -1    0    0  501    0  0.00000000000E+00  0.00000000000E+00  0.53415033582E+03  0.53415033582E+03  0.00000000000E+00 0.  1.
         -1   -1    0    0    0  501 -0.00000000000E+00 -0.00000000000E+00 -0.29470838147E+02  0.29470838147E+02  0.00000000000E+00 0. -1.
         25    2    1    2    0    0 -0.53960003816E+02 -0.14349623772E+02  0.34710527295E+03  0.37315726982E+03  0.12508670509E+03 0.  0.
          5    1    3    3  502    0 -0.94187718900E+01 -0.11814632213E+02 -0.63198100551E+01  0.16902993740E+02  0.41800000000E+01 0. -1.
         -5    1    3    3    0  502 -0.44541231926E+02 -0.25349915592E+01  0.35342508301E+03  0.35625427608E+03  0.41800000000E+01 0. -1.
        -11    1    1    2    0    0  0.70411173296E+02  0.26699078084E+01  0.15482114143E+03  0.17010128620E+03  0.00000000000E+00 0.  1.
         11    1    1    2    0    0 -0.16451169481E+02  0.11679715964E+02  0.27530832913E+01  0.20362617953E+02  0.00000000000E+00 0. -1.
</event>
<event>
 7    1  0.2648915E-009  0.9349939E+02  0.7561462E-02  0.1294592E+00
         -1   -1    0    0    0  501 -0.00000000000E+00  0.00000000000E+00  0.17450300608E+03  0.17450300608E+03  0.00000000000E+00 0.  1.
          1   -1    0    0  501    0  0.00000000000E+00 -0.00000000000E+00 -0.40005241726E+03  0.40005241726E+03  0.00000000000E+00 0. -1.
         25    2    1    2    0    0 -0.38566118245E+02  0.47109466370E+02 -0.36920305263E+03  0.39454417151E+03  0.12509021504E+03 0.  0.
          5    1    3    3  502    0 -0.43002949666E+02  0.79751806522E+02 -0.17088386197E+03  0.19346413364E+03  0.41800000000E+01 0. -1.
         -5    1    3    3    0  502  0.44368314201E+01 -0.32642340152E+02 -0.19831919066E+03  0.20108003787E+03  0.41800000000E+01 0. -1.
        -11    1    1    2    0    0  0.31214972687E+02 -0.25638561754E+02  0.64051347597E+01  0.40899096811E+02  0.00000000000E+00 0. -1.
         11    1    1    2    0    0  0.73511455582E+01 -0.21470904617E+02  0.13724850670E+03  0.13911215503E+03  0.00000000000E+00 0.  1.
</event>
<event>
 7    1  0.2648915E-009  0.1540364E+03  0.7561462E-02  0.1195599E+00
          1   -1    0    0  501    0  0.00000000000E+00  0.00000000000E+00  0.24842181241E+02  0.24842181241E+02  0.00000000000E+00 0. -1.
         -1   -1    0    0    0  501 -0.00000000000E+00 -0.00000000000E+00 -0.12205095461E+04  0.12205095461E+04  0.00000000000E+00 0.  1.
         25    2    1    2    0    0  0.57607025286E+02  0.10816376191E+03 -0.84316079166E+03  0.86115390776E+03  0.12509182030E+03 0.  0.
          5    1    3    3  502    0  0.32791621082E+02  0.13209957283E+03 -0.58339025463E+03  0.59907198996E+03  0.41800000000E+01 0. -1.
         -5    1    3    3    0  502  0.24815404205E+02 -0.23935810919E+02 -0.25977053703E+03  0.26208191780E+03  0.41800000000E+01 0. -1.
        -11    1    1    2    0    0 -0.59902531281E+02 -0.47466536374E+02 -0.10831444428E+03  0.13256471691E+03  0.00000000000E+00 0. -1.
         11    1    1    2    0    0  0.22955059942E+01 -0.60697225534E+02 -0.24419212892E+03  0.25163310268E+03  0.00000000000E+00 0.  1.
</event>
<event>
 7    1  0.2648915E-009  0.8064918E+02  0.7561462E-02  0.1327219E+00
          1   -1    0    0  501    0  0.00000000000E+00  0.00000000000E+00  0.45953276795E+02  0.45953276795E+02  0.00000000000E+00 0. -1.
         -1   -1    0    0    0  501 -0.00000000000E+00 -0.00000000000E+00 -0.31601847344E+03  0.31601847344E+03  0.00000000000E+00 0.  1.
         25    2    1    2    0    0  0.27017251572E+02  0.39995994605E+02 -0.12379834939E+03  0.18248687340E+03  0.12508323702E+03 0.  0.
          5    1    3    3  502    0 -0.55399966323E+01 -0.16345602927E+02  0.18693876802E+02  0.25783788078E+02  0.41800000000E+01 0.  1.
         -5    1    3    3    0  502  0.32557248204E+02  0.56341597532E+02 -0.14249222620E+03  0.15670308532E+03  0.41800000000E+01 0.  1.
        -11    1    1    2    0    0  0.19470697845E+01  0.15560056504E+02  0.44196060981E+01  0.16292309757E+02  0.00000000000E+00 0. -1.
         11    1    1    2    0    0 -0.28964321357E+02 -0.55556051110E+02 -0.15068645334E+03  0.16319256707E+03  0.00000000000E+00 0.  1.
</event>
<event>
 7    1  0.2648915E-009  0.1031049E+03  0.7561462E-02  0.1273899E+00
         -1   -1    0    0    0  501 -0.00000000000E+00  0.00000000000E+00  0.17616464706E+02  0.17616464706E+02  0.00000000000E+00 0.  1.
          1   -1    0    0  501    0  0.00000000000E+00 -0.00000000000E+00 -0.87401119353E+03  0.87401119353E+03  0.00000000000E+00 0. -1.
         25    2    1    2    0    0  0.22913646432E+02 -0.35506134669E+02 -0.61062774451E+03  0.62473937533E+03  0.12508926386E+03 0.  0.
          5    1    3    3  502    0 -0.50237460522E+02 -0.69810957847E+01 -0.30172471795E+03  0.30598662709E+03  0.41800000000E+01 0. -1.
         -5    1    3    3    0  502  0.73151106954E+02 -0.28525038884E+02 -0.30890302656E+03  0.31875274824E+03  0.41800000000E+01 0. -1.
        -11    1    1    2    0    0 -0.44049373636E+02  0.13253534567E+02 -0.22542041618E+03  0.23006600690E+03  0.00000000000E+00 0. -1.
         11    1    1    2    0    0  0.21135727204E+02  0.22252600102E+02 -0.20346568132E+02  0.36822276009E+02  0.00000000000E+00 0.  1.
</event>
<event>
 7    1  0.2648915E-009  0.2059977E+03  0.7561462E-02  0.1144775E+00
         -1   -1    0    0    0  501 -0.00000000000E+00  0.00000000000E+00  0.12455898255E+03  0.12455898255E+03  0.00000000000E+00 0.  1.
          1   -1    0    0  501    0  0.00000000000E+00 -0.00000000000E+00 -0.40600594580E+03  0.40600594580E+03  0.00000000000E+00 0. -1.
         25    2    1    2    0    0 -0.18764657746E+03 -0.50415016438E+02 -0.13578210598E+03  0.26802689365E+03  0.12509485799E+03 0.  0.
          5    1    3    3  502    0  0.14427009892E+01 -0.19809583977E+02 -0.57639118621E+02  0.61108439670E+02  0.41800000000E+01 0.  1.
         -5    1    3    3    0  502 -0.18908927845E+03 -0.30605432461E+02 -0.78142987364E+02  0.20691845397E+03  0.41800000000E+01 0.  1.
        -11    1    1    2    0    0  0.73905649898E+02  0.44368644181E+02 -0.11656873749E+03  0.14497893720E+03  0.00000000000E+00 0. -1.
         11    1    1    2    0    0  0.11374092756E+03  0.60463722573E+01 -0.29096119777E+02  0.11755909751E+03  0.00000000000E+00 0.  1.
</event>
<event>
 7    1  0.2648915E-009  0.9304233E+02  0.7561462E-02  0.1295647E+00
          1   -1    0    0  501    0  0.00000000000E+00  0.00000000000E+00  0.35415485826E+02  0.35415485826E+02  0.00000000000E+00 0. -1.
         -1   -1    0    0    0  501 -0.00000000000E+00 -0.00000000000E+00 -0.34276774192E+03  0.34276774192E+03  0.00000000000E+00 0.  1.
         25    2    1    2    0    0 -0.90931653545E+01  0.22379747290E+02 -0.16877844583E+03  0.21146347228E+03  0.12508835912E+03 0.  0.
          5    1    3    3  502    0  0.52415092135E+02  0.24994912359E+02 -0.11788439442E+03  0.13147733788E+03  0.41800000000E+01 0.  1.
         -5    1    3    3    0  502 -0.61508257490E+02 -0.26151650687E+01 -0.50894051408E+02  0.79986134401E+02  0.41800000000E+01 0.  1.
        -11    1    1    2    0    0 -0.31417811829E+01 -0.42497288659E+02 -0.13659864125E+03  0.14309115669E+03  0.00000000000E+00 0.  1.
         11    1    1    2    0    0  0.12234946537E+02  0.20117541369E+02 -0.19751690183E+01  0.23628598777E+02  0.00000000000E+00 0. -1.
</event>
<event>
 7    1  0.2648915E-009  0.9033227E+02  0.7561462E-02  0.1302049E+00
          2   -1    0    0  501    0  0.00000000000E+00  0.00000000000E+00  0.50774901414E+03  0.50774901414E+03  0.00000000000E+00 0. -1.
         -2   -1    0    0    0  501 -0.00000000000E+00 -0.00000000000E+00 -0.54621386528E+02  0.54621386528E+02  0.00000000000E+00 0.  1.
         25    2    1    2    0    0  0.33359130492E+01 -0.72441443692E+02  0.41707053919E+03  0.44142341162E+03  0.12509157680E+03 0.  0.
          5    1    3    3  502    0 -0.31725120320E+01  0.27697333946E+01 -0.78434862211E+01  0.98350867699E+01  0.41800000000E+01 0.  1.
         -5    1    3    3    0  502  0.65084250813E+01 -0.75211177087E+02  0.42491402541E+03  0.43158832485E+03  0.41800000000E+01 0.  1.
        -11    1    1    2    0    0 -0.35042873475E+02  0.29899547278E+02  0.48035530336E+02  0.66553723288E+02  0.00000000000E+00 0.  1.
         11    1    1    2    0    0  0.31706960425E+02  0.42541896414E+02 -0.11978441909E+02  0.54393265764E+02  0.00000000000E+00 0. -1.
</event>
<event>
 7    1  0.2648915E-009  0.1976328E+03  0.7561462E-02  0.1151752E+00
          1   -1    0    0  501    0  0.00000000000E+00  0.00000000000E+00  0.70590629495E+03  0.70590629495E+03  0.00000000000E+00 0. -1.
         -1   -1    0    0    0  501 -0.00000000000E+00 -0.00000000000E+00 -0.58540391815E+02  0.58540391815E+02  0.00000000000E+00 0.  1.
         25    2    1    2    0    0  0.15345843509E+03  0.64589290613E+02  0.41574930611E+03  0.46499060959E+03  0.12509002244E+03 0.  0.
          5    1    3    3  502    0  0.65030215102E+02 -0.33579460315E+02  0.18602786863E+03  0.19995086731E+03  0.41800000000E+01 0.  1.
         -5    1    3    3    0  502  0.88428219988E+02  0.98168750929E+02  0.22972143748E+03  0.26503974228E+03  0.41800000000E+01 0.  1.
        -11    1    1    2    0    0 -0.38554909095E+02 -0.64172835775E+02  0.94434820402E+02  0.12050962273E+03  0.00000000000E+00 0.  1.
         11    1    1    2    0    0 -0.11490352600E+03 -0.41645483875E+00  0.13718177663E+03  0.17894645445E+03  0.00000000000E+00 0. -1.
</event>
<event>
 7    1  0.2648915E-009  0.8691270E+02  0.7561462E-02  0.1310505E+00
          1   -1    0    0  501    0  0.00000000000E+00  0.00000000000E+00  0.21040050183E+03  0.21040050183E+03  0.00000000000E+00 0. -1.
         -1   -1    0    0    0  501 -0.00000000000E+00 -0.00000000000E+00 -0.63213767352E+02  0.63213767352E+02  0.00000000000E+00 0.  1.
         25    2    1    2    0    0 -0.10631730425E+02 -0.22568465216E+02  0.11460761389E+03  0.17147611922E+03  0.12508710961E+03 0.  0.
          5    1    3    3  502    0  0.19386839285E+02  0.20370561585E+02  0.11546244429E+03  0.11891113387E+03  0.41800000000E+01 0. -1.
         -5    1    3    3    0  502 -0.30018569711E+02 -0.42939026801E+02 -0.85483040632E+00  0.52564985353E+02  0.41800000000E+01 0. -1.
        -11    1    1    2    0    0  0.49730687862E+02  0.50291157020E+01  0.30120023288E+01  0.50074998532E+02  0.00000000000E+00 0.  1.
         11    1    1    2    0    0 -0.39098957437E+02  0.17539349514E+02  0.29567118264E+02  0.52063151426E+02  0.00000000000E+00 0. -1.
</event>
<event>
 7    1  0.2648915E-009  0.8407056E+02  0.7561462E-02  0.1317881E+00
         -2   -1    0    0    0  501 -0.00000000000E+00  0.00000000000E+00  0.46115860758E+02  0.46115860758E+02  0.00000000000E+00 0.  1.
          2   -1    0    0  501    0  0.00000000000E+00 -0.00000000000E+00 -0.39110973072E+03  0.39110973072E+03  0.00000000000E+00 0. -1.
         25    2    1    2    0    0 -0.24704151443E+02 -0.73512321367E+02 -0.17747922841E+03  0.23057435141E+03  0.12510514984E+03 0.  0.
          5    1    3    3  502    0 -0.38018454909E+02 -0.51552182809E+02 -0.19082498617E+03  0.20133225825E+03  0.41800000000E+01 0.  1.
         -5    1    3    3    0  502  0.13314303466E+02 -0.21960138558E+02  0.13345757752E+02  0.29242093157E+02  0.41800000000E+01 0.  1.
        -11    1    1    2    0    0  0.11204231385E+02  0.45153093706E+02 -0.12066540695E+02  0.48061815161E+02  0.00000000000E+00 0.  1.
         11    1    1    2    0    0  0.13499920058E+02  0.28359227660E+02 -0.15544810086E+03  0.15858942492E+03  0.00000000000E+00 0. -1.
</event>
<event>
 7    1  0.2648915E-009  0.1167743E+03  0.7561462E-02  0.1248515E+00
          1   -1    0    0  501    0  0.00000000000E+00  0.00000000000E+00  0.34345185461E+02  0.34345185461E+02  0.00000000000E+00 0. -1.
         -1   -1    0    0    0  501 -0.00000000000E+00 -0.00000000000E+00 -0.41158565297E+03  0.41158565297E+03  0.00000000000E+00 0.  1.
         25    2    1    2    0    0 -0.13609694600E+02 -0.51870198599E+02 -0.19218120489E+03  0.23548907042E+03  0.12508295442E+03 0.  0.
          5    1    3    3  502    0 -0.55381631152E+02 -0.69713635797E+02 -0.14216394600E+03  0.16779504173E+03  0.41800000000E+01 0. -1.
         -5    1    3    3    0  502  0.41771936552E+02  0.17843437197E+02 -0.50017258889E+02  0.67694028696E+02  0.41800000000E+01 0. -1.
        -11    1    1    2    0    0  0.19327637245E+02 -0.19351295391E+02 -0.68068962726E+02  0.73358120760E+02  0.00000000000E+00 0.  1.
         11    1    1    2    0    0 -0.57179426448E+01  0.71221493990E+02 -0.11699029989E+03  0.13708364724E+03  0.00000000000E+00 0. -1.
</event>
<event>
 7    1  0.2648915E-009  0.1697606E+03  0.7561462E-02  0.1178098E+00
          1   -1    0    0  501    0  0.00000000000E+00  0.00000000000E+00  0.56080143113E+03  0.56080143113E+03  0.00000000000E+00 0.  1.
         -1   -1    0    0    0  501 -0.00000000000E+00 -0.00000000000E+00 -0.64852075887E+02  0.64852075887E+02  0.00000000000E+00 0. -1.
         25    2    1    2    0    0  0.10521355851E+03  0.11151511522E+03  0.20749702359E+03  0.28671954020E+03  0.12509023190E+03 0.  0.
          5    1    3    3  502    0  0.10987855370E+03  0.10928020803E+03  0.11263219196E+03  0.19162187635E+03  0.41800000000E+01 0. -1.
         -5    1    3    3    0  502 -0.46649951907E+01  0.22349071929E+01  0.94864831624E+02  0.95097663848E+02  0.41800000000E+01 0. -1.
        -11    1    1    2    0    0 -0.15999428594E+02 -0.82491198199E+02  0.13009051456E+03  0.15486872336E+03  0.00000000000E+00 0.  1.
         11    1    1    2    0    0 -0.89214129916E+02 -0.29023917024E+02  0.15836181710E+03  0.18406524346E+03  0.00000000000E+00 0. -1.
</event>
<event>
 7    1  0.2648915E-009  0.7534810E+02  0.7561462E-02  0.1342796E+00
          4   -1    0    0  501    0  0.00000000000E+00  0.00000000000E+00  0.10479072846E+03  0.10479072846E+03  0.00000000000E+00 0. -1.
         -4   -1    0    0    0  501 -0.00000000000E+00 -0.00000000000E+00 -0.12113202972E+03  0.12113202972E+03  0.00000000000E+00 0.  1.
         25    2    1    2    0    0  0.14531728538E+02  0.18221138856E+01 -0.33581555412E+02  0.13034633832E+03  0.12509178956E+03 0.  0.
          5    1    3    3  502    0 -0.31409167130E+02 -0.18946711848E+02 -0.62119348424E+02  0.72262019888E+02  0.41800000000E+01 0. -1.
         -5    1    3    3    0  502  0.45940895668E+02  0.20768825734E+02  0.28537793013E+02  0.58084318427E+02  0.41800000000E+01 0. -1.
        -11    1    1    2    0    0 -0.10465360689E+02  0.29655560077E+02  0.43985429994E+02  0.54071194453E+02  0.00000000000E+00 0. -1.
         11    1    1    2    0    0 -0.40663678492E+01 -0.31477673962E+02 -0.26745175838E+02  0.41505225408E+02  0.00000000000E+00 0.  1.
</event>
<event>
 7    1  0.2648915E-009  0.1013402E+03  0.7561462E-02  0.1277503E+00
         -2   -1    0    0    0  501 -0.00000000000E+00  0.00000000000E+00  0.22112476351E+03  0.22112476351E+03  0.00000000000E+00 0.  1.
          2   -1    0    0  501    0  0.00000000000E+00 -0.00000000000E+00 -0.74243887455E+02  0.74243887455E+02  0.00000000000E+00 0. -1.
         25    2    1    2    0    0  0.23890397635E+02  0.91718860142E+01  0.13055206988E+03  0.18261235609E+03  0.12509418474E+03 0.  0.
          5    1    3    3  502    0 -0.43902213100E+02  0.33620851690E+02  0.59056122647E+02  0.81011505390E+02  0.41800000000E+01 0.  1.
         -5    1    3    3    0  502  0.67792610735E+02 -0.24448965676E+02  0.71495947234E+02  0.10160085070E+03  0.41800000000E+01 0.  1.
        -11    1    1    2    0    0 -0.36642412063E+02 -0.32157356074E+02  0.50136868009E+02  0.69931877175E+02  0.00000000000E+00 0.  1.
         11    1    1    2    0    0  0.12752014428E+02  0.22985470060E+02 -0.33808061836E+02  0.42824417695E+02  0.00000000000E+00 0. -1.
</event>
<event>
 7    1  0.2648915E-009  0.1263131E+03  0.7561462E-02  0.1233031E+00
          1   -1    0    0  501    0  0.00000000000E+00  0.00000000000E+00  0.40825925403E+02  0.40825925403E+02  0.00000000000E+00 0. -1.
         -1   -1    0    0    0  501 -0.00000000000E+00 -0.00000000000E+00 -0.46537806572E+03  0.46537806572E+03  0.00000000000E+00 0.  1.
         25    2    1    2    0    0 -0.12623929645E+02 -0.69654751264E+02 -0.14676404808E+03  0.20541949179E+03  0.12508530619E+03 0.  0.
          5    1    3    3  502    0  0.54945294147E+02 -0.42140175934E+02 -0.57831366525E+02  0.90314556583E+02  0.41800000000E+01 0. -1.
         -5    1    3    3    0  502 -0.67569223792E+02 -0.27514575331E+02 -0.88932681558E+02  0.11510493521E+03  0.41800000000E+01 0. -1.
        -11    1    1    2    0    0 -0.32927609318E+02  0.51535808289E+02 -0.19711531768E+03  0.20638462989E+03  0.00000000000E+00 0.  1.
         11    1    1    2    0    0  0.45551538964E+02  0.18118942975E+02 -0.80672774558E+02  0.94399869446E+02  0.00000000000E+00 0. -1.
</event>
<event>
 7    1  0.2648915E-009  0.1010060E+03  0.7561462E-02  0.1278194E+00
          1   -1    0    0  501    0  0.00000000000E+00  0.00000000000E+00  0.27289560242E+03  0.27289560242E+03  0.00000000000E+00 0. -1.
         -1   -1    0    0    0  501 -0.00000000000E+00 -0.00000000000E+00 -0.52170076320E+02  0.52170076320E+02  0.00000000000E+00 0.  1.
         25    2    1    2    0    0 -0.12907769102E+02 -0.37312738943E+02  0.16489248228E+03  0.21070568828E+03  0.12509398616E+03 0.  0.
          5    1    3    3  502    0 -0.63386847030E+02 -0.17518730505E+02  0.13096374213E+03  0.14660754567E+03  0.41800000000E+01 0.  1.
         -5    1    3    3    0  502  0.50479077928E+02 -0.19794008438E+02  0.33928740153E+02  0.64098142617E+02  0.41800000000E+01 0.  1.
        -11    1    1    2    0    0  0.42697424361E+02  0.18739809410E+02  0.63150815265E+02  0.78500165430E+02  0.00000000000E+00 0. -1.
         11    1    1    2    0    0 -0.29789655259E+02  0.18572929533E+02 -0.73177714458E+01  0.35859825025E+02  0.00000000000E+00 0.  1.
</event>
<event>
 7    1  0.2648915E-009  0.8848972E+02  0.7561462E-02  0.1306551E+00
         -2   -1    0    0    0  501 -0.00000000000E+00  0.00000000000E+00  0.13951189526E+02  0.13951189526E+02  0.00000000000E+00 0.  1.
          2   -1    0    0  501    0  0.00000000000E+00 -0.00000000000E+00 -0.11972851230E+04  0.11972851230E+04  0.00000000000E+00 0. -1.
         25    2    1    2    0    0  0.61439338583E+02 -0.61180840744E+01 -0.80284638188E+03  0.81487550338E+03  0.12509016680E+03 0.  0.
          5    1    3    3  502    0  0.58375167227E+01  0.89914705927E+01 -0.16791795163E+01  0.11628206601E+02  0.41800000000E+01 0. -1.
         -5    1    3    3    0  502  0.55601821861E+02 -0.15109554667E+02 -0.80116720237E+03  0.80324729678E+03  0.41800000000E+01 0. -1.
        -11    1    1    2    0    0  0.19701586198E+02  0.16762112432E+02 -0.55566215700E+02  0.61292130319E+02  0.00000000000E+00 0. -1.
         11    1    1    2    0    0 -0.81140924781E+02 -0.10644028358E+02 -0.32492133593E+03  0.33506867887E+03  0.00000000000E+00 0.  1.
</event>
<event>
 7    1  0.2648915E-009  0.9027472E+02  0.7561462E-02  0.1302188E+00
         -2   -1    0    0    0  501 -0.00000000000E+00  0.00000000000E+00  0.15456876486E+03  0.15456876486E+03  0.00000000000E+00 0.  1.
          2   -1    0    0  501    0  0.00000000000E+00 -0.00000000000E+00 -0.12058641372E+03  0.12058641372E+03  0.00000000000E+00 0. -1.
         25    2    1    2    0    0 -0.71777427557E+02  0.37862072531E+02  0.55756682525E+02  0.15918808913E+03  0.12508598815E+03 0.  0.
          5    1    3    3  502    0  0.36908010363E+01  0.16933973127E+02 -0.34975859815E+02  0.39257669670E+02  0.41800000000E+01 0. -1.
         -5    1    3    3    0  502 -0.75468228593E+02  0.20928099403E+02  0.90732542340E+02  0.11993041946E+03  0.41800000000E+01 0. -1.
        -11    1    1    2    0    0  0.49525747079E+02 -0.37358364255E+02 -0.50243424486E+02  0.79830124062E+02  0.00000000000E+00 0. -1.
         11    1    1    2    0    0  0.22251680477E+02 -0.50370827535E+00  0.28469093096E+02  0.36136965392E+02  0.00000000000E+00 0.  1.
</event>
<event>
 7    1  0.3195973E-009  0.7622374E+02  0.7561462E-02  0.1340123E+00
          1   -1    0    0  501    0  0.00000000000E+00  0.00000000000E+00  0.24506679047E+03  0.24506679047E+03  0.00000000000E+00 0. -1.
         -1   -1    0    0    0  501 -0.00000000000E+00 -0.00000000000E+00 -0.71736868888E+02  0.71736868888E+02  0.00000000000E+00 0.  1.
         25    2    1    2    0    0 -0.63272133011E+02 -0.15561720139E+02  0.14385406073E+03  0.20146249221E+03  0.12509042742E+03 0.  0.
          5    1    3    3  502    0 -0.42309772874E+02 -0.37351118336E+02  0.22830587653E+01  0.56638394035E+02  0.41800000000E+01 0. -1.
         -5    1    3    3    0  502 -0.20962360137E+02  0.21789398197E+02  0.14157100196E+03  0.14482409818E+03  0.41800000000E+01 0. -1.
        -11    1    1    2    0    0  0.35222926633E+02  0.11096159781E+02  0.61997610551E+02  0.72162892379E+02  0.00000000000E+00 0. -1.
         11    1    1    2    0    0  0.28049206378E+02  0.44655603579E+01 -0.32521749702E+02  0.43178274762E+02  0.00000000000E+00 0.  1.
</event>
<event>
 7    1  0.2648915E-009  0.1444968E+03  0.7561462E-02  0.1207403E+00
         -2   -1    0    0    0  501 -0.00000000000E+00  0.00000000000E+00  0.63968704514E+02  0.63968704514E+02  0.00000000000E+00 0.  1.
          2   -1    0    0  501    0  0.00000000000E+00 -0.00000000000E+00 -0.43057160462E+03  0.43057160462E+03  0.00000000000E+00 0. -1.
         25    2    1    2    0    0 -0.11702164700E+03  0.13578399226E+02 -0.25748730444E+03  0.30955654576E+03  0.12508838589E+03 0.  0.
          5    1    3    3  502    0  0.25497884553E+02  0.47031663902E+01 -0.62877698703E+02  0.68142052251E+02  0.41800000000E+01 0. -1.
         -5    1    3    3    0  502 -0.14251953155E+03  0.88752328353E+01 -0.19460960574E+03  0.24141449351E+03  0.41800000000E+01 0. -1.
        -11    1    1    2    0    0  0.98485456846E+02 -0.29985369308E+01 -0.29936400683E+02  0.10297846629E+03  0.00000000000E+00 0.  1.
         11    1    1    2    0    0  0.18536190153E+02 -0.10579862295E+02 -0.79179194980E+02  0.82005297081E+02  0.00000000000E+00 0. -1.
</event>
<event>
 7    1  0.2648915E-009  0.2201446E+03  0.7561462E-02  0.1133775E+00
         -2   -1    0    0    0  501 -0.00000000000E+00  0.00000000000E+00  0.21699231084E+03  0.21699231084E+03  0.00000000000E+00 0.  1.
          2   -1    0    0  501    0  0.00000000000E+00 -0.00000000000E+00 -0.27221276596E+03  0.27221276596E+03  0.00000000000E+00 0. -1.
         25    2    1    2    0    0  0.24675281478E+02  0.20111243667E+03  0.53475453088E+02  0.24405439222E+03  0.12509132895E+03 0.  0.
          5    1    3    3  502    0  0.35543083447E+02 -0.35061000139E+00  0.13998844106E+02  0.38430115074E+02  0.41800000000E+01 0.  1.
         -5    1    3    3    0  502 -0.10867801969E+02  0.20146304667E+03  0.39476608982E+02  0.20562427714E+03  0.41800000000E+01 0.  1.
        -11    1    1    2    0    0 -0.78174871456E+01 -0.86817718103E+02 -0.95029242773E+00  0.87174149480E+02  0.00000000000E+00 0.  1.
         11    1    1    2    0    0 -0.16857794333E+02 -0.11429471857E+03 -0.10774561579E+03  0.15797653510E+03  0.00000000000E+00 0. -1.
</event>
<event>
 7    1  0.2648915E-009  0.1140451E+03  0.7561462E-02  0.1253257E+00
          2   -1    0    0  501    0  0.00000000000E+00  0.00000000000E+00  0.82373197287E+03  0.82373197287E+03  0.00000000000E+00 0.  1.
         -2   -1    0    0    0  501 -0.00000000000E+00 -0.00000000000E+00 -0.16875372263E+02  0.16875372263E+02  0.00000000000E+00 0. -1.
         25    2    1    2    0    0 -0.27480188296E+02  0.20132355269E+02  0.48069401819E+03  0.49787150509E+03  0.12509525963E+03 0.  0.
          5    1    3    3  502    0  0.40665468547E+02  0.34319226086E+02  0.13409763198E+03  0.14432995847E+03  0.41800000000E+01 0.  1.
         -5    1    3    3    0  502 -0.68145656843E+02 -0.14186870817E+02  0.34659638621E+03  0.35354154662E+03  0.41800000000E+01 0.  1.
        -11    1    1    2    0    0  0.89030993038E+01 -0.60180379558E+02  0.17594437514E+03  0.18616489036E+03  0.00000000000E+00 0. -1.
         11    1    1    2    0    0  0.18577088992E+02  0.40048024289E+02  0.15021820728E+03  0.15657094968E+03  0.00000000000E+00 0.  1.
</event>
<event>
 7    1  0.2648915E-009  0.8264654E+02  0.7561462E-02  0.1321704E+00
         -2   -1    0    0    0  501 -0.00000000000E+00  0.00000000000E+00  0.23857843521E+02  0.23857843521E+02  0.00000000000E+00 0.  1.
          2   -1    0    0  501    0  0.00000000000E+00 -0.00000000000E+00 -0.62484053364E+03  0.62484053364E+03  0.00000000000E+00 0. -1.
         25    2    1    2    0    0 -0.27688973877E+02 -0.40959955476E+02 -0.27315407755E+03  0.30447272371E+03  0.12508434024E+03 0.  0.
          5    1    3    3  502    0  0.11254881002E+02 -0.40965380258E+02 -0.17997198688E+02  0.46327165753E+02  0.41800000000E+01 0. -1.
         -5    1    3    3    0  502 -0.38943854879E+02  0.54247826344E-02 -0.25515687886E+03  0.25814555795E+03  0.41800000000E+01 0. -1.
        -11    1    1    2    0    0 -0.69520271624E+01  0.47651254748E+02 -0.28354791174E+03  0.28760805102E+03  0.00000000000E+00 0. -1.
         11    1    1    2    0    0  0.34641001039E+02 -0.66912992728E+01 -0.44280700833E+02  0.56617602433E+02  0.00000000000E+00 0.  1.
</event>
<event>
 7    1  0.2648915E-009  0.9198220E+02  0.7561462E-02  0.1298121E+00
          2   -1    0    0  501    0  0.00000000000E+00  0.00000000000E+00  0.11710760417E+04  0.11710760417E+04  0.00000000000E+00 0. -1.
         -2   -1    0    0    0  501 -0.00000000000E+00 -0.00000000000E+00 -0.20288105877E+02  0.20288105877E+02  0.00000000000E+00 0.  1.
         25    2    1    2    0    0  0.51561005503E+02  0.61824716759E+02  0.91071348647E+03  0.92278253856E+03  0.12509087151E+03 0.  0.
          5    1    3    3  502    0  0.28556932971E+02  0.39101733741E+02  0.97744009275E+02  0.10915955181E+03  0.41800000000E+01 0. -1.
         -5    1    3    3    0  502  0.23004072532E+02  0.22722983019E+02  0.81296947720E+03  0.81362298675E+03  0.41800000000E+01 0. -1.
        -11    1    1    2    0    0  0.15199397123E+02 -0.13711208914E+02  0.73716094114E+01  0.21756827620E+02  0.00000000000E+00 0.  1.
         11    1    1    2    0    0 -0.66760402626E+02 -0.48113507846E+02  0.23270283990E+03  0.24682478136E+03  0.00000000000E+00 0. -1.
</event>
<event>
 7    1  0.2648915E-009  0.6580268E+02  0.7561462E-02  0.1374977E+00
         -4   -1    0    0    0  501 -0.00000000000E+00  0.00000000000E+00  0.15845669627E+03  0.15845669627E+03  0.00000000000E+00 0.  1.
          4   -1    0    0  501    0  0.00000000000E+00 -0.00000000000E+00 -0.86581991703E+02  0.86581991703E+02  0.00000000000E+00 0. -1.
         25    2    1    2    0    0 -0.19131247314E+02  0.33995174593E+02  0.14127469693E+02  0.13179046181E+03  0.12508982335E+03 0.  0.
          5    1    3    3  502    0 -0.22140594007E+02  0.14975120463E+02  0.68664843095E+02  0.73802393004E+02  0.41800000000E+01 0.  1.
         -5    1    3    3    0  502  0.30093466932E+01  0.19020054130E+02 -0.54537373402E+02  0.57988068809E+02  0.41800000000E+01 0.  1.
        -11    1    1    2    0    0 -0.28828970505E+02 -0.64614122289E+01 -0.46095253376E+01  0.29901623906E+02  0.00000000000E+00 0. -1.
         11    1    1    2    0    0  0.47960217819E+02 -0.27533762364E+02  0.62356760208E+02  0.83346602251E+02  0.00000000000E+00 0.  1.
</event>
<event>
 7    1  0.2648915E-009  0.2786589E+03  0.7561462E-02  0.1096424E+00
          1   -1    0    0  501    0  0.00000000000E+00  0.00000000000E+00  0.10959430138E+04  0.10959430138E+04  0.00000000000E+00 0. -1.
         -1   -1    0    0    0  501 -0.00000000000E+00 -0.00000000000E+00 -0.83606288734E+02  0.83606288734E+02  0.00000000000E+00 0.  1.
         25    2    1    2    0    0 -0.80651109229E+02  0.25890605465E+03  0.65306731408E+03  0.71810972669E+03  0.12509083217E+03 0.  0.
          5    1    3    3  502    0 -0.46103235745E+02  0.18290252482E+03  0.29317593362E+03  0.34863798184E+03  0.41800000000E+01 0.  1.
         -5    1    3    3    0  502 -0.34547873485E+02  0.76003529830E+02  0.35989138047E+03  0.36947174485E+03  0.41800000000E+01 0.  1.
        -11    1    1    2    0    0  0.56275089417E+02 -0.51690607295E+02  0.62776311017E+02  0.98892213022E+02  0.00000000000E+00 0.  1.
         11    1    1    2    0    0  0.24376019812E+02 -0.20721544735E+03  0.29649310000E+03  0.36254736285E+03  0.00000000000E+00 0. -1.
</event>
<event>
 7    1  0.2648915E-009  0.1170357E+03  0.7561462E-02  0.1248069E+00
          1   -1    0    0  501    0  0.00000000000E+00  0.00000000000E+00  0.11307898658E+03  0.11307898658E+03  0.00000000000E+00 0. -1.
         -1   -1    0    0    0  501 -0.00000000000E+00 -0.00000000000E+00 -0.17312969639E+03  0.17312969639E+03  0.00000000000E+00 0.  1.
         25    2    1    2    0    0  0.68049579593E+01 -0.87248755434E+02 -0.48076136314E+01  0.15274565501E+03  0.12509783850E+03 0.  0.
          5    1    3    3  502    0 -0.53037316546E+02 -0.46860028727E+02  0.24076828396E+02  0.74873128052E+02  0.41800000000E+01 0. -1.
         -5    1    3    3    0  502  0.59842274505E+02 -0.40388726707E+02 -0.28884442027E+02  0.77872526954E+02  0.41800000000E+01 0. -1.
        -11    1    1    2    0    0  0.66854459685E+01  0.60806110262E+02  0.98127007405E+01  0.61954558579E+02  0.00000000000E+00 0. -1.
         11    1    1    2    0    0 -0.13490403928E+02  0.26442645173E+02 -0.65055796915E+02  0.71508469387E+02  0.00000000000E+00 0.  1.
</event>
<event>
 7    1  0.2648915E-009  0.2415145E+03  0.7561462E-02  0.1118788E+00
         -1   -1    0    0    0  501 -0.00000000000E+00  0.00000000000E+00  0.19989552427E+03  0.19989552427E+03  0.00000000000E+00 0.  1.
          1   -1    0    0  501    0  0.00000000000E+00 -0.00000000000E+00 -0.34307568595E+03  0.34307568595E+03  0.00000000000E+00 0. -1.
         25    2    1    2    0    0 -0.13115585378E+03  0.19232562566E+03 -0.24684528515E+02  0.26542009262E+03  0.12508994906E+03 0.  0.
          5    1    3    3  502    0 -0.18586503756E+02  0.75409163626E+01 -0.43607544503E+02  0.48181053113E+02  0.41800000000E+01 0.  1.
         -5    1    3    3    0  502 -0.11256935003E+03  0.18478470929E+03  0.18923015988E+02  0.21723903951E+03  0.41800000000E+01 0.  1.
        -11    1    1    2    0    0  0.11589009478E+03 -0.10158350155E+03 -0.47293883262E+02  0.16120308077E+03  0.00000000000E+00 0. -1.
         11    1    1    2    0    0  0.15265758998E+02 -0.90742124103E+02 -0.71201749895E+02  0.11634803682E+03  0.00000000000E+00 0.  1.
</event>
<event>
 7    1  0.2648915E-009  0.1097641E+03  0.7561462E-02  0.1261007E+00
         -1   -1    0    0    0  501 -0.00000000000E+00  0.00000000000E+00  0.20030869204E+03  0.20030869204E+03  0.00000000000E+00 0.  1.
          1   -1    0    0  501    0  0.00000000000E+00 -0.00000000000E+00 -0.72994637173E+02  0.72994637173E+02  0.00000000000E+00 0. -1.
         25    2    1    2    0    0  0.38157622647E+01  0.29627421713E+02  0.11593876175E+03  0.17315326266E+03  0.12509161336E+03 0.  0.
          5    1    3    3  502    0 -0.31273483017E+02  0.66862774931E+02  0.48589353663E+02  0.88470668025E+02  0.41800000000E+01 0.  1.
         -5    1    3    3    0  502  0.35089245281E+02 -0.37235353218E+02  0.67349408092E+02  0.84682594635E+02  0.41800000000E+01 0.  1.
        -11    1    1    2    0    0 -0.46642337230E+02 -0.16292391155E+02  0.21955160580E+02  0.54064579051E+02  0.00000000000E+00 0.  1.
         11    1    1    2    0    0  0.42826574965E+02 -0.13335030558E+02 -0.10579867464E+02  0.46085487507E+02  0.00000000000E+00 0. -1.
</event>
<event>
 7    1  0.2648915E-009  0.2076786E+03  0.7561462E-02  0.1143418E+00
          2   -1    0    0  501    0  0.00000000000E+00  0.00000000000E+00  0.29492522621E+03  0.29492522621E+03  0.00000000000E+00 0. -1.
         -2   -1    0    0    0  501 -0.00000000000E+00 -0.00000000000E+00 -0.20220807922E+03  0.20220807922E+03  0.00000000000E+00 0.  1.
         25    2    1    2    0    0 -0.17916113838E+03 -0.34437548450E+02 -0.74774213104E+02  0.23349480826E+03  0.12507591412E+03 0.  0.
          5    1    3    3  502    0 -0.16544058015E+03  0.10656743545E+02 -0.83028544965E+02  0.18545987011E+03  0.41800000000E+01 0. -1.
         -5    1    3    3    0  502 -0.13720558228E+02 -0.45094291995E+02  0.82543318609E+01  0.48034938150E+02  0.41800000000E+01 0. -1.
        -11    1    1    2    0    0  0.11176843389E+03 -0.22458416414E+02  0.78997288847E+02  0.13869799900E+03  0.00000000000E+00 0. -1.
         11    1    1    2    0    0  0.67392704489E+02  0.56895964865E+02  0.88494071250E+02  0.12494049817E+03  0.00000000000E+00 0.  1.
</event>
<event>
 7    1  0.2648915E-009  0.7831109E+02  0.7561462E-02  0.1333914E+00
          2   -1    0    0  501    0  0.00000000000E+00  0.00000000000E+00  0.37607290398E+02  0.37607290398E+02  0.00000000000E+00 0. -1.
         -2   -1    0    0    0  501 -0.00000000000E+00 -0.00000000000E+00 -0.45785335633E+03  0.45785335633E+03  0.00000000000E+00 0.  1.
         25    2    1    2    0    0  0.35791791626E+02  0.13428033109E+02 -0.32865965868E+03  0.35372561006E+03  0.12507306484E+03 0.  0.
          5    1    3    3  502    0  0.33006814178E+02  0.38690020492E+02 -0.42498188089E+02  0.66407347927E+02  0.41800000000E+01 0.  1.
         -5    1    3    3    0  502  0.27849774482E+01 -0.25261987383E+02 -0.28616147059E+03  0.28731826213E+03  0.41800000000E+01 0.  1.
        -11    1    1    2    0    0 -0.52952685941E+02  0.67139718635E+01 -0.78916526044E+01  0.53956858206E+02  0.00000000000E+00 0. -1.
         11    1    1    2    0    0  0.17160894315E+02 -0.20142004973E+02 -0.83694754651E+02  0.87778178462E+02  0.00000000000E+00 0.  1.
</event>
<event>
 7    1  0.2648915E-009  0.1448167E+03  0.7561462E-02  0.1206991E+00
         -1   -1    0    0    0  501 -0.00000000000E+00  0.00000000000E+00  0.34545501418E+02  0.34545501418E+02  0.00000000000E+00 0.  1.
          1   -1    0    0  501    0  0.00000000000E+00 -0.00000000000E+00 -0.93918494491E+03  0.93918494491E+03  0.00000000000E+00 0. -1.
         25    2    1    2    0    0 -0.75678368514E+02  0.10117988832E+03 -0.29651725266E+03  0.34573847039E+03  0.12509206018E+03 0.  0.
          5    1    3    3  502    0 -0.79956917799E+02  0.67328856707E+02 -0.29308110038E+03  0.31119172137E+03  0.41800000000E+01 0. -1.
         -5    1    3    3    0  502  0.42785492848E+01  0.33851031613E+02 -0.34361522808E+01  0.34546749019E+02  0.41800000000E+01 0. -1.
        -11    1    1    2    0    0  0.29644389960E+02  0.92096736431E+01 -0.67471022382E+02  0.74269420396E+02  0.00000000000E+00 0. -1.
         11    1    1    2    0    0  0.46033978554E+02 -0.11038956196E+03 -0.54065116845E+03  0.55372255555E+03  0.00000000000E+00 0.  1.
</event>
<event>
 7    1  0.2648915E-009  0.1355845E+03  0.7561462E-02  0.1219397E+00
          4   -1    0    0  501    0  0.00000000000E+00  0.00000000000E+00  0.20821532560E+02  0.20821532560E+02  0.00000000000E+00 0. -1.
         -4   -1    0    0    0  501 -0.00000000000E+00 -0.00000000000E+00 -0.11607511780E+04  0.11607511780E+04  0.00000000000E+00 0.  1.
         25    2    1    2    0    0  0.81493668074E+02  0.58287875575E+02 -0.78947227573E+03  0.80557554089E+03  0.12508710389E+03 0.  0.
          5    1    3    3  502    0 -0.10997944169E+02  0.59949834125E+02 -0.43225381466E+03  0.43654984833E+03  0.41800000000E+01 0. -1.
         -5    1    3    3    0  502  0.92491612243E+02 -0.16619585501E+01 -0.35721846107E+03  0.36902569256E+03  0.41800000000E+01 0. -1.
        -11    1    1    2    0    0 -0.58352196544E+02 -0.40340660373E+01 -0.26983863367E+03  0.27610530736E+03  0.00000000000E+00 0.  1.
         11    1    1    2    0    0 -0.23141471530E+02 -0.54253809537E+02 -0.80618736005E+02  0.99891862276E+02  0.00000000000E+00 0. -1.
</event>
<event>
 7    1  0.2648915E-009  0.6620565E+02  0.7561462E-02  0.1373493E+00
         -2   -1    0    0    0  501 -0.00000000000E+00  0.00000000000E+00  0.22734582091E+02  0.22734582091E+02  0.00000000000E+00 0. -1.
          2   -1    0    0  501    0  0.00000000000E+00 -0.00000000000E+00 -0.59434469989E+03  0.59434469989E+03  0.00000000000E+00 0.  1.
         25    2    1    2    0    0 -0.26463785037E+02  0.31177089034E+02 -0.32208460304E+03  0.34793407791E+03  0.12508912124E+03 0.  0.
          5    1    3    3  502    0 -0.31280294338E+02  0.25735745367E+02 -0.19353213673E+02  0.45086635303E+02  0.41800000000E+01 0. -1.
         -5    1    3    3    0  502  0.48165093006E+01  0.54413436669E+01 -0.30273138937E+03  0.30284744261E+03  0.41800000000E+01 0. -1.
        -11    1    1    2    0    0 -0.24673527370E+02 -0.17872644999E+02 -0.27911949411E+02  0.41319381797E+02  0.00000000000E+00 0. -1.
         11    1    1    2    0    0  0.51137312407E+02 -0.13304444035E+02 -0.22161356534E+03  0.22782582227E+03  0.00000000000E+00 0.  1.
</event>
<event>
 7    1  0.2648915E-009  0.1491787E+03  0.7561462E-02  0.1201486E+00
          1   -1    0    0  501    0  0.00000000000E+00  0.00000000000E+00  0.54069260005E+03  0.54069260005E+03  0.00000000000E+00 0. -1.
         -1   -1    0    0    0  501 -0.00000000000E+00 -0.00000000000E+00 -0.67010449309E+02  0.67010449309E+02  0.00000000000E+00 0.  1.
         25    2    1    2    0    0 -0.10434545972E+03  0.10590784476E+03  0.17432096719E+03  0.26103548678E+03  0.12508908509E+03 0.  0.
          5    1    3    3  502    0 -0.26799313741E+02  0.19557867680E+02  0.13398647838E+03  0.13809620630E+03  0.41800000000E+01 0. -1.
         -5    1    3    3    0  502 -0.77546145982E+02  0.86349977082E+02  0.40334488817E+02  0.12293928049E+03  0.41800000000E+01 0. -1.
        -11    1    1    2    0    0  0.28735508625E+02 -0.25628456777E+02  0.18035987170E+03  0.18442405096E+03  0.00000000000E+00 0. -1.
         11    1    1    2    0    0  0.75609951098E+02 -0.80279387985E+02  0.11900131185E+03  0.16224351162E+03  0.00000000000E+00 0.  1.
</event>
<event>
 7    1  0.2648915E-009  0.1296555E+03  0.7561462E-02  0.1227968E+00
         -3   -1    0    0    0  501 -0.00000000000E+00  0.00000000000E+00  0.15394894536E+04  0.15394894536E+04  0.00000000000E+00 0.  1.
          3   -1    0    0  501    0  0.00000000000E+00 -0.00000000000E+00 -0.16928236319E+02  0.16928236319E+02  0.00000000000E+00 0. -1.
         25    2    1    2    0    0 -0.10619952584E+03  0.36939913882E+02  0.10189971568E+04  0.10327855586E+04  0.12509159800E+03 0.  0.
          5    1    3    3  502    0 -0.94457586678E+02  0.41217178769E+02  0.38280944052E+03  0.39646138735E+03  0.41800000000E+01 0. -1.
         -5    1    3    3    0  502 -0.11741939158E+02 -0.42772648868E+01  0.63618771627E+03  0.63632417121E+03  0.41800000000E+01 0. -1.
        -11    1    1    2    0    0  0.71898512364E+02  0.21659337468E+02  0.24075904812E+03  0.25219722883E+03  0.00000000000E+00 0. -1.
         11    1    1    2    0    0  0.34301013472E+02 -0.58599251349E+02  0.26280501234E+03  0.27143490250E+03  0.00000000000E+00 0.  1.
</event>
<event>
 7    1  0.2648915E-009  0.1299632E+03  0.7561462E-02  0.1227510E+00
         -1   -1    0    0    0  501 -0.00000000000E+00  0.00000000000E+00  0.88461894707E+02  0.88461894707E+02  0.00000000000E+00 0.  1.
          1   -1    0    0  501    0  0.00000000000E+00 -0.00000000000E+00 -0.27237290242E+03  0.27237290242E+03  0.00000000000E+00 0. -1.
         25    2    1    2    0    0 -0.52746093395E+02  0.62522476119E+02 -0.18611015135E+03  0.23869859830E+03  0.12509525172E+03 0.  0.
          5    1    3    3  502    0 -0.86005459544E+02  0.28550861287E+02 -0.74763482990E+02  0.11755484482E+03  0.41800000000E+01 0. -1.
         -5    1    3    3    0  502  0.33259366149E+02  0.33971614832E+02 -0.11134666837E+03  0.12114375348E+03  0.41800000000E+01 0. -1.
        -11    1    1    2    0    0  0.50977374575E+02 -0.84904163211E+02 -0.30498114642E+01  0.99079316707E+02  0.00000000000E+00 0. -1.
         11    1    1    2    0    0  0.17687188201E+01  0.22381687092E+02  0.52489551086E+01  0.23056882120E+02  0.00000000000E+00 0.  1.
</event>
<event>
 7    1  0.2648915E-009  0.7969748E+02  0.7561462E-02  0.1329912E+00
         -3   -1    0    0    0  501 -0.00000000000E+00  0.00000000000E+00  0.36624210532E+02  0.36624210532E+02  0.00000000000E+00 0.  1.
          3   -1    0    0  501    0  0.00000000000E+00 -0.00000000000E+00 -0.39128378289E+03  0.39128378289E+03  0.00000000000E+00 0. -1.
         25    2    1    2    0    0  0.96765701543E+01  0.31004790349E+02 -0.13492928928E+03  0.18683771172E+03  0.12508990519E+03 0.  0.
          5    1    3    3  502    0 -0.18986643881E+02  0.26623770356E+02  0.13442148407E+02  0.35601707088E+02  0.41800000000E+01 0.  1.
         -5    1    3    3    0  502  0.28663214035E+02  0.43810199934E+01 -0.14837143769E+03  0.15123600463E+03  0.41800000000E+01 0.  1.
        -11    1    1    2    0    0 -0.37861221865E+02 -0.50314011299E+02 -0.16434853806E+03  0.17599833470E+03  0.00000000000E+00 0. -1.
         11    1    1    2    0    0  0.28184651711E+02  0.19309220950E+02 -0.55381745011E+02  0.65071946999E+02  0.00000000000E+00 0.  1.
</event>
<event>
 7    1  0.2648915E-009  0.4662450E+02  0.7561462E-02  0.1464448E+00
          1   -1    0    0  501    0  0.00000000000E+00  0.00000000000E+00  0.18923881033E+02  0.18923881033E+02  0.00000000000E+00 0. -1.
         -1   -1    0    0    0  501 -0.00000000000E+00 -0.00000000000E+00 -0.80938012123E+03  0.80938012123E+03  0.00000000000E+00 0.  1.
         25    2    1    2    0    0  0.29458890374E+01 -0.30701251831E+02 -0.63277272039E+03  0.64575548041E+03  0.12509028612E+03 0.  0.
          5    1    3    3  502    0 -0.17851115686E+01 -0.71880475943E+00  0.52592490937E+01  0.69882332978E+01  0.41800000000E+01 0.  1.
         -5    1    3    3    0  502  0.47310006060E+01 -0.29982447071E+02 -0.63803196948E+03  0.63876724711E+03  0.41800000000E+01 0.  1.
        -11    1    1    2    0    0  0.22852015767E+02  0.10060843159E+02 -0.14503945477E+03  0.14717295482E+03  0.00000000000E+00 0.  1.
         11    1    1    2    0    0 -0.25797904804E+02  0.20640408672E+02 -0.12644065035E+02  0.35375567035E+02  0.00000000000E+00 0. -1.
</event>
<event>
 7    1  0.2648915E-009  0.1981623E+03  0.7561462E-02  0.1151299E+00
         -1   -1    0    0    0  501 -0.00000000000E+00  0.00000000000E+00  0.15874320846E+03  0.15874320846E+03  0.00000000000E+00 0.  1.
          1   -1    0    0  501    0  0.00000000000E+00 -0.00000000000E+00 -0.29523105506E+03  0.29523105506E+03  0.00000000000E+00 0. -1.
         25    2    1    2    0    0 -0.98781548769E+02  0.14557467008E+03 -0.13821867013E+03  0.25632151168E+03  0.12508612087E+03 0.  0.
          5    1    3    3  502    0 -0.21005367384E+02  0.11329751718E+03 -0.12655829192E+03  0.17120755390E+03  0.41800000000E+01 0.  1.
         -5    1    3    3    0  502 -0.77776181385E+02  0.32277152896E+02 -0.11660378214E+02  0.85113957786E+02  0.41800000000E+01 0.  1.
        -11    1    1    2    0    0  0.27269817390E+02  0.70458848266E+01  0.70167528566E+01  0.29026233895E+02  0.00000000000E+00 0.  1.
         11    1    1    2    0    0  0.71511731379E+02 -0.15262055490E+03 -0.52859293200E+01  0.16862651794E+03  0.00000000000E+00 0. -1.
</event>
<event>
 7    1  0.3045223E-009  0.8580439E+02  0.7561462E-02  0.1313342E+00
          2   -1    0    0  501    0  0.00000000000E+00  0.00000000000E+00  0.88400131075E+03  0.88400131075E+03  0.00000000000E+00 0. -1.
         -2   -1    0    0    0  501 -0.00000000000E+00 -0.00000000000E+00 -0.27572783483E+02  0.27572783483E+02  0.00000000000E+00 0.  1.
         25    2    1    2    0    0  0.52866465677E+02  0.46373996471E+02  0.71400892313E+03  0.72828693441E+03  0.12509079013E+03 0.  0.
          5    1    3    3  502    0  0.43184157730E+02  0.57748181029E+01  0.65173650071E+03  0.65320453057E+03  0.41800000000E+01 0. -1.
         -5    1    3    3    0  502  0.96823079470E+01  0.40599178368E+02  0.62272422423E+02  0.75082403836E+02  0.41800000000E+01 0. -1.
        -11    1    1    2    0    0 -0.61935869472E+02 -0.34320763808E+02  0.15039038001E+03  0.16622645143E+03  0.00000000000E+00 0. -1.
         11    1    1    2    0    0  0.90694037945E+01 -0.12053232663E+02 -0.79707758766E+01  0.17060708394E+02  0.00000000000E+00 0.  1.
</event>
<event>
 7    1  0.2648915E-009  0.1657026E+03  0.7561462E-02  0.1182405E+00
         -2   -1    0    0    0  501 -0.00000000000E+00  0.00000000000E+00  0.57093558421E+02  0.57093558421E+02  0.00000000000E+00 0.  1.
          2   -1    0    0  501    0  0.00000000000E+00 -0.00000000000E+00 -0.52416565884E+03  0.52416565884E+03  0.00000000000E+00 0. -1.
         25    2    1    2    0    0 -0.13391853429E+03 -0.47121610434E+01 -0.28322563801E+03  0.33737256923E+03  0.12508840934E+03 0.  0.
          5    1    3    3  502    0 -0.51760011656E+01 -0.46185803713E+02 -0.91353676898E+02  0.10258111978E+03  0.41800000000E+01 0. -1.
         -5    1    3    3    0  502 -0.12874253313E+03  0.41473642670E+02 -0.19187196112E+03  0.23479144945E+03  0.41800000000E+01 0. -1.
        -11    1    1    2    0    0  0.10640097126E+01  0.16047716230E+02  0.83142104737E+00  0.16104427150E+02  0.00000000000E+00 0.  1.
         11    1    1    2    0    0  0.13285452458E+03 -0.11335555187E+02 -0.18467788345E+03  0.22778222088E+03  0.00000000000E+00 0. -1.
</event>
<event>
 7    1  0.2648915E-009  0.8535991E+02  0.7561462E-02  0.1314494E+00
         -2   -1    0    0    0  501 -0.00000000000E+00  0.00000000000E+00  0.99838837628E+01  0.99838837628E+01  0.00000000000E+00 0.  1.
          2   -1    0    0  501    0  0.00000000000E+00 -0.00000000000E+00 -0.16306403296E+04  0.16306403296E+04  0.00000000000E+00 0. -1.
         25    2    1    2    0    0 -0.42672265839E+02 -0.16180858310E+02 -0.12157864010E+04  0.12230565088E+04  0.12509160006E+03 0.  0.
          5    1    3    3  502    0 -0.54562676885E+02 -0.14111327305E+02 -0.21855018391E+03  0.22573850038E+03  0.41800000000E+01 0.  1.
         -5    1    3    3    0  502  0.11890411046E+02 -0.20695310049E+01 -0.99723621713E+03  0.99731800845E+03  0.41800000000E+01 0.  1.
        -11    1    1    2    0    0  0.59407660804E+02 -0.19086082846E+02 -0.22368399032E+03  0.23222419393E+03  0.00000000000E+00 0. -1.
         11    1    1    2    0    0 -0.16735394965E+02  0.35266941156E+02 -0.18118605443E+03  0.18534351055E+03  0.00000000000E+00 0.  1.
</event>
<event>
 7    1  0.2648915E-009  0.8547426E+02  0.7561462E-02  0.1314197E+00
         -2   -1    0    0    0  501 -0.00000000000E+00  0.00000000000E+00  0.93187507598E+02  0.93187507598E+02  0.00000000000E+00 0.  1.
          2   -1    0    0  501    0  0.00000000000E+00 -0.00000000000E+00 -0.14307416217E+03  0.14307416217E+03  0.00000000000E+00 0. -1.
         25    2    1    2    0    0 -0.22779991109E+02  0.24677549456E+02 -0.48434784683E+02  0.13828126703E+03  0.12509145056E+03 0.  0.
          5    1    3    3  502    0 -0.59268779050E+02  0.14160397545E+02 -0.71199741762E+02  0.93809278090E+02  0.41800000000E+01 0. -1.
         -5    1    3    3    0  502  0.36488787941E+02  0.10517151911E+02  0.22764957079E+02  0.44471988943E+02  0.41800000000E+01 0. -1.
        -11    1    1    2    0    0 -0.13981281042E+02 -0.31328532792E+02  0.32677924709E+02  0.47379319853E+02  0.00000000000E+00 0.  1.
         11    1    1    2    0    0  0.36761272151E+02  0.66509833365E+01 -0.34129794593E+02  0.50601082879E+02  0.00000000000E+00 0. -1.
</event>
<event>
 7    1  0.2648915E-009  0.2855423E+03  0.7561462E-02  0.1092700E+00
          2   -1    0    0  501    0  0.00000000000E+00  0.00000000000E+00  0.16056092496E+04  0.16056092496E+04  0.00000000000E+00 0. -1.
         -2   -1    0    0    0  501 -0.00000000000E+00 -0.00000000000E+00 -0.98057842848E+02  0.98057842848E+02  0.00000000000E+00 0.  1.
         25    2    1    2    0    0  0.26122725339E+03 -0.98037094187E+02  0.13210700951E+04  0.13559957051E+04  0.12508879419E+03 0.  0.
          5    1    3    3  502    0  0.95771762764E+02 -0.17082489825E+02  0.74093168389E+03  0.74730266599E+03  0.41800000000E+01 0. -1.
         -5    1    3    3    0  502  0.16545549062E+03 -0.80954604362E+02  0.58013841117E+03  0.60869303911E+03  0.41800000000E+01 0. -1.
        -11    1    1    2    0    0 -0.10579203486E+03  0.18155836431E+00  0.41375094532E+02  0.11359527301E+03  0.00000000000E+00 0.  1.
         11    1    1    2    0    0 -0.15543521853E+03  0.97855535823E+02  0.14510621718E+03  0.23407611436E+03  0.00000000000E+00 0. -1.
</event>
<event>
 7    1  0.2648915E-009  0.1389084E+03  0.7561462E-02  0.1214805E+00
          3   -1    0    0  501    0  0.00000000000E+00  0.00000000000E+00  0.19216398069E+02  0.19216398069E+02  0.00000000000E+00 0. -1.
         -3   -1    0    0    0  501 -0.00000000000E+00 -0.00000000000E+00 -0.15597194556E+04  0.15597194556E+04  0.00000000000E+00 0.  1.
         25    2    1    2    0    0  0.76669556437E+02  0.54689394832E+02 -0.12477095755E+04  0.12574960823E+04  0.12509221072E+03 0.  0.
          5    1    3    3  502    0 -0.67967290301E+00 -0.34306256530E+02 -0.41994579174E+03  0.42136601856E+03  0.41800000000E+01 0.  1.
         -5    1    3    3    0  502  0.77349229340E+02  0.88995651362E+02 -0.82776378381E+03  0.83613006370E+03  0.41800000000E+01 0.  1.
        -11    1    1    2    0    0 -0.32374584423E+02 -0.71023212461E+02 -0.12711777413E+03  0.14916882692E+03  0.00000000000E+00 0. -1.
         11    1    1    2    0    0 -0.44294972014E+02  0.16333817629E+02 -0.16567570783E+03  0.17227094447E+03  0.00000000000E+00 0.  1.
</event>
<event>
 7    1  0.2648915E-009  0.9092507E+02  0.7561462E-02  0.1300627E+00
          4   -1    0    0  501    0  0.00000000000E+00  0.00000000000E+00  0.19016353329E+03  0.19016353329E+03  0.00000000000E+00 0.  1.
         -4   -1    0    0    0  501 -0.00000000000E+00 -0.00000000000E+00 -0.68463771288E+02  0.68463771288E+02  0.00000000000E+00 0. -1.
         25    2    1    2    0    0 -0.35384722115E+02 -0.49551099945E+01  0.82531442155E+02  0.15405794131E+03  0.12508308704E+03 0.  0.
          5    1    3    3  502    0  0.30346401606E+02  0.39829085378E+02  0.27875250700E+02  0.57460961827E+02  0.41800000000E+01 0. -1.
         -5    1    3    3    0  502 -0.65731123721E+02 -0.44784195373E+02  0.54656191454E+02  0.96596979483E+02  0.41800000000E+01 0. -1.
        -11    1    1    2    0    0  0.31145418109E+01 -0.14127056519E+02 -0.25789209297E+02  0.29569535213E+02  0.00000000000E+00 0. -1.
         11    1    1    2    0    0  0.32270180304E+02  0.19082166513E+02  0.64957529142E+02  0.74999828053E+02  0.00000000000E+00 0.  1.
</event>
<event>
 7    1  0.2648915E-009  0.1182409E+03  0.7561462E-02  0.1246028E+00
         -2   -1    0    0    0  501 -0.00000000000E+00  0.00000000000E+00  0.26863145485E+03  0.26863145485E+03  0.00000000000E+00 0.  1.
          2   -1    0    0  501    0  0.00000000000E+00 -0.00000000000E+00 -0.67360846593E+02  0.67360846593E+02  0.00000000000E+00 0. -1.
         25    2    1    2    0    0 -0.62412521303E+02  0.30536845976E+02  0.66583244125E+02  0.15782669761E+03  0.12509243104E+03 0.  0.
          5    1    3    3  502    0  0.17646802744E+02 -0.29916711420E+02  0.41606056622E+02  0.54359503465E+02  0.41800000000E+01 0. -1.
         -5    1    3    3    0  502 -0.80059324047E+02  0.60453557397E+02  0.24977187503E+02  0.10346719415E+03  0.41800000000E+01 0. -1.
        -11    1    1    2    0    0  0.13854967089E+02 -0.47636168111E+02  0.11082824199E+03  0.12142513681E+03  0.00000000000E+00 0.  1.
         11    1    1    2    0    0  0.48557554214E+02  0.17099322134E+02  0.23859122136E+02  0.56740467022E+02  0.00000000000E+00 0. -1.
</event>
<event>
 7    1  0.2648915E-009  0.1257932E+03  0.7561462E-02  0.1233835E+00
         -1   -1    0    0    0  501 -0.00000000000E+00  0.00000000000E+00  0.21573653563E+02  0.21573653563E+02  0.00000000000E+00 0.  1.
          1   -1    0    0  501    0  0.00000000000E+00 -0.00000000000E+00 -0.97564947671E+03  0.97564947671E+03  0.00000000000E+00 0. -1.
         25    2    1    2    0    0 -0.62624229631E+01 -0.71956569372E+02 -0.72755065680E+03  0.74175200391E+03  0.12509640791E+03 0.  0.
          5    1    3    3  502    0  0.16804129377E+02 -0.10115211622E+03 -0.60387191581E+03  0.61252991150E+03  0.41800000000E+01 0.  1.
         -5    1    3    3    0  502 -0.23066552340E+02  0.29195546848E+02 -0.12367874099E+03  0.12922209240E+03  0.41800000000E+01 0.  1.
        -11    1    1    2    0    0  0.45720315506E+02  0.39892659027E+02 -0.16411198386E+03  0.17497003955E+03  0.00000000000E+00 0. -1.
         11    1    1    2    0    0 -0.39457892543E+02  0.32063910345E+02 -0.62413182492E+02  0.80501086821E+02  0.00000000000E+00 0.  1.
</event>
<event>
 7    1  0.2648915E-009  0.1107086E+03  0.7561462E-02  0.1259263E+00
          1   -1    0    0  501    0  0.00000000000E+00  0.00000000000E+00  0.13598915988E+03  0.13598915988E+03  0.00000000000E+00 0. -1.
         -1   -1    0    0    0  501 -0.00000000000E+00 -0.00000000000E+00 -0.16925714885E+03  0.16925714885E+03  0.00000000000E+00 0.  1.
         25    2    1    2    0    0 -0.62721046585E+02 -0.52783739356E+02  0.48377936980E+02  0.15718969636E+03  0.12509245792E+03 0.  0.
          5    1    3    3  502    0 -0.31929890068E+02  0.24926185514E+02  0.60186377680E+02  0.72668459887E+02  0.41800000000E+01 0.  1.
         -5    1    3    3    0  502 -0.30791156517E+02 -0.77709924869E+02 -0.11808440700E+02  0.84521236471E+02  0.41800000000E+01 0.  1.
        -11    1    1    2    0    0  0.47560989524E+02  0.61383775123E+01 -0.86362102321E+02  0.98783298792E+02  0.00000000000E+00 0.  1.
         11    1    1    2    0    0  0.15160057061E+02  0.46645361843E+02  0.47161763652E+01  0.49273313579E+02  0.00000000000E+00 0. -1.
</event>
<event>
 7    1  0.2648915E-009  0.1030967E+03  0.7561462E-02  0.1273916E+00
         -2   -1    0    0    0  501 -0.00000000000E+00  0.00000000000E+00  0.41554373580E+03  0.41554373580E+03  0.00000000000E+00 0.  1.
          2   -1    0    0  501    0  0.00000000000E+00 -0.00000000000E+00 -0.41075800023E+02  0.41075800023E+02  0.00000000000E+00 0. -1.
         25    2    1    2    0    0  0.74863233124E+02 -0.14641768480E+02  0.15126976213E+03  0.21059572752E+03  0.12509650058E+03 0.  0.
          5    1    3    3  502    0  0.47974425870E+02 -0.47574007798E+02  0.15355579328E+03  0.16781443861E+03  0.41800000000E+01 0. -1.
         -5    1    3    3    0  502  0.26888807254E+02  0.32932239319E+02 -0.22860311552E+01  0.42781288907E+02  0.41800000000E+01 0. -1.
        -11    1    1    2    0    0  0.42572127180E+01 -0.11652058483E+02  0.68606091537E+01  0.14176116710E+02  0.00000000000E+00 0.  1.
         11    1    1    2    0    0 -0.79120445842E+02  0.26293826962E+02  0.21633756450E+03  0.23184769160E+03  0.00000000000E+00 0. -1.
</event>
<event>
 7    1  0.2648915E-009  0.9374203E+02  0.7561462E-02  0.1294035E+00
          1   -1    0    0  501    0  0.00000000000E+00  0.00000000000E+00  0.18863910815E+03  0.18863910815E+03  0.00000000000E+00 0. -1.
         -1   -1    0    0    0  501 -0.00000000000E+00 -0.00000000000E+00 -0.54026084402E+02  0.54026084402E+02  0.00000000000E+00 0.  1.
         25    2    1    2    0    0 -0.14498463156E+02 -0.15912166236E+01  0.78171773940E+02  0.14822705951E+03  0.12509075716E+03 0.  0.
          5    1    3    3  502    0 -0.40561145346E+02  0.45344319264E+02  0.71489101059E+02  0.93965300891E+02  0.41800000000E+01 0.  1.
         -5    1    3    3    0  502  0.26062682190E+02 -0.46935535887E+02  0.66826728804E+01  0.54261758622E+02  0.41800000000E+01 0.  1.
        -11    1    1    2    0    0 -0.19083687886E+02 -0.23833656789E+02  0.10938777725E+02  0.32432810507E+02  0.00000000000E+00 0.  1.
         11    1    1    2    0    0  0.33582151043E+02  0.25424873412E+02  0.45502472085E+02  0.62005322534E+02  0.00000000000E+00 0. -1.
</event>
<event>
 7    1  0.2648915E-009  0.8054626E+02  0.7561462E-02  0.1327508E+00
         -2   -1    0    0    0  501 -0.00000000000E+00  0.00000000000E+00  0.16346870541E+03  0.16346870541E+03  0.00000000000E+00 0. -1.
          2   -1    0    0  501    0  0.00000000000E+00 -0.00000000000E+00 -0.95792639546E+02  0.95792639546E+02  0.00000000000E+00 0.  1.
         25    2    1    2    0    0  0.35135169272E+02  0.42383974223E+01  0.90994135655E+02  0.15868399735E+03  0.12509290211E+03 0.  0.
          5    1    3    3  502    0  0.49824363613E+02  0.41259560081E+02  0.98521131151E+02  0.11793516944E+03  0.41800000000E+01 0.  1.
         -5    1    3    3    0  502 -0.14689194341E+02 -0.37021162659E+02 -0.75269954957E+01  0.40748827912E+02  0.41800000000E+01 0.  1.
        -11    1    1    2    0    0 -0.10778993811E+02 -0.23049358519E+02 -0.52389993025E+02  0.58242347179E+02  0.00000000000E+00 0.  1.
         11    1    1    2    0    0 -0.24356175461E+02  0.18810961097E+02  0.29071923235E+02  0.42335000426E+02  0.00000000000E+00 0. -1.
</event>
<event>
 7    1  0.2648915E-009  0.1098803E+03  0.7561462E-02  0.1260792E+00
          1   -1    0    0  501    0  0.00000000000E+00  0.00000000000E+00  0.18059560577E+03  0.18059560577E+03  0.00000000000E+00 0. -1.
         -1   -1    0    0    0  501 -0.00000000000E+00 -0.00000000000E+00 -0.91195048257E+02  0.91195048257E+02  0.00000000000E+00 0.  1.
         25    2    1    2    0    0 -0.44844647815E+02 -0.33845250507E+02  0.61063958789E+01  0.13726762259E+03  0.12509423936E+03 0.  0.
          5    1    3    3  502    0 -0.31993404843E+02 -0.70099172793E+02  0.39018734151E+02  0.86471995435E+02  0.41800000000E+01 0.  1.
         -5    1    3    3    0  502 -0.12851242972E+02  0.36253922286E+02 -0.32912338273E+02  0.50795627151E+02  0.41800000000E+01 0.  1.
        -11    1    1    2    0    0  0.43329329772E+02 -0.21614420774E+02  0.51013855087E+02  0.70335107981E+02  0.00000000000E+00 0. -1.
         11    1    1    2    0    0  0.15153180428E+01  0.55459671281E+02  0.32280306548E+02  0.64187923461E+02  0.00000000000E+00 0.  1.
</event>
<event>
 7    1  0.2648915E-009  0.1090473E+03  0.7561462E-02  0.1262344E+00
         -1   -1    0    0    0  501 -0.00000000000E+00  0.00000000000E+00  0.19555262709E+03  0.19555262709E+03  0.00000000000E+00 0.  1.
          1   -1    0    0  501    0  0.00000000000E+00 -0.00000000000E+00 -0.65074701332E+02  0.65074701332E+02  0.00000000000E+00 0. -1.
         25    2    1    2    0    0  0.18884628538E+02 -0.25560087882E+02  0.63661847510E+02  0.14391031253E+03  0.12508956765E+03 0.  0.
          5    1    3    3  502    0  0.62138233965E+02 -0.45374983330E+02  0.56650328719E+02  0.95638806854E+02  0.41800000000E+01 0.  1.
         -5    1    3    3    0  502 -0.43253605427E+02  0.19814895448E+02  0.70115187907E+01  0.48271505672E+02  0.41800000000E+01 0.  1.
        -11    1    1    2    0    0  0.22595530673E+02  0.42769404071E+02  0.47619351226E+02  0.67877702835E+02  0.00000000000E+00 0.  1.
         11    1    1    2    0    0 -0.41480159211E+02 -0.17209316189E+02  0.19196727019E+02  0.48839313059E+02  0.00000000000E+00 0. -1.
</event>
<event>
 7    1  0.2648915E-009  0.9380530E+02  0.7561462E-02  0.1293890E+00
          2   -1    0    0  501    0  0.00000000000E+00  0.00000000000E+00  0.85651819822E+02  0.85651819822E+02  0.00000000000E+00 0. -1.
         -2   -1    0    0    0  501 -0.00000000000E+00 -0.00000000000E+00 -0.21416655741E+03  0.21416655741E+03  0.00000000000E+00 0.  1.
         25    2    1    2    0    0 -0.68953135453E+02  0.16495331569E+02 -0.11205535538E+03  0.18229156786E+03  0.12508869730E+03 0.  0.
          5    1    3    3  502    0 -0.31491188366E+02  0.35881818625E+02 -0.12825328993E+03  0.13691449387E+03  0.41800000000E+01 0. -1.
         -5    1    3    3    0  502 -0.37461947087E+02 -0.19386487056E+02  0.16197934559E+02  0.45377073990E+02  0.41800000000E+01 0. -1.
        -11    1    1    2    0    0  0.57518294127E+01 -0.31763457147E+02 -0.37225186676E+02  0.49271850732E+02  0.00000000000E+00 0.  1.
         11    1    1    2    0    0  0.63201306040E+02  0.15268125579E+02  0.20765804464E+02  0.68254958640E+02  0.00000000000E+00 0. -1.
</event>
<event>
 7    1  0.2648915E-009  0.1291401E+03  0.7561462E-02  0.1228737E+00
         -2   -1    0    0    0  501 -0.00000000000E+00  0.00000000000E+00  0.33168126479E+02  0.33168126479E+02  0.00000000000E+00 0.  1.
          2   -1    0    0  501    0  0.00000000000E+00 -0.00000000000E+00 -0.73900832059E+03  0.73900832059E+03  0.00000000000E+00 0. -1.
         25    2    1    2    0    0  0.55726425426E+02  0.91807767965E+02 -0.28717508688E+03  0.33113651912E+03  0.12509101893E+03 0.  0.
          5    1    3    3  502    0 -0.21351176076E+00 -0.68350289726E+01 -0.16193369863E+03  0.16213191654E+03  0.41800000000E+01 0.  1.
         -5    1    3    3    0  502  0.55939937187E+02  0.98642796938E+02 -0.12524138825E+03  0.16900460257E+03  0.41800000000E+01 0.  1.
        -11    1    1    2    0    0 -0.41210221227E+02  0.25795154539E+01 -0.95114078038E+02  0.10369003845E+03  0.00000000000E+00 0.  1.
         11    1    1    2    0    0 -0.14516204200E+02 -0.94387283419E+02 -0.32355102919E+03  0.33734988950E+03  0.00000000000E+00 0. -1.
</event>
<event>
 7    1  0.2648915E-009  0.1315752E+03  0.7561462E-02  0.1225137E+00
         -2   -1    0    0    0  501 -0.00000000000E+00  0.00000000000E+00  0.30784666865E+03  0.30784666865E+03  0.00000000000E+00 0.  1.
          2   -1    0    0  501    0  0.00000000000E+00 -0.00000000000E+00 -0.15381220487E+03  0.15381220487E+03  0.00000000000E+00 0. -1.
         25    2    1    2    0    0 -0.73808486548E+02  0.58836548259E+02  0.25233463537E+03  0.29704121397E+03  0.12510508579E+03 0.  0.
          5    1    3    3  502    0  0.57949309855E+01 -0.20534562696E+02  0.12608884540E+03  0.12794967302E+03  0.41800000000E+01 0. -1.
         -5    1    3    3    0  502 -0.79603417533E+02  0.79371110955E+02  0.12624578997E+03  0.16909154095E+03  0.41800000000E+01 0. -1.
        -11    1    1    2    0    0  0.66014744332E+02  0.34895412589E+01 -0.68149195398E+02  0.94944384778E+02  0.00000000000E+00 0. -1.
         11    1    1    2    0    0  0.77937422158E+01 -0.62326089518E+02 -0.30150976186E+02  0.69673274771E+02  0.00000000000E+00 0.  1.
</event>
<event>
 7    1  0.2648915E-009  0.7478916E+02  0.7561462E-02  0.1344525E+00
         -1   -1    0    0    0  501 -0.00000000000E+00  0.00000000000E+00  0.11550931263E+02  0.11550931263E+02  0.00000000000E+00 0.  1.
          1   -1    0    0  501    0  0.00000000000E+00 -0.00000000000E+00 -0.15048667553E+04  0.15048667553E+04  0.00000000000E+00 0. -1.
         25    2    1    2    0    0  0.37639137590E+02 -0.38657985407E+02 -0.11216162925E+04  0.11298595105E+04  0.12509301098E+03 0.  0.
          5    1    3    3  502    0  0.31077794376E+01 -0.82358527759E+01 -0.28690649041E+01  0.10158321584E+02  0.41800000000E+01 0.  1.
         -5    1    3    3    0  502  0.34531358152E+02 -0.30422132631E+02 -0.11187472276E+04  0.11197011889E+04  0.41800000000E+01 0.  1.
        -11    1    1    2    0    0 -0.52948041654E+02  0.98348758911E+00 -0.29528911707E+03  0.30000020837E+03  0.00000000000E+00 0.  1.
         11    1    1    2    0    0  0.15308904064E+02  0.37674497818E+02 -0.76410414512E+02  0.86557967717E+02  0.00000000000E+00 0. -1.
</event>
<event>
 7    1  0.2648915E-009  0.1235173E+03  0.7561462E-02  0.1237405E+00
          2   -1    0    0  501    0  0.00000000000E+00  0.00000000000E+00  0.73448974156E+03  0.73448974156E+03  0.00000000000E+00 0. -1.
         -2   -1    0    0    0  501 -0.00000000000E+00 -0.00000000000E+00 -0.25402608660E+02  0.25402608660E+02  0.00000000000E+00 0.  1.
         25    2    1    2    0    0  0.66384542678E+02  0.19569874036E+02  0.51469127465E+03  0.53417646967E+03  0.12508998790E+03 0.  0.
          5    1    3    3  502    0  0.53340944941E+02 -0.45777408236E+02  0.33878097517E+03  0.34602145750E+03  0.41800000000E+01 0. -1.
         -5    1    3    3    0  502  0.13043597737E+02  0.65347282272E+02  0.17591029948E+03  0.18815501217E+03  0.41800000000E+01 0. -1.
        -11    1    1    2    0    0  0.20837392475E+02 -0.48888961875E+01  0.16429978635E+02  0.26982261378E+02  0.00000000000E+00 0.  1.
         11    1    1    2    0    0 -0.87221935154E+02 -0.14680977848E+02  0.17796587961E+03  0.19873361917E+03  0.00000000000E+00 0. -1.
</event>
<event>
 7    1  0.2648915E-009  0.1578272E+03  0.7561462E-02  0.1191172E+00
         -1   -1    0    0    0  501 -0.00000000000E+00  0.00000000000E+00  0.10056726259E+03  0.10056726259E+03  0.00000000000E+00 0.  1.
          1   -1    0    0  501    0  0.00000000000E+00 -0.00000000000E+00 -0.46182739345E+03  0.46182739345E+03  0.00000000000E+00 0. -1.
         25    2    1    2    0    0 -0.11593221933E+03 -0.99221773978E+02 -0.50218018827E+02  0.20360432415E+03  0.12509049320E+03 0.  0.
          5    1    3    3  502    0 -0.11349355652E+03 -0.85564097295E+02  0.91542218771E+01  0.14248955855E+03  0.41800000000E+01 0.  1.
         -5    1    3    3    0  502 -0.24386628109E+01 -0.13657676683E+02 -0.59372240704E+02  0.61114765604E+02  0.41800000000E+01 0.  1.
        -11    1    1    2    0    0  0.47948481075E+02  0.70287462710E+02 -0.24619878064E+03  0.26048651374E+03  0.00000000000E+00 0. -1.
         11    1    1    2    0    0  0.67983738255E+02  0.28934311268E+02 -0.64843331394E+02  0.98303818146E+02  0.00000000000E+00 0.  1.
</event>
<event>
 7    1  0.2648915E-009  0.1412808E+03  0.7561462E-02  0.1211616E+00
         -1   -1    0    0    0  501 -0.00000000000E+00  0.00000000000E+00  0.33494130877E+03  0.33494130877E+03  0.00000000000E+00 0.  1.
          1   -1    0    0  501    0  0.00000000000E+00 -0.00000000000E+00 -0.78391247629E+02  0.78391247629E+02  0.00000000000E+00 0. -1.
         25    2    1    2    0    0  0.11020830659E+03 -0.33923973211E+02  0.18012758008E+03  0.24777112847E+03  0.12509148732E+03 0.  0.
          5    1    3    3  502    0  0.57278965738E+02 -0.73110190292E+02  0.59815065720E+02  0.11054996304E+03  0.41800000000E+01 0. -1.
         -5    1    3    3    0  502  0.52929340850E+02  0.39186217081E+02  0.12031251436E+03  0.13722116544E+03  0.41800000000E+01 0. -1.
        -11    1    1    2    0    0 -0.54056341290E+02  0.39823286891E+02 -0.40431012751E+01  0.67263131658E+02  0.00000000000E+00 0. -1.
         11    1    1    2    0    0 -0.56151965297E+02 -0.58993136794E+01  0.80465582339E+02  0.98298296271E+02  0.00000000000E+00 0.  1.
</event>
<event>
 7    1  0.2648915E-009  0.2748495E+03  0.7561462E-02  0.1098536E+00
          2   -1    0    0  501    0  0.00000000000E+00  0.00000000000E+00  0.38874117056E+03  0.38874117056E+03  0.00000000000E+00 0. -1.
         -2   -1    0    0    0  501 -0.00000000000E+00 -0.00000000000E+00 -0.28589937805E+03  0.28589937805E+03  0.00000000000E+00 0.  1.
         25    2    1    2    0    0  0.11167834977E+03 -0.24805009847E+03 -0.10754147016E+03  0.31814163931E+03  0.12509208489E+03 0.  0.
          5    1    3    3  502    0  0.10235259271E+03 -0.20010853151E+03 -0.30550874483E+02  0.22687068111E+03  0.41800000000E+01 0.  1.
         -5    1    3    3    0  502  0.93257570609E+01 -0.47941566963E+02 -0.76990595682E+02  0.91270958202E+02  0.41800000000E+01 0.  1.
        -11    1    1    2    0    0 -0.20901720292E+02  0.10040104489E+03  0.31174987899E+02  0.10718736678E+03  0.00000000000E+00 0.  1.
         11    1    1    2    0    0 -0.90776629478E+02  0.14764905358E+03  0.17920827478E+03  0.24931154252E+03  0.00000000000E+00 0. -1.
</event>
<event>
 7    1  0.2648915E-009  0.2889888E+03  0.7561462E-02  0.1090878E+00
          2   -1    0    0  501    0  0.00000000000E+00  0.00000000000E+00  0.67811663214E+03  0.67811663214E+03  0.00000000000E+00 0. -1.
         -2   -1    0    0    0  501 -0.00000000000E+00 -0.00000000000E+00 -0.14985080983E+03  0.14985080983E+03  0.00000000000E+00 0.  1.
         25    2    1    2    0    0 -0.15017526088E+03 -0.23101948926E+03  0.11673158482E+03  0.32433948497E+03  0.12508886928E+03 0.  0.
          5    1    3    3  502    0 -0.14601310694E+03 -0.24552926382E+03  0.10359782692E+03  0.30389871492E+03  0.41800000000E+01 0.  1.
         -5    1    3    3    0  502 -0.41621539412E+01  0.14509774564E+02  0.13133757904E+02  0.20440770044E+02  0.41800000000E+01 0.  1.
        -11    1    1    2    0    0  0.71175099609E+02  0.13180009155E+03  0.14509166280E+03  0.20853956351E+03  0.00000000000E+00 0. -1.
         11    1    1    2    0    0  0.79000161272E+02  0.99219397708E+02  0.26644257469E+03  0.29508839348E+03  0.00000000000E+00 0.  1.
</event>
<event>
 7    1  0.2648915E-009  0.7035097E+02  0.7561462E-02  0.1358904E+00
         -2   -1    0    0    0  501 -0.00000000000E+00  0.00000000000E+00  0.23896680196E+02  0.23896680196E+02  0.00000000000E+00 0.  1.
          2   -1    0    0  501    0  0.00000000000E+00 -0.00000000000E+00 -0.57479227666E+03  0.57479227666E+03  0.00000000000E+00 0. -1.
         25    2    1    2    0    0  0.15697202145E+02  0.15246942540E+02 -0.41157498129E+03  0.43071806181E+03  0.12508082240E+03 0.  0.
          5    1    3    3  502    0  0.44578882383E+02 -0.43774118357E+01 -0.38236354646E+03  0.38500102928E+03  0.41800000000E+01 0. -1.
         -5    1    3    3    0  502 -0.28881680238E+02  0.19624354375E+02 -0.29211434832E+02  0.45717032526E+02  0.41800000000E+01 0. -1.
        -11    1    1    2    0    0 -0.57851732802E+01 -0.36574064007E+02 -0.13962433028E+03  0.14445097436E+03  0.00000000000E+00 0. -1.
         11    1    1    2    0    0 -0.99120288648E+01  0.21327121468E+02  0.30371510440E+00  0.23519920688E+02  0.00000000000E+00 0.  1.
</event>
<event>
 7    1  0.2648915E-009  0.8686263E+02  0.7561462E-02  0.1310632E+00
          2   -1    0    0  501    0  0.00000000000E+00  0.00000000000E+00  0.10751418379E+04  0.10751418379E+04  0.00000000000E+00 0. -1.
         -2   -1    0    0    0  501 -0.00000000000E+00 -0.00000000000E+00 -0.17642067820E+02  0.17642067820E+02  0.00000000000E+00 0.  1.
         25    2    1    2    0    0  0.17124764586E+02 -0.53066000405E+02  0.84208910864E+03  0.85315285767E+03  0.12508586526E+03 0.  0.
          5    1    3    3  502    0  0.39050836686E+02  0.68483877349E+01  0.91028365413E+02  0.99375570289E+02  0.41800000000E+01 0. -1.
         -5    1    3    3    0  502 -0.21926072100E+02 -0.59914388140E+02  0.75106074323E+03  0.75377728738E+03  0.41800000000E+01 0. -1.
        -11    1    1    2    0    0 -0.27406767187E+02  0.16618640232E+02  0.14493880507E+02  0.35176450403E+02  0.00000000000E+00 0.  1.
         11    1    1    2    0    0  0.10282002601E+02  0.36447360172E+02  0.20091678092E+03  0.20445459765E+03  0.00000000000E+00 0. -1.
</event>
<event>
 7    1  0.2648915E-009  0.4972507E+03  0.7561462E-02  0.1014499E+00
          1   -1    0    0  501    0  0.00000000000E+00  0.00000000000E+00  0.18086573184E+04  0.18086573184E+04  0.00000000000E+00 0. -1.
         -1   -1    0    0    0  501 -0.00000000000E+00 -0.00000000000E+00 -0.17180677010E+03  0.17180677010E+03  0.00000000000E+00 0.  1.
         25    2    1    2    0    0  0.47639353181E+03 -0.13281657188E+03  0.12366494982E+04  0.13377373423E+04  0.12509267238E+03 0.  0.
          5    1    3    3  502    0  0.17431185135E+03 -0.82328032913E+02  0.34896869560E+03  0.39869681392E+03  0.41800000000E+01 0. -1.
         -5    1    3    3    0  502  0.30208168046E+03 -0.50488538967E+02  0.88768080262E+03  0.93904052839E+03  0.41800000000E+01 0. -1.
        -11    1    1    2    0    0 -0.45973438304E+02  0.21761505615E+02  0.11306316271E+02  0.52105210332E+02  0.00000000000E+00 0.  1.
         11    1    1    2    0    0 -0.43042009351E+03  0.11105506626E+03  0.38889473385E+03  0.59062153589E+03  0.00000000000E+00 0. -1.
</event>
<event>
 7    1  0.2648915E-009  0.1586367E+03  0.7561462E-02  0.1190245E+00
         -2   -1    0    0    0  501 -0.00000000000E+00  0.00000000000E+00  0.14137046447E+02  0.14137046447E+02  0.00000000000E+00 0.  1.
          2   -1    0    0  501    0  0.00000000000E+00 -0.00000000000E+00 -0.18036693763E+04  0.18036693763E+04  0.00000000000E+00 0. -1.
         25    2    1    2    0    0  0.10004744515E+03  0.55274237629E+02 -0.10539506831E+04  0.10674851335E+04  0.12509090773E+03 0.  0.
          5    1    3    3  502    0  0.83928765457E+01  0.74985296184E+02 -0.45936324249E+03  0.46553764185E+03  0.41800000000E+01 0.  1.
         -5    1    3    3    0  502  0.91654568608E+02 -0.19711058555E+02 -0.59458744066E+03  0.60194749170E+03  0.41800000000E+01 0.  1.
        -11    1    1    2    0    0 -0.19261125410E+02 -0.63783015898E+02 -0.31581040688E+03  0.32276226106E+03  0.00000000000E+00 0.  1.
         11    1    1    2    0    0 -0.80786319744E+02  0.85087782689E+01 -0.41977123980E+03  0.42755902812E+03  0.00000000000E+00 0. -1.
</event>
<event>
 7    1  0.2648915E-009  0.1018515E+03  0.7561462E-02  0.1276450E+00
         -1   -1    0    0    0  501 -0.00000000000E+00  0.00000000000E+00  0.34134505166E+02  0.34134505166E+02  0.00000000000E+00 0.  1.
          1   -1    0    0  501    0  0.00000000000E+00 -0.00000000000E+00 -0.38773038627E+03  0.38773038627E+03  0.00000000000E+00 0. -1.
         25    2    1    2    0    0  0.17944103255E+02  0.23444750243E+02 -0.24538263278E+03  0.27700432459E+03  0.12508841759E+03 0.  0.
          5    1    3    3  502    0 -0.33025294004E+02  0.42452782598E+02 -0.19642976564E+03  0.20370329900E+03  0.41800000000E+01 0.  1.
         -5    1    3    3    0  502  0.50969397259E+02 -0.19008032355E+02 -0.48952867137E+02  0.73301025586E+02  0.41800000000E+01 0.  1.
        -11    1    1    2    0    0  0.32327442646E+02  0.11122319777E+02 -0.49731214194E+02  0.60348680271E+02  0.00000000000E+00 0. -1.
         11    1    1    2    0    0 -0.50271545901E+02 -0.34567070020E+02 -0.58482034134E+02  0.84511886581E+02  0.00000000000E+00 0.  1.
</event>
<event>
 7    1  0.2648915E-009  0.1194179E+03  0.7561462E-02  0.1244060E+00
          3   -1    0    0  501    0  0.00000000000E+00  0.00000000000E+00  0.16224300099E+03  0.16224300099E+03  0.00000000000E+00 0. -1.
         -3   -1    0    0    0  501 -0.00000000000E+00 -0.00000000000E+00 -0.11271414571E+03  0.11271414571E+03  0.00000000000E+00 0.  1.
         25    2    1    2    0    0 -0.69623885465E+02  0.28695509295E+02  0.53536347822E+02  0.15551333237E+03  0.12508932139E+03 0.  0.
          5    1    3    3  502    0 -0.75532519742E+02  0.61180740394E+02  0.68535671086E+02  0.11900779447E+03  0.41800000000E+01 0. -1.
         -5    1    3    3    0  502  0.59086342768E+01 -0.32485231099E+02 -0.14999323264E+02  0.36505537895E+02  0.41800000000E+01 0. -1.
        -11    1    1    2    0    0  0.24723519572E+02 -0.52070279249E+02 -0.27231208635E+02  0.63750334311E+02  0.00000000000E+00 0.  1.
         11    1    1    2    0    0  0.44900365894E+02  0.23374769955E+02  0.23223716092E+02  0.55693480022E+02  0.00000000000E+00 0. -1.
</event>
<event>
 7    1  0.2648915E-009  0.2794482E+03  0.7561462E-02  0.1095991E+00
         -1   -1    0    0    0  501 -0.00000000000E+00  0.00000000000E+00  0.99984875684E+02  0.99984875684E+02  0.00000000000E+00 0.  1.
          1   -1    0    0  501    0  0.00000000000E+00 -0.00000000000E+00 -0.88918207254E+03  0.88918207254E+03  0.00000000000E+00 0. -1.
         25    2    1    2    0    0  0.27878579438E+02 -0.26175381536E+03 -0.25553426503E+03  0.38760167179E+03  0.12508005567E+03 0.  0.
          5    1    3    3  502    0 -0.42315034194E+02 -0.16418823903E+03 -0.16908166321E+03  0.23948783098E+03  0.41800000000E+01 0. -1.
         -5    1    3    3    0  502  0.70193613632E+02 -0.97565576326E+02 -0.86452601823E+02  0.14811384081E+03  0.41800000000E+01 0. -1.
        -11    1    1    2    0    0 -0.30211282808E+02  0.59236047295E+02 -0.20495792556E+03  0.21547478311E+03  0.00000000000E+00 0.  1.
         11    1    1    2    0    0  0.23327033696E+01  0.20251776806E+03 -0.32870500627E+03  0.38609049332E+03  0.00000000000E+00 0. -1.
</event>
<event>
 7    1  0.2648915E-009  0.1008507E+03  0.7561462E-02  0.1278517E+00
          2   -1    0    0  501    0  0.00000000000E+00  0.00000000000E+00  0.61078652349E+03  0.61078652349E+03  0.00000000000E+00 0. -1.
         -2   -1    0    0    0  501 -0.00000000000E+00 -0.00000000000E+00 -0.30192663469E+02  0.30192663469E+02  0.00000000000E+00 0.  1.
         25    2    1    2    0    0 -0.26652520611E+02 -0.11181865855E+02  0.49511377901E+03  0.51148894411E+03  0.12509154568E+03 0.  0.
          5    1    3    3  502    0  0.44563710679E+02 -0.18258361667E+01  0.30394986287E+03  0.30723321683E+03  0.41800000000E+01 0.  1.
         -5    1    3    3    0  502 -0.71216231290E+02 -0.93560296882E+01  0.19116391614E+03  0.20425572728E+03  0.41800000000E+01 0.  1.
        -11    1    1    2    0    0  0.38043244448E+02 -0.25992372018E+02  0.14058962748E+02  0.48172048792E+02  0.00000000000E+00 0.  1.
         11    1    1    2    0    0 -0.11390723837E+02  0.37174237873E+02  0.71421118259E+02  0.81318194055E+02  0.00000000000E+00 0. -1.
</event>
<event>
 7    1  0.2648915E-009  0.2714166E+03  0.7561462E-02  0.1100472E+00
          1   -1    0    0  501    0  0.00000000000E+00  0.00000000000E+00  0.10833454741E+04  0.10833454741E+04  0.00000000000E+00 0. -1.
         -1   -1    0    0    0  501 -0.00000000000E+00 -0.00000000000E+00 -0.77782433655E+02  0.77782433655E+02  0.00000000000E+00 0.  1.
         25    2    1    2    0    0  0.25401401227E+03  0.66689689725E+02  0.62815702052E+03  0.69224277824E+03  0.12509271944E+03 0.  0.
          5    1    3    3  502    0  0.41591059072E+02  0.52727061860E+02  0.82151621076E+02  0.10619002068E+03  0.41800000000E+01 0. -1.
         -5    1    3    3    0  502  0.21242295320E+03  0.13962627865E+02  0.54600539944E+03  0.58605275756E+03  0.41800000000E+01 0. -1.
        -11    1    1    2    0    0 -0.16097842535E+03 -0.41740535166E+02  0.15855162912E+03  0.22977150563E+03  0.00000000000E+00 0.  1.
         11    1    1    2    0    0 -0.93035586923E+02 -0.24949154559E+02  0.21885439079E+03  0.23911362386E+03  0.00000000000E+00 0. -1.
</event>
<event>
 7    1  0.2648915E-009  0.1150766E+03  0.7561462E-02  0.1251447E+00
          2   -1    0    0  501    0  0.00000000000E+00  0.00000000000E+00  0.95835757884E+03  0.95835757884E+03  0.00000000000E+00 0. -1.
         -2   -1    0    0    0  501 -0.00000000000E+00 -0.00000000000E+00 -0.22676983219E+02  0.22676983219E+02  0.00000000000E+00 0.  1.
         25    2    1    2    0    0 -0.47776948330E+02 -0.19508469512E+02  0.78947690520E+03  0.80098750640E+03  0.12507591448E+03 0.  0.
          5    1    3    3  502    0  0.32582602397E+02  0.22573910844E+02  0.34750123164E+03  0.34977962465E+03  0.41800000000E+01 0.  1.
         -5    1    3    3    0  502 -0.80359550727E+02 -0.42082380356E+02  0.44197567356E+03  0.45120788174E+03  0.41800000000E+01 0.  1.
        -11    1    1    2    0    0  0.25962738703E+02 -0.33373257981E+02  0.34593337738E+02  0.54630917666E+02  0.00000000000E+00 0.  1.
         11    1    1    2    0    0  0.21814209627E+02  0.52881727493E+02  0.11161035268E+03  0.12541613800E+03  0.00000000000E+00 0. -1.
</event>
<event>
 7    1  0.2648915E-009  0.1810144E+03  0.7561462E-02  0.1166825E+00
         -2   -1    0    0    0  501 -0.00000000000E+00  0.00000000000E+00  0.44341279823E+02  0.44341279823E+02  0.00000000000E+00 0.  1.
          2   -1    0    0  501    0  0.00000000000E+00 -0.00000000000E+00 -0.90780503638E+03  0.90780503638E+03  0.00000000000E+00 0. -1.
         25    2    1    2    0    0  0.97577339529E+02  0.12524420195E+03 -0.58052590646E+03  0.61470780917E+03  0.12509162749E+03 0.  0.
          5    1    3    3  502    0  0.38415505332E+02  0.13369105486E+03 -0.45133438275E+03  0.47230207141E+03  0.41800000000E+01 0.  1.
         -5    1    3    3    0  502  0.59161834197E+02 -0.84468529095E+01 -0.12919152371E+03  0.14240573776E+03  0.41800000000E+01 0.  1.
        -11    1    1    2    0    0 -0.78183948780E+02 -0.71980618517E+02 -0.10001671881E+03  0.14593588774E+03  0.00000000000E+00 0.  1.
         11    1    1    2    0    0 -0.19393390749E+02 -0.53263583437E+02 -0.18292113128E+03  0.19150261929E+03  0.00000000000E+00 0. -1.
</event>
<event>
 7    1  0.2648915E-009  0.9683104E+02  0.7561462E-02  0.1287105E+00
         -1   -1    0    0    0  501 -0.00000000000E+00  0.00000000000E+00  0.16122359637E+03  0.16122359637E+03  0.00000000000E+00 0.  1.
          1   -1    0    0  501    0  0.00000000000E+00 -0.00000000000E+00 -0.12165339914E+03  0.12165339914E+03  0.00000000000E+00 0. -1.
         25    2    1    2    0    0  0.78384210888E+02  0.19050277390E+01 -0.19211113989E+02  0.14887693418E+03  0.12509021138E+03 0.  0.
          5    1    3    3  502    0  0.42758059714E+02  0.28716973295E+02  0.46392379697E+02  0.69445241160E+02  0.41800000000E+01 0.  1.
         -5    1    3    3    0  502  0.35626151174E+02 -0.26811945556E+02 -0.65603493687E+02  0.79431693019E+02  0.41800000000E+01 0.  1.
        -11    1    1    2    0    0 -0.23803305094E+01  0.18383860573E+02 -0.16720781380E+02  0.24964311183E+02  0.00000000000E+00 0. -1.
         11    1    1    2    0    0 -0.76003880379E+02 -0.20288888312E+02  0.75502092599E+02  0.10903575014E+03  0.00000000000E+00 0.  1.
</event>
<event>
 7    1  0.2648915E-009  0.8953213E+02  0.7561462E-02  0.1303989E+00
         -3   -1    0    0    0  501 -0.00000000000E+00  0.00000000000E+00  0.66844808425E+02  0.66844808425E+02  0.00000000000E+00 0.  1.
          3   -1    0    0  501    0  0.00000000000E+00 -0.00000000000E+00 -0.19707871470E+03  0.19707871470E+03  0.00000000000E+00 0. -1.
         25    2    1    2    0    0  0.27187135418E+02 -0.11612516879E+02 -0.10042179805E+03  0.16311663518E+03  0.12509399774E+03 0.  0.
          5    1    3    3  502    0 -0.32338176709E+02 -0.34495124126E+02 -0.85027526906E+02  0.97379792530E+02  0.41800000000E+01 0. -1.
         -5    1    3    3    0  502  0.59525312127E+02  0.22882607247E+02 -0.15394271143E+02  0.65736842655E+02  0.41800000000E+01 0. -1.
        -11    1    1    2    0    0 -0.45943254879E+02  0.15587257717E+02  0.16047699292E+02  0.51100625481E+02  0.00000000000E+00 0.  1.
         11    1    1    2    0    0  0.18756119461E+02 -0.39747408381E+01 -0.45859807517E+02  0.49706262457E+02  0.00000000000E+00 0. -1.
</event>
<event>
 7    1  0.2648915E-009  0.1055517E+03  0.7561462E-02  0.1269036E+00
          3   -1    0    0  501    0  0.00000000000E+00  0.00000000000E+00  0.23289438953E+03  0.23289438953E+03  0.00000000000E+00 0. -1.
         -3   -1    0    0    0  501 -0.00000000000E+00 -0.00000000000E+00 -0.18938574958E+03  0.18938574958E+03  0.00000000000E+00 0.  1.
         25    2    1    2    0    0 -0.23944711163E+02 -0.67961524266E+02 -0.14197357368E+03  0.20247349120E+03  0.12508757350E+03 0.  0.
          5    1    3    3  502    0 -0.45210571678E+02 -0.34479300477E+02 -0.15115221379E+03  0.16154653226E+03  0.41800000000E+01 0.  1.
         -5    1    3    3    0  502  0.21265860515E+02 -0.33482223790E+02  0.91786401155E+01  0.40926958936E+02  0.41800000000E+01 0.  1.
        -11    1    1    2    0    0 -0.59215806422E+01 -0.20239065000E+02  0.59634904547E+02  0.63253511442E+02  0.00000000000E+00 0. -1.
         11    1    1    2    0    0  0.29866291805E+02  0.88200589267E+02  0.12584730909E+03  0.15655313647E+03  0.00000000000E+00 0.  1.
</event>
<event>
 7    1  0.2648915E-009  0.8397986E+02  0.7561462E-02  0.1318122E+00
          1   -1    0    0  501    0  0.00000000000E+00  0.00000000000E+00  0.15565263309E+03  0.15565263309E+03  0.00000000000E+00 0. -1.
         -1   -1    0    0    0  501 -0.00000000000E+00 -0.00000000000E+00 -0.78123686674E+02  0.78123686674E+02  0.00000000000E+00 0.  1.
         25    2    1    2    0    0 -0.15597322680E+02  0.13297910617E+01  0.31365557753E+02  0.12991268444E+03  0.12509381498E+03 0.  0.
          5    1    3    3  502    0 -0.54626424269E+01 -0.38956767398E+02  0.65139591129E+02  0.76210950137E+02  0.41800000000E+01 0. -1.
         -5    1    3    3    0  502 -0.10134680253E+02  0.40286558460E+02 -0.33774033376E+02  0.53701734300E+02  0.41800000000E+01 0. -1.
        -11    1    1    2    0    0 -0.31162344599E+02  0.18072374208E+02  0.38390236442E+02  0.52645158225E+02  0.00000000000E+00 0.  1.
         11    1    1    2    0    0  0.46759667279E+02 -0.19402165270E+02  0.77731522230E+01  0.51218477103E+02  0.00000000000E+00 0. -1.
</event>
<event>
 7    1  0.2648915E-009  0.2136177E+03  0.7561462E-02  0.1138733E+00
         -1   -1    0    0    0  501 -0.00000000000E+00  0.00000000000E+00  0.92114983181E+02  0.92114983181E+02  0.00000000000E+00 0.  1.
          1   -1    0    0  501    0  0.00000000000E+00 -0.00000000000E+00 -0.57656223950E+03  0.57656223950E+03  0.00000000000E+00 0. -1.
         25    2    1    2    0    0 -0.90300317116E+02 -0.18218880668E+03 -0.24348357197E+03  0.34099650836E+03  0.12508980910E+03 0.  0.
          5    1    3    3  502    0 -0.50084059987E-01 -0.49258018413E+02 -0.14333752124E+03  0.15162279605E+03  0.41800000000E+01 0. -1.
         -5    1    3    3    0  502 -0.90250233056E+02 -0.13293078827E+03 -0.10014605073E+03  0.18937371231E+03  0.41800000000E+01 0. -1.
        -11    1    1    2    0    0 -0.68258100430E+01  0.62786782992E+02 -0.40830504932E+02  0.75205730727E+02  0.00000000000E+00 0.  1.
         11    1    1    2    0    0  0.97126127159E+02  0.11940202369E+03 -0.20013317941E+03  0.25247498359E+03  0.00000000000E+00 0. -1.
</event>
<event>
 7    1  0.2648915E-009  0.1327699E+03  0.7561462E-02  0.1223403E+00
          2   -1    0    0  501    0  0.00000000000E+00  0.00000000000E+00  0.94346878946E+02  0.94346878946E+02  0.00000000000E+00 0. -1.
         -2   -1    0    0    0  501 -0.00000000000E+00 -0.00000000000E+00 -0.24679038522E+03  0.24679038522E+03  0.00000000000E+00 0.  1.
         25    2    1    2    0    0  0.77548164922E+02  0.47232120817E+02 -0.14729874524E+03  0.21351470160E+03  0.12508803433E+03 0.  0.
          5    1    3    3  502    0  0.69656407569E+02 -0.18620257208E+02 -0.12323039551E+03  0.14283533132E+03  0.41800000000E+01 0. -1.
         -5    1    3    3    0  502  0.78917573527E+01  0.65852378025E+02 -0.24068349729E+02  0.70679370288E+02  0.41800000000E+01 0. -1.
        -11    1    1    2    0    0 -0.42291992590E+02  0.23098392582E+02  0.43235647518E+01  0.48382244566E+02  0.00000000000E+00 0. -1.
         11    1    1    2    0    0 -0.35256172332E+02 -0.70330513398E+02 -0.94683257791E+01  0.79240317992E+02  0.00000000000E+00 0.  1.
</event>
<event>
 7    1  0.2648915E-009  0.6469244E+02  0.7561462E-02  0.1379132E+00
         -1   -1    0    0    0  501 -0.00000000000E+00  0.00000000000E+00  0.13142037974E+02  0.13142037974E+02  0.00000000000E+00 0.  1.
          1   -1    0    0  501    0  0.00000000000E+00 -0.00000000000E+00 -0.10959036851E+04  0.10959036851E+04  0.00000000000E+00 0. -1.
         25    2    1    2    0    0 -0.96207612911E+01  0.16715854299E+02 -0.82260943993E+03  0.83228805496E+03  0.12508052180E+03 0.  0.
          5    1    3    3  502    0 -0.21236073096E+02 -0.52998444696E+01 -0.79328107791E+03  0.79359397687E+03  0.41800000000E+01 0.  1.
         -5    1    3    3    0  502  0.11615311805E+02  0.22015698769E+02 -0.29328362023E+02  0.38694078094E+02  0.41800000000E+01 0.  1.
        -11    1    1    2    0    0 -0.21766752157E+02 -0.38101659336E+02 -0.68294822086E+02  0.81177032882E+02  0.00000000000E+00 0.  1.
         11    1    1    2    0    0  0.31387513449E+02  0.21385805037E+02 -0.19185738515E+03  0.19558063527E+03  0.00000000000E+00 0. -1.
</event>
<event>
 7    1  0.2648915E-009  0.2370675E+03  0.7561462E-02  0.1121762E+00
          2   -1    0    0  501    0  0.00000000000E+00  0.00000000000E+00  0.75874361089E+03  0.75874361089E+03  0.00000000000E+00 0. -1.
         -2   -1    0    0    0  501 -0.00000000000E+00 -0.00000000000E+00 -0.83443631654E+02  0.83443631654E+02  0.00000000000E+00 0.  1.
         25    2    1    2    0    0  0.18618779023E+03  0.12884619249E+03  0.36900702942E+03  0.45064466641E+03  0.12508874072E+03 0.  0.
          5    1    3    3  502    0  0.67155210625E+02  0.71909745625E+02  0.26460257906E+03  0.28233460835E+03  0.41800000000E+01 0.  1.
         -5    1    3    3    0  502  0.11903257960E+03  0.56936446863E+02  0.10440445036E+03  0.16831005806E+03  0.41800000000E+01 0.  1.
        -11    1    1    2    0    0 -0.97512899175E+02 -0.11985235775E+03  0.18534223679E+03  0.24129877310E+03  0.00000000000E+00 0.  1.
         11    1    1    2    0    0 -0.88674891052E+02 -0.89938347351E+01  0.12095071304E+03  0.15024380304E+03  0.00000000000E+00 0. -1.
</event>
<event>
 7    1  0.2922579E-009  0.9952989E+02  0.7561462E-02  0.1281288E+00
         -1   -1    0    0    0  501 -0.00000000000E+00  0.00000000000E+00  0.20926913198E+03  0.20926913198E+03  0.00000000000E+00 0.  1.
          1   -1    0    0  501    0  0.00000000000E+00 -0.00000000000E+00 -0.12977374769E+03  0.12977374769E+03  0.00000000000E+00 0. -1.
         25    2    1    2    0    0  0.32279072325E+02  0.93169086712E+02  0.11886343270E+03  0.19874266386E+03  0.12509082131E+03 0.  0.
          5    1    3    3  502    0  0.22483747503E+02  0.43713078945E+02 -0.18244447072E+02  0.52599281569E+02  0.41800000000E+01 0.  1.
         -5    1    3    3    0  502  0.97953248224E+01  0.49456007767E+02  0.13710787977E+03  0.14614338229E+03  0.41800000000E+01 0.  1.
        -11    1    1    2    0    0 -0.11886322944E+02 -0.20883993082E+02  0.29741498630E+02  0.38235880805E+02  0.00000000000E+00 0.  1.
         11    1    1    2    0    0 -0.20392749381E+02 -0.72285093630E+02 -0.69109547043E+02  0.10206433501E+03  0.00000000000E+00 0. -1.
</event>
<event>
 7    1  0.2648915E-009  0.1598466E+03  0.7561462E-02  0.1188870E+00
         -3   -1    0    0    0  501 -0.00000000000E+00  0.00000000000E+00  0.96074291764E+02  0.96074291764E+02  0.00000000000E+00 0.  1.
          3   -1    0    0  501    0  0.00000000000E+00 -0.00000000000E+00 -0.38718458846E+03  0.38718458846E+03  0.00000000000E+00 0. -1.
         25    2    1    2    0    0 -0.13266026049E+03  0.57068823336E+02 -0.23714943985E+03  0.30454245658E+03  0.12510258081E+03 0.  0.
          5    1    3    3  502    0 -0.99091392663E+02  0.59571086405E+02 -0.24390696812E+03  0.26995536656E+03  0.41800000000E+01 0.  1.
         -5    1    3    3    0  502 -0.33568867825E+02 -0.25022630685E+01  0.67575282690E+01  0.34587090017E+02  0.41800000000E+01 0.  1.
        -11    1    1    2    0    0  0.42505050027E+02 -0.67033599709E+02 -0.19922601675E+02  0.81835767396E+02  0.00000000000E+00 0.  1.
         11    1    1    2    0    0  0.90155210461E+02  0.99647763727E+01 -0.34038255172E+02  0.96880656256E+02  0.00000000000E+00 0. -1.
</event>
<event>
 7    1  0.2648915E-009  0.1417521E+03  0.7561462E-02  0.1210991E+00
         -1   -1    0    0    0  501 -0.00000000000E+00  0.00000000000E+00  0.16589773445E+03  0.16589773445E+03  0.00000000000E+00 0.  1.
          1   -1    0    0  501    0  0.00000000000E+00 -0.00000000000E+00 -0.14237522238E+03  0.14237522238E+03  0.00000000000E+00 0. -1.
         25    2    1    2    0    0  0.69779149067E+02  0.83875614286E+02  0.77279264949E+01  0.16617020247E+03  0.12509423258E+03 0.  0.
          5    1    3    3  502    0  0.69666666961E+02  0.10440172011E+03  0.36317990599E+02  0.13072732113E+03  0.41800000000E+01 0. -1.
         -5    1    3    3    0  502  0.11248210543E+00 -0.20526105823E+02 -0.28590064104E+02  0.35442881344E+02  0.41800000000E+01 0.  1.
        -11    1    1    2    0    0 -0.66660887645E+02 -0.15384384881E+02  0.25182797641E+02  0.72900799288E+02  0.00000000000E+00 0.  1.
         11    1    1    2    0    0 -0.31182614215E+01 -0.68491229405E+02 -0.93882120721E+01  0.69201955071E+02  0.00000000000E+00 0. -1.
</event>
<event>
 7    1  0.2648915E-009  0.2290020E+03  0.7561462E-02  0.1127344E+00
          2   -1    0    0  501    0  0.00000000000E+00  0.00000000000E+00  0.14400718226E+04  0.14400718226E+04  0.00000000000E+00 0. -1.
         -2   -1    0    0    0  501 -0.00000000000E+00 -0.00000000000E+00 -0.45840639612E+02  0.45840639612E+02  0.00000000000E+00 0.  1.
         25    2    1    2    0    0 -0.19527329435E+03  0.72445159508E+02  0.41837744580E+03  0.48380466357E+03  0.12508918702E+03 0.  0.
          5    1    3    3  502    0 -0.29353430178E+02  0.56486912794E+02  0.55919243513E+02  0.84834128600E+02  0.41800000000E+01 0.  1.
         -5    1    3    3    0  502 -0.16591986417E+03  0.15958246714E+02  0.36245820229E+03  0.39897053497E+03  0.41800000000E+01 0.  1.
        -11    1    1    2    0    0  0.15589393803E+02 -0.42550894279E+02  0.17144021796E+03  0.17732838503E+03  0.00000000000E+00 0. -1.
         11    1    1    2    0    0  0.17968390055E+03 -0.29894265229E+02  0.80441351922E+03  0.82477941360E+03  0.00000000000E+00 0.  1.
</event>
<event>
 7    1  0.2648915E-009  0.1142883E+03  0.7561462E-02  0.1252828E+00
         -2   -1    0    0    0  501 -0.00000000000E+00  0.00000000000E+00  0.27472238215E+02  0.27472238215E+02  0.00000000000E+00 0.  1.
          2   -1    0    0  501    0  0.00000000000E+00 -0.00000000000E+00 -0.73284875343E+03  0.73284875343E+03  0.00000000000E+00 0. -1.
         25    2    1    2    0    0  0.49573883967E+02  0.69107257928E+02 -0.29854800297E+03  0.33468080657E+03  0.12508776575E+03 0.  0.
          5    1    3    3  502    0  0.68207245748E+02  0.45613573747E+02 -0.29248283550E+03  0.30380340344E+03  0.41800000000E+01 0. -1.
         -5    1    3    3    0  502 -0.18633361781E+02  0.23493684181E+02 -0.60651674745E+01  0.30877403132E+02  0.41800000000E+01 0. -1.
        -11    1    1    2    0    0 -0.67428437647E+02 -0.31319811034E+02 -0.17600425436E+03  0.19106287531E+03  0.00000000000E+00 0.  1.
         11    1    1    2    0    0  0.17854553680E+02 -0.37787446894E+02 -0.23082425788E+03  0.23457730976E+03  0.00000000000E+00 0. -1.
</event>
<event>
 7    1  0.2648915E-009  0.1248359E+03  0.7561462E-02  0.1235326E+00
         -2   -1    0    0    0  501 -0.00000000000E+00  0.00000000000E+00  0.12964407015E+02  0.12964407015E+02  0.00000000000E+00 0.  1.
          2   -1    0    0  501    0  0.00000000000E+00 -0.00000000000E+00 -0.23286441948E+04  0.23286441948E+04  0.00000000000E+00 0. -1.
         25    2    1    2    0    0 -0.12746287994E+02 -0.22850442167E+02 -0.18840728171E+04  0.18884017411E+04  0.12508455231E+03 0.  0.
          5    1    3    3  502    0 -0.51413156682E+02  0.20962691253E+02 -0.13455684120E+04  0.13467199304E+04  0.41800000000E+01 0. -1.
         -5    1    3    3    0  502  0.38666868688E+02 -0.43813133420E+02 -0.53850440509E+03  0.54168181075E+03  0.41800000000E+01 0. -1.
        -11    1    1    2    0    0  0.64115576533E+02 -0.21414568998E+02 -0.16979507302E+03  0.18275600603E+03  0.00000000000E+00 0.  1.
         11    1    1    2    0    0 -0.51369288539E+02  0.44265011164E+02 -0.26181189764E+03  0.27045085462E+03  0.00000000000E+00 0. -1.
</event>
<event>
 7    1  0.2648915E-009  0.1070508E+03  0.7561462E-02  0.1266131E+00
          2   -1    0    0  501    0  0.00000000000E+00  0.00000000000E+00  0.19829783864E+03  0.19829783864E+03  0.00000000000E+00 0. -1.
         -2   -1    0    0    0  501 -0.00000000000E+00 -0.00000000000E+00 -0.95111775336E+02  0.95111775336E+02  0.00000000000E+00 0.  1.
         25    2    1    2    0    0  0.12703772409E+02  0.55376771521E+02 -0.90581743362E+01  0.13768584418E+03  0.12508944203E+03 0.  0.
          5    1    3    3  502    0 -0.36221251398E+02  0.70385153473E+02  0.15499193085E+02  0.80769711331E+02  0.41800000000E+01 0. -1.
         -5    1    3    3    0  502  0.48925023808E+02 -0.15008381952E+02 -0.24557367421E+02  0.56916132845E+02  0.41800000000E+01 0. -1.
        -11    1    1    2    0    0 -0.35474066153E+02 -0.18147265659E+02  0.10391836985E+03  0.11129582298E+03  0.00000000000E+00 0. -1.
         11    1    1    2    0    0  0.22770293744E+02 -0.37229505862E+02  0.83258677858E+01  0.44427946816E+02  0.00000000000E+00 0.  1.
</event>
<event>
 7    1  0.3084824E-009  0.1185099E+03  0.7561462E-02  0.1245576E+00
          2   -1    0    0  501    0  0.00000000000E+00  0.00000000000E+00  0.67604594647E+03  0.67604594647E+03  0.00000000000E+00 0. -1.
         -2   -1    0    0    0  501 -0.00000000000E+00 -0.00000000000E+00 -0.28164759771E+02  0.28164759771E+02  0.00000000000E+00 0.  1.
         25    2    1    2    0    0 -0.19184409404E+02  0.71443153191E+02  0.24806890538E+03  0.28750354949E+03  0.12509174015E+03 0.  0.
          5    1    3    3  502    0 -0.40901215970E+02  0.90502523769E+02  0.11843093312E+03  0.15461880415E+03  0.41800000000E+01 0. -1.
         -5    1    3    3    0  502  0.21716806566E+02 -0.19059370578E+02  0.12963797226E+03  0.13288474534E+03  0.41800000000E+01 0. -1.
        -11    1    1    2    0    0 -0.30616284837E+02 -0.36202476564E+02  0.25812668250E+03  0.26244496647E+03  0.00000000000E+00 0.  1.
         11    1    1    2    0    0  0.49800694241E+02 -0.35240676627E+02  0.14168559882E+03  0.15426219028E+03  0.00000000000E+00 0. -1.
</event>
<event>
 7    1  0.2648915E-009  0.7936281E+02  0.7561462E-02  0.1330869E+00
          1   -1    0    0  501    0  0.00000000000E+00  0.00000000000E+00  0.60236633985E+02  0.60236633985E+02  0.00000000000E+00 0. -1.
         -1   -1    0    0    0  501 -0.00000000000E+00 -0.00000000000E+00 -0.23094845932E+03  0.23094845932E+03  0.00000000000E+00 0.  1.
         25    2    1    2    0    0  0.10699325279E+02 -0.96737122225E+01 -0.15343748157E+03  0.19849036797E+03  0.12508920480E+03 0.  0.
          5    1    3    3  502    0  0.12233973599E+02  0.32552178384E+02  0.41614583220E+01  0.35271866451E+02  0.41800000000E+01 0.  1.
         -5    1    3    3    0  502 -0.15346483200E+01 -0.42225890606E+02 -0.15759893989E+03  0.16321850152E+03  0.41800000000E+01 0.  1.
        -11    1    1    2    0    0 -0.45634649967E+02  0.74012102918E+01  0.11199598511E+02  0.47568163705E+02  0.00000000000E+00 0.  1.
         11    1    1    2    0    0  0.34935324688E+02  0.22725019307E+01 -0.28473942280E+02  0.45126561635E+02  0.00000000000E+00 0. -1.
</event>
<event>
 7    1  0.2648915E-009  0.1334417E+03  0.7561462E-02  0.1222436E+00
          2   -1    0    0  501    0  0.00000000000E+00  0.00000000000E+00  0.45126733254E+03  0.45126733254E+03  0.00000000000E+00 0. -1.
         -2   -1    0    0    0  501 -0.00000000000E+00 -0.00000000000E+00 -0.59712444965E+02  0.59712444965E+02  0.00000000000E+00 0.  1.
         25    2    1    2    0    0  0.51316266237E+02 -0.85971332349E+02  0.32088484469E+03  0.35866394447E+03  0.12509321463E+03 0.  0.
          5    1    3    3  502    0  0.80305937930E+02 -0.14475410877E+02  0.18727039249E+03  0.20431899933E+03  0.41800000000E+01 0.  1.
         -5    1    3    3    0  502 -0.28989671693E+02 -0.71495921471E+02  0.13361445221E+03  0.15434494514E+03  0.41800000000E+01 0.  1.
        -11    1    1    2    0    0 -0.56419871467E+02  0.63826468904E+02  0.78941115574E+01  0.85553124001E+02  0.00000000000E+00 0.  1.
         11    1    1    2    0    0  0.51036052301E+01  0.22144863445E+02  0.62775931323E+02  0.66762709029E+02  0.00000000000E+00 0. -1.
</event>
<event>
 7    1  0.2648915E-009  0.8365185E+02  0.7561462E-02  0.1318996E+00
         -1   -1    0    0    0  501 -0.00000000000E+00  0.00000000000E+00  0.94698476647E+02  0.94698476647E+02  0.00000000000E+00 0.  1.
          1   -1    0    0  501    0  0.00000000000E+00 -0.00000000000E+00 -0.13193864666E+03  0.13193864666E+03  0.00000000000E+00 0. -1.
         25    2    1    2    0    0 -0.17244072233E+02  0.17302548283E+02 -0.13663322770E+02  0.12818076551E+03  0.12508751358E+03 0.  0.
          5    1    3    3  502    0  0.37380359786E+02  0.37036948361E+02  0.24873074253E+02  0.58353826476E+02  0.41800000000E+01 0.  1.
         -5    1    3    3    0  502 -0.54624432019E+02 -0.19734400078E+02 -0.38536397023E+02  0.69826939037E+02  0.41800000000E+01 0.  1.
        -11    1    1    2    0    0 -0.16420061101E+02 -0.15489957947E+02 -0.50497858651E+02  0.55313569150E+02  0.00000000000E+00 0. -1.
         11    1    1    2    0    0  0.33664133334E+02 -0.18125903361E+01  0.26921011406E+02  0.43142788644E+02  0.00000000000E+00 0.  1.
</event>
<event>
 7    1  0.2648915E-009  0.1236149E+03  0.7561462E-02  0.1237250E+00
          2   -1    0    0  501    0  0.00000000000E+00  0.00000000000E+00  0.11189368646E+03  0.11189368646E+03  0.00000000000E+00 0. -1.
         -2   -1    0    0    0  501 -0.00000000000E+00 -0.00000000000E+00 -0.23377894731E+03  0.23377894731E+03  0.00000000000E+00 0.  1.
         25    2    1    2    0    0  0.12543650534E+02  0.92485916667E+02  0.14255859683E+02  0.15672230757E+03  0.12509062396E+03 0.  0.
          5    1    3    3  502    0  0.45852128945E+02  0.83486947450E+02  0.49328293300E+02  0.10734636018E+03  0.41800000000E+01 0.  1.
         -5    1    3    3    0  502 -0.33308478411E+02  0.89989692174E+01 -0.35072433617E+02  0.49375947392E+02  0.41800000000E+01 0.  1.
        -11    1    1    2    0    0  0.28222081902E+02 -0.22305850231E+02 -0.86822597554E+02  0.93979786697E+02  0.00000000000E+00 0.  1.
         11    1    1    2    0    0 -0.40765732436E+02 -0.70180066436E+02 -0.49318522976E+02  0.94970539508E+02  0.00000000000E+00 0. -1.
</event>
<event>
 7    1  0.2986481E-009  0.1004807E+03  0.7561462E-02  0.1279288E+00
          1   -1    0    0  501    0  0.00000000000E+00  0.00000000000E+00  0.10076369208E+04  0.10076369208E+04  0.00000000000E+00 0. -1.
         -1   -1    0    0    0  501 -0.00000000000E+00 -0.00000000000E+00 -0.21662707045E+02  0.21662707045E+02  0.00000000000E+00 0.  1.
         25    2    1    2    0    0  0.14116849734E+02  0.83517037090E+02  0.71732764788E+03  0.73306229209E+03  0.12508792401E+03 0.  0.
          5    1    3    3  502    0 -0.96287499711E+01  0.19546602080E+00  0.48431240623E+03  0.48442618660E+03  0.41800000000E+01 0.  1.
         -5    1    3    3    0  502  0.23745599705E+02  0.83321571070E+02  0.23301524165E+03  0.24863610549E+03  0.41800000000E+01 0.  1.
        -11    1    1    2    0    0 -0.34239016939E+02 -0.26612083914E+02  0.37468223963E+02  0.57309520135E+02  0.00000000000E+00 0.  1.
         11    1    1    2    0    0  0.20122167205E+02 -0.56904953177E+02  0.23117834187E+03  0.23892781558E+03  0.00000000000E+00 0. -1.
</event>
<event>
 7    1  0.2648915E-009  0.2893696E+03  0.7561462E-02  0.1090679E+00
          1   -1    0    0  501    0  0.00000000000E+00  0.00000000000E+00  0.14247872505E+04  0.14247872505E+04  0.00000000000E+00 0. -1.
         -1   -1    0    0    0  501 -0.00000000000E+00 -0.00000000000E+00 -0.67834240085E+02  0.67834240085E+02  0.00000000000E+00 0.  1.
         25    2    1    2    0    0  0.11849513024E+03 -0.25233748424E+03  0.49191661535E+03  0.57908984476E+03  0.12509112684E+03 0.  0.
          5    1    3    3  502    0  0.76194626233E+02 -0.21924998798E+03  0.46302815886E+03  0.51796595119E+03  0.41800000000E+01 0. -1.
         -5    1    3    3    0  502  0.42300504005E+02 -0.33087496256E+02  0.28888456491E+02  0.61123893577E+02  0.41800000000E+01 0. -1.
        -11    1    1    2    0    0 -0.54891336472E+02  0.20817541323E+03  0.60222137676E+03  0.63954722118E+03  0.00000000000E+00 0.  1.
         11    1    1    2    0    0 -0.63603793766E+02  0.44162071006E+02  0.26281501830E+03  0.27398442463E+03  0.00000000000E+00 0. -1.
</event>
<event>
 7    1  0.2648915E-009  0.1181842E+03  0.7561462E-02  0.1246123E+00
         -1   -1    0    0    0  501 -0.00000000000E+00  0.00000000000E+00  0.18356936727E+02  0.18356936727E+02  0.00000000000E+00 0.  1.
          1   -1    0    0  501    0  0.00000000000E+00 -0.00000000000E+00 -0.10354275073E+04  0.10354275073E+04  0.00000000000E+00 0. -1.
         25    2    1    2    0    0  0.22538547048E+02  0.87005815883E+02 -0.52204073025E+03  0.54429066055E+03  0.12509117084E+03 0.  0.
          5    1    3    3  502    0 -0.24191840781E+02 -0.77005354379E+01 -0.26673222150E+03  0.26797032259E+03  0.41800000000E+01 0. -1.
         -5    1    3    3    0  502  0.46730387829E+02  0.94706351321E+02 -0.25530850875E+03  0.27632033796E+03  0.41800000000E+01 0. -1.
        -11    1    1    2    0    0 -0.26795771248E+02 -0.11231649778E+02 -0.48317342851E+02  0.56380217574E+02  0.00000000000E+00 0.  1.
         11    1    1    2    0    0  0.42572242002E+01 -0.75774166105E+02 -0.44671249743E+03  0.45311356587E+03  0.00000000000E+00 0. -1.
</event>
<event>
 7    1  0.2648915E-009  0.1396273E+03  0.7561462E-02  0.1213831E+00
         -1   -1    0    0    0  501 -0.00000000000E+00  0.00000000000E+00  0.65340365089E+02  0.65340365089E+02  0.00000000000E+00 0.  1.
          1   -1    0    0  501    0  0.00000000000E+00 -0.00000000000E+00 -0.33651411296E+03  0.33651411296E+03  0.00000000000E+00 0. -1.
         25    2    1    2    0    0  0.61066640736E+02 -0.79206240998E+02 -0.12512089114E+03  0.20323689006E+03  0.12508889982E+03 0.  0.
          5    1    3    3  502    0  0.22285709105E+02 -0.10156008197E+03 -0.49435297893E+02  0.11520600747E+03  0.41800000000E+01 0. -1.
         -5    1    3    3    0  502  0.38780931631E+02  0.22353840970E+02 -0.75685593250E+02  0.88030882592E+02  0.41800000000E+01 0. -1.
        -11    1    1    2    0    0 -0.78452412793E+02  0.80993859891E+02 -0.10532836137E+03  0.15430116695E+03  0.00000000000E+00 0.  1.
         11    1    1    2    0    0  0.17385772057E+02 -0.17876188927E+01 -0.40724495366E+02  0.44316421044E+02  0.00000000000E+00 0. -1.
</event>
<event>
 7    1  0.2648915E-009  0.6890131E+02  0.7561462E-02  0.1363870E+00
          1   -1    0    0  501    0  0.00000000000E+00  0.00000000000E+00  0.24061564840E+02  0.24061564840E+02  0.00000000000E+00 0. -1.
         -1   -1    0    0    0  501 -0.00000000000E+00 -0.00000000000E+00 -0.63972440924E+03  0.63972440924E+03  0.00000000000E+00 0.  1.
         25    2    1    2    0    0  0.23808554536E+02  0.10171250140E+02 -0.49363203709E+03  0.50989181464E+03  0.12508706168E+03 0.  0.
          5    1    3    3  502    0  0.94552056719E+00  0.19125676263E+02 -0.48200676891E+03  0.48240510277E+03  0.41800000000E+01 0. -1.
         -5    1    3    3    0  502  0.22863033969E+02 -0.89544261225E+01 -0.11625268180E+02  0.27486711875E+02  0.41800000000E+01 0. -1.
        -11    1    1    2    0    0  0.25101563399E+01 -0.47530373553E+02 -0.69934922167E+02  0.84595098164E+02  0.00000000000E+00 0.  1.
         11    1    1    2    0    0 -0.26318710876E+02  0.37359123413E+02 -0.52095885148E+02  0.69299061276E+02  0.00000000000E+00 0. -1.
</event>
<event>
 7    1  0.4324825E-009  0.1417121E+03  0.7561462E-02  0.1211044E+00
          2   -1    0    0  501    0  0.00000000000E+00  0.00000000000E+00  0.76985891939E+03  0.76985891939E+03  0.00000000000E+00 0. -1.
         -2   -1    0    0    0  501 -0.00000000000E+00 -0.00000000000E+00 -0.31118447533E+02  0.31118447533E+02  0.00000000000E+00 0.  1.
         25    2    1    2    0    0 -0.63392401741E+02  0.84113579074E+02  0.31870466326E+03  0.35820789306E+03  0.12508613626E+03 0.  0.
          5    1    3    3  502    0  0.26553991207E+02  0.66017148431E+02  0.15178863993E+03  0.16769210461E+03  0.41800000000E+01 0. -1.
         -5    1    3    3    0  502 -0.89946392947E+02  0.18096430644E+02  0.16691602332E+03  0.19051578845E+03  0.41800000000E+01 0. -1.
        -11    1    1    2    0    0  0.65808279550E+01 -0.56949286983E+02  0.89483596792E+02  0.10627249258E+03  0.00000000000E+00 0. -1.
         11    1    1    2    0    0  0.56811573786E+02 -0.27164292091E+02  0.33055221181E+03  0.33649698128E+03  0.00000000000E+00 0.  1.
</event>
<event>
 7    1  0.2648915E-009  0.8096155E+02  0.7561462E-02  0.1326345E+00
          1   -1    0    0  501    0  0.00000000000E+00  0.00000000000E+00  0.56770421342E+03  0.56770421342E+03  0.00000000000E+00 0. -1.
         -1   -1    0    0    0  501 -0.00000000000E+00 -0.00000000000E+00 -0.23315995104E+02  0.23315995104E+02  0.00000000000E+00 0.  1.
         25    2    1    2    0    0 -0.13998900926E+02  0.68856151548E+02  0.41206984044E+03  0.43633287862E+03  0.12509072199E+03 0.  0.
          5    1    3    3  502    0 -0.26708263685E+02  0.27405540099E+02  0.23021071180E+02  0.44853507059E+02  0.41800000000E+01 0.  1.
         -5    1    3    3    0  502  0.12709362759E+02  0.41450611448E+02  0.38904876926E+03  0.39147937156E+03  0.41800000000E+01 0.  1.
        -11    1    1    2    0    0  0.26671027376E+02 -0.37197751005E+02  0.69686316720E+02  0.83373851531E+02  0.00000000000E+00 0. -1.
         11    1    1    2    0    0 -0.12672126450E+02 -0.31658400543E+02  0.62632061156E+02  0.71313478378E+02  0.00000000000E+00 0.  1.
</event>
<event>
 7    1  0.2648915E-009  0.1155982E+03  0.7561462E-02  0.1250540E+00
         -3   -1    0    0    0  501 -0.00000000000E+00  0.00000000000E+00  0.73568786901E+02  0.73568786901E+02  0.00000000000E+00 0.  1.
          3   -1    0    0  501    0  0.00000000000E+00 -0.00000000000E+00 -0.21856479700E+03  0.21856479700E+03  0.00000000000E+00 0. -1.
         25    2    1    2    0    0  0.46579479306E+02 -0.14110125259E+02 -0.28722387020E+02  0.13725474764E+03  0.12508056087E+03 0.  0.
          5    1    3    3  502    0  0.86850208084E+02  0.92971919547E+01 -0.19147277973E+02  0.89518082398E+02  0.41800000000E+01 0.  1.
         -5    1    3    3    0  502 -0.40270728779E+02 -0.23407317213E+02 -0.95751090472E+01  0.47736665246E+02  0.41800000000E+01 0.  1.
        -11    1    1    2    0    0  0.15545035588E+02  0.29175555783E+02 -0.17993700676E+02  0.37638204669E+02  0.00000000000E+00 0.  1.
         11    1    1    2    0    0 -0.62124514894E+02 -0.15065430524E+02 -0.98279922401E+02  0.11724063159E+03  0.00000000000E+00 0. -1.
</event>
<event>
 7    1  0.2648915E-009  0.1351768E+03  0.7561462E-02  0.1219970E+00
          2   -1    0    0  501    0  0.00000000000E+00  0.00000000000E+00  0.24654454142E+03  0.24654454142E+03  0.00000000000E+00 0. -1.
         -2   -1    0    0    0  501 -0.00000000000E+00 -0.00000000000E+00 -0.14391773802E+03  0.14391773802E+03  0.00000000000E+00 0.  1.
         25    2    1    2    0    0 -0.15563045785E+02 -0.11963735583E+03  0.14920237697E+03  0.22905198822E+03  0.12509260055E+03 0.  0.
          5    1    3    3  502    0  0.23110539806E+02 -0.10581152161E+03  0.15310318844E+03  0.18758527091E+03  0.41800000000E+01 0. -1.
         -5    1    3    3    0  502 -0.38673585591E+02 -0.13825834220E+02 -0.39008114625E+01  0.41466717309E+02  0.41800000000E+01 0. -1.
        -11    1    1    2    0    0  0.24255591715E+01  0.28758448658E+02 -0.61918019562E+02  0.68313782306E+02  0.00000000000E+00 0.  1.
         11    1    1    2    0    0  0.13137486614E+02  0.90878907167E+02  0.15342445992E+02  0.93096508911E+02  0.00000000000E+00 0. -1.
</event>
<event>
 7    1  0.2648915E-009  0.1404664E+03  0.7561462E-02  0.1212703E+00
          1   -1    0    0  501    0  0.00000000000E+00  0.00000000000E+00  0.99981558909E+03  0.99981558909E+03  0.00000000000E+00 0. -1.
         -1   -1    0    0    0  501 -0.00000000000E+00 -0.00000000000E+00 -0.24558139136E+02  0.24558139136E+02  0.00000000000E+00 0.  1.
         25    2    1    2    0    0 -0.10335917212E+02 -0.10875335046E+03  0.63136700635E+03  0.65284443139E+03  0.12508969769E+03 0.  0.
          5    1    3    3  502    0 -0.63302623136E+02 -0.38365794703E+02  0.35829259782E+03  0.36588278772E+03  0.41800000000E+01 0. -1.
         -5    1    3    3    0  502  0.52966705925E+02 -0.70387555760E+02  0.27307440853E+03  0.28696164366E+03  0.41800000000E+01 0. -1.
        -11    1    1    2    0    0  0.21682035607E+02  0.21218078051E+02  0.21266022089E+02  0.37048093065E+02  0.00000000000E+00 0.  1.
         11    1    1    2    0    0 -0.11346118395E+02  0.87535272412E+02  0.32262442151E+03  0.33448120377E+03  0.00000000000E+00 0. -1.
</event>
<event>
 7    1  0.2648915E-009  0.1713831E+03  0.7561462E-02  0.1176413E+00
          2   -1    0    0  501    0  0.00000000000E+00  0.00000000000E+00  0.65240601906E+03  0.65240601906E+03  0.00000000000E+00 0. -1.
         -2   -1    0    0    0  501 -0.00000000000E+00 -0.00000000000E+00 -0.61834512362E+02  0.61834512362E+02  0.00000000000E+00 0.  1.
         25    2    1    2    0    0 -0.69588370079E+02 -0.13216176941E+03  0.16924545011E+03  0.25806944564E+03  0.12508613771E+03 0.  0.
          5    1    3    3  502    0  0.19118597851E+02 -0.26550252723E+02 -0.75137682206E+01  0.33828476412E+02  0.41800000000E+01 0.  1.
         -5    1    3    3    0  502 -0.88706967930E+02 -0.10561151669E+03  0.17675921833E+03  0.22424096923E+03  0.41800000000E+01 0.  1.
        -11    1    1    2    0    0  0.26729367754E+02  0.12563067195E+03  0.34851915739E+03  0.37143388093E+03  0.00000000000E+00 0.  1.
         11    1    1    2    0    0  0.42859002325E+02  0.65310974646E+01  0.72806899201E+02  0.84737204849E+02  0.00000000000E+00 0. -1.
</event>
<event>
 7    1  0.2648915E-009  0.1341246E+03  0.7561462E-02  0.1221461E+00
          3   -1    0    0  501    0  0.00000000000E+00  0.00000000000E+00  0.92051148399E+02  0.92051148399E+02  0.00000000000E+00 0. -1.
         -3   -1    0    0    0  501 -0.00000000000E+00 -0.00000000000E+00 -0.30073010243E+03  0.30073010243E+03  0.00000000000E+00 0.  1.
         25    2    1    2    0    0  0.66669762053E+02 -0.90048932266E+02 -0.48774592217E+02  0.17487094678E+03  0.12508884765E+03 0.  0.
          5    1    3    3  502    0  0.71539720618E+02 -0.47507825959E+02  0.24937252174E+02  0.89522422328E+02  0.41800000000E+01 0. -1.
         -5    1    3    3    0  502 -0.48699585651E+01 -0.42541106307E+02 -0.73711844391E+02  0.85348524450E+02  0.41800000000E+01 0. -1.
        -11    1    1    2    0    0 -0.19445869226E+00  0.69738557607E+02 -0.11705632276E+03  0.13625596108E+03  0.00000000000E+00 0.  1.
         11    1    1    2    0    0 -0.66475303360E+02  0.20310374660E+02 -0.42848039056E+02  0.81654342974E+02  0.00000000000E+00 0. -1.
</event>
<event>
 7    1  0.2648915E-009  0.9804458E+02  0.7561462E-02  0.1284462E+00
         -1   -1    0    0    0  501 -0.00000000000E+00  0.00000000000E+00  0.44235895124E+02  0.44235895124E+02  0.00000000000E+00 0.  1.
          1   -1    0    0  501    0  0.00000000000E+00 -0.00000000000E+00 -0.37864134824E+03  0.37864134824E+03  0.00000000000E+00 0. -1.
         25    2    1    2    0    0 -0.46864154829E+01 -0.82201159749E+01 -0.30230560729E+03  0.32730084506E+03  0.12509048798E+03 0.  0.
          5    1    3    3  502    0  0.58925928556E+02 -0.14705415224E+02 -0.16179200106E+03  0.17286595472E+03  0.41800000000E+01 0. -1.
         -5    1    3    3    0  502 -0.63612344039E+02  0.64852992487E+01 -0.14051360623E+03  0.15443489034E+03  0.41800000000E+01 0. -1.
        -11    1    1    2    0    0 -0.29264349781E+02 -0.11987342849E+02 -0.44116081958E+02  0.54280081466E+02  0.00000000000E+00 0. -1.
         11    1    1    2    0    0  0.33950765263E+02  0.20207458824E+02  0.12016236126E+02  0.41296316842E+02  0.00000000000E+00 0.  1.
</event>
<event>
 7    1  0.2648915E-009  0.1055837E+03  0.7561462E-02  0.1268974E+00
          1   -1    0    0  501    0  0.00000000000E+00  0.00000000000E+00  0.17942069240E+02  0.17942069240E+02  0.00000000000E+00 0. -1.
         -1   -1    0    0    0  501 -0.00000000000E+00 -0.00000000000E+00 -0.11937857409E+04  0.11937857409E+04  0.00000000000E+00 0.  1.
         25    2    1    2    0    0  0.75567593155E+02  0.22819874046E+02 -0.86923818779E+03  0.88173256321E+03  0.12508428408E+03 0.  0.
          5    1    3    3  502    0  0.17113796728E+02  0.25418050094E+02 -0.72983550109E+03  0.73049044508E+03  0.41800000000E+01 0. -1.
         -5    1    3    3    0  502  0.58453796427E+02 -0.25981760483E+01 -0.13940268670E+03  0.15124211813E+03  0.41800000000E+01 0. -1.
        -11    1    1    2    0    0  0.16248061873E+02 -0.24910434573E+02 -0.63467025403E+02  0.70089889276E+02  0.00000000000E+00 0. -1.
         11    1    1    2    0    0 -0.91815655028E+02  0.20905605272E+01 -0.24313845844E+03  0.25990535763E+03  0.00000000000E+00 0.  1.
</event>
<event>
 7    1  0.2648915E-009  0.1020019E+03  0.7561462E-02  0.1276142E+00
         -1   -1    0    0    0  501 -0.00000000000E+00  0.00000000000E+00  0.17211861267E+03  0.17211861267E+03  0.00000000000E+00 0.  1.
          1   -1    0    0  501    0  0.00000000000E+00 -0.00000000000E+00 -0.89318828263E+02  0.89318828263E+02  0.00000000000E+00 0. -1.
         25    2    1    2    0    0  0.41098669786E+02 -0.32207000232E+02  0.79776339546E+02  0.15728489919E+03  0.12509150107E+03 0.  0.
          5    1    3    3  502    0  0.24955006799E+02 -0.78656867688E+02  0.66809118756E+02  0.10625716892E+03  0.41800000000E+01 0. -1.
         -5    1    3    3    0  502  0.16143662988E+02  0.46449867457E+02  0.12967220790E+02  0.51027730269E+02  0.41800000000E+01 0. -1.
        -11    1    1    2    0    0 -0.42690747344E+02  0.43306991887E+02  0.35071187623E+02  0.70199598690E+02  0.00000000000E+00 0.  1.
         11    1    1    2    0    0  0.15920775572E+01 -0.11099991655E+02 -0.32047742760E+02  0.33952943049E+02  0.00000000000E+00 0. -1.
</event>
<event>
 7    1  0.2648915E-009  0.1015835E+03  0.7561462E-02  0.1277001E+00
          2   -1    0    0  501    0  0.00000000000E+00  0.00000000000E+00  0.46333455840E+03  0.46333455840E+03  0.00000000000E+00 0. -1.
         -2   -1    0    0    0  501 -0.00000000000E+00 -0.00000000000E+00 -0.41578516237E+02  0.41578516237E+02  0.00000000000E+00 0.  1.
         25    2    1    2    0    0 -0.61175357064E+02  0.29336731749E+02  0.33198441924E+03  0.36119811517E+03  0.12508939061E+03 0.  0.
          5    1    3    3  502    0  0.62461081564E+01  0.24172258897E+02  0.32103955008E+01  0.25516484996E+02  0.41800000000E+01 0.  1.
         -5    1    3    3    0  502 -0.67421465221E+02  0.51644728520E+01  0.32877402374E+03  0.33568163018E+03  0.41800000000E+01 0.  1.
        -11    1    1    2    0    0 -0.77713498969E+01 -0.39638534280E+02  0.46807089669E+02  0.61826458110E+02  0.00000000000E+00 0. -1.
         11    1    1    2    0    0  0.68946706961E+02  0.10301802532E+02  0.42964533251E+02  0.81888501352E+02  0.00000000000E+00 0.  1.
</event>
<event>
 7    1  0.2648915E-009  0.4563266E+02  0.7561462E-02  0.1470430E+00
         -1   -1    0    0    0  501 -0.00000000000E+00  0.00000000000E+00  0.56528500125E+02  0.56528500125E+02  0.00000000000E+00 0.  1.
          1   -1    0    0  501    0  0.00000000000E+00 -0.00000000000E+00 -0.21706258238E+03  0.21706258238E+03  0.00000000000E+00 0. -1.
         25    2    1    2    0    0 -0.61103927682E+01 -0.30622465726E+01 -0.12160317422E+03  0.17459475945E+03  0.12509709747E+03 0.  0.
          5    1    3    3  502    0  0.21233931289E+02 -0.15740406314E+02  0.17649352010E+02  0.32056391801E+02  0.41800000000E+01 0.  1.
         -5    1    3    3    0  502 -0.27344324058E+02  0.12678159742E+02 -0.13925252623E+03  0.14253836765E+03  0.41800000000E+01 0.  1.
        -11    1    1    2    0    0 -0.11778137123E+02 -0.68496555176E+01 -0.64688107821E+02  0.66107439735E+02  0.00000000000E+00 0. -1.
         11    1    1    2    0    0  0.17888529891E+02  0.99119020902E+01  0.25757199787E+02  0.32888883313E+02  0.00000000000E+00 0.  1.
</event>
<event>
 7    1  0.2648915E-009  0.9923836E+02  0.7561462E-02  0.1281906E+00
         -4   -1    0    0    0  501 -0.00000000000E+00  0.00000000000E+00  0.16221209414E+03  0.16221209414E+03  0.00000000000E+00 0.  1.
          4   -1    0    0  501    0  0.00000000000E+00 -0.00000000000E+00 -0.79025342556E+02  0.79025342556E+02  0.00000000000E+00 0. -1.
         25    2    1    2    0    0  0.19978485694E+02  0.94306872321E+01  0.22236278538E+02  0.12895865714E+03  0.12509118840E+03 0.  0.
          5    1    3    3  502    0 -0.40239062048E+02  0.27177955907E+02  0.40582478413E+02  0.63421079744E+02  0.41800000000E+01 0.  1.
         -5    1    3    3    0  502  0.60217547742E+02 -0.17747268674E+02 -0.18346199876E+02  0.65537577399E+02  0.41800000000E+01 0.  1.
        -11    1    1    2    0    0 -0.45700528684E+02 -0.29328953296E+02  0.58267389659E+02  0.79648066650E+02  0.00000000000E+00 0.  1.
         11    1    1    2    0    0  0.25722042989E+02  0.19898266064E+02  0.26830833845E+01  0.32630712900E+02  0.00000000000E+00 0. -1.
</event>
<event>
 7    1  0.2648915E-009  0.8889991E+02  0.7561462E-02  0.1305538E+00
          3   -1    0    0  501    0  0.00000000000E+00  0.00000000000E+00  0.12931335876E+03  0.12931335876E+03  0.00000000000E+00 0. -1.
         -3   -1    0    0    0  501 -0.00000000000E+00 -0.00000000000E+00 -0.10427431275E+03  0.10427431275E+03  0.00000000000E+00 0.  1.
         25    2    1    2    0    0  0.29528936648E+02  0.34269609131E+02  0.18040723570E+02  0.13423697181E+03  0.12509089769E+03 0.  0.
          5    1    3    3  502    0  0.20745826596E+02  0.55383417100E+02 -0.40129932653E+02  0.71593268577E+02  0.41800000000E+01 0. -1.
         -5    1    3    3    0  502  0.87831100527E+01 -0.21113807970E+02  0.58170656223E+02  0.62643703232E+02  0.41800000000E+01 0. -1.
        -11    1    1    2    0    0 -0.57152146121E+02 -0.90582148070E+01  0.17592137996E+02  0.60480595078E+02  0.00000000000E+00 0. -1.
         11    1    1    2    0    0  0.27623209473E+02 -0.25211394323E+02 -0.10593815563E+02  0.38870104624E+02  0.00000000000E+00 0.  1.
</event>
<event>
 7    1  0.2648915E-009  0.8860867E+02  0.7561462E-02  0.1306256E+00
          1   -1    0    0  501    0  0.00000000000E+00  0.00000000000E+00  0.78209975760E+03  0.78209975760E+03  0.00000000000E+00 0. -1.
         -1   -1    0    0    0  501 -0.00000000000E+00 -0.00000000000E+00 -0.15951570793E+02  0.15951570793E+02  0.00000000000E+00 0.  1.
         25    2    1    2    0    0 -0.17252707765E+02 -0.12621676031E+02  0.38783777110E+03  0.40807547107E+03  0.12510192151E+03 0.  0.
          5    1    3    3  502    0  0.31892991334E+02 -0.10320190509E+02  0.33127437611E+03  0.33299227303E+03  0.41800000000E+01 0. -1.
         -5    1    3    3    0  502 -0.49145699099E+02 -0.23014855214E+01  0.56563394986E+02  0.75083198040E+02  0.41800000000E+01 0. -1.
        -11    1    1    2    0    0 -0.15712372715E+02 -0.33713180565E+02  0.12848610405E+03  0.13376148972E+03  0.00000000000E+00 0.  1.
         11    1    1    2    0    0  0.32965080481E+02  0.46334856596E+02  0.24982431167E+03  0.25621436760E+03  0.00000000000E+00 0. -1.
</event>
<event>
 7    1  0.2648915E-009  0.1215675E+03  0.7561462E-02  0.1240533E+00
          2   -1    0    0  501    0  0.00000000000E+00  0.00000000000E+00  0.49637303505E+03  0.49637303505E+03  0.00000000000E+00 0.  1.
         -2   -1    0    0    0  501 -0.00000000000E+00 -0.00000000000E+00 -0.35529496379E+02  0.35529496379E+02  0.00000000000E+00 0. -1.
         25    2    1    2    0    0 -0.52719329983E+01  0.78906073332E+02  0.23207484203E+03  0.27524358792E+03  0.12508532568E+03 0.  0.
          5    1    3    3  502    0  0.35213273600E+02  0.80797536351E+02  0.84589452584E+02  0.12223364679E+03  0.41800000000E+01 0. -1.
         -5    1    3    3    0  502 -0.40485206598E+02 -0.18914630182E+01  0.14748538945E+03  0.15300994114E+03  0.41800000000E+01 0. -1.
        -11    1    1    2    0    0 -0.16661217971E+02  0.12068546743E+02  0.63318038077E+02  0.66576421883E+02  0.00000000000E+00 0. -1.
         11    1    1    2    0    0  0.21933150969E+02 -0.90974620075E+02  0.16545065856E+03  0.19008252162E+03  0.00000000000E+00 0.  1.
</event>
<event>
 7    1  0.2648915E-009  0.1371797E+03  0.7561462E-02  0.1217175E+00
         -1   -1    0    0    0  501 -0.00000000000E+00  0.00000000000E+00  0.16185429724E+03  0.16185429724E+03  0.00000000000E+00 0.  1.
          1   -1    0    0  501    0  0.00000000000E+00 -0.00000000000E+00 -0.14632884244E+03  0.14632884244E+03  0.00000000000E+00 0. -1.
         25    2    1    2    0    0 -0.92864487200E+02 -0.56399835772E+02  0.29136063931E+02  0.16823731534E+03  0.12510047799E+03 0.  0.
          5    1    3    3  502    0 -0.48126177724E+02  0.36348625335E+02 -0.22729466497E+01  0.60497853123E+02  0.41800000000E+01 0. -1.
         -5    1    3    3    0  502 -0.44738309476E+02 -0.92748461107E+02  0.31409010580E+02  0.10773946221E+03  0.41800000000E+01 0. -1.
        -11    1    1    2    0    0  0.82458884232E+02  0.57280718245E+02 -0.42650513795E+02  0.10908535465E+03  0.00000000000E+00 0. -1.
         11    1    1    2    0    0  0.10405602967E+02 -0.88088247331E+00  0.29039904668E+02  0.30860469701E+02  0.00000000000E+00 0.  1.
</event>
<event>
 7    1  0.2648915E-009  0.8111216E+02  0.7561462E-02  0.1325925E+00
          1   -1    0    0  501    0  0.00000000000E+00  0.00000000000E+00  0.30862063594E+03  0.30862063594E+03  0.00000000000E+00 0. -1.
         -1   -1    0    0    0  501 -0.00000000000E+00 -0.00000000000E+00 -0.46363115815E+02  0.46363115815E+02  0.00000000000E+00 0.  1.
         25    2    1    2    0    0 -0.34095881131E+02  0.38440532457E+02  0.14846858989E+03  0.20082521247E+03  0.12509052776E+03 0.  0.
          5    1    3    3  502    0 -0.35339903490E+02  0.49437944915E+02  0.98528302379E+01  0.61705508990E+02  0.41800000000E+01 0.  1.
         -5    1    3    3    0  502  0.12440223591E+01 -0.10997412458E+02  0.13861575965E+03  0.13911970348E+03  0.41800000000E+01 0.  1.
        -11    1    1    2    0    0  0.13270164995E+02  0.21922123144E+02  0.75440255896E+02  0.79673765894E+02  0.00000000000E+00 0. -1.
         11    1    1    2    0    0  0.20825716136E+02 -0.60362655600E+02  0.38348674342E+02  0.74484773394E+02  0.00000000000E+00 0.  1.
</event>
<event>
 7    1  0.2648915E-009  0.1280922E+03  0.7561462E-02  0.1230314E+00
         -1   -1    0    0    0  501 -0.00000000000E+00  0.00000000000E+00  0.35520527164E+03  0.35520527164E+03  0.00000000000E+00 0.  1.
          1   -1    0    0  501    0  0.00000000000E+00 -0.00000000000E+00 -0.68979880429E+02  0.68979880429E+02  0.00000000000E+00 0. -1.
         25    2    1    2    0    0 -0.57387462474E+02  0.94795785273E+02  0.13541608174E+03  0.21509730271E+03  0.12509905149E+03 0.  0.
          5    1    3    3  502    0  0.20391132816E+02  0.34409029143E+02  0.10423727817E+03  0.11172583472E+03  0.41800000000E+01 0.  1.
         -5    1    3    3    0  502 -0.77778595289E+02  0.60386756130E+02  0.31178803571E+02  0.10337146798E+03  0.41800000000E+01 0.  1.
        -11    1    1    2    0    0  0.42003059158E+01 -0.42887995505E+02  0.12198856506E+03  0.12937632216E+03  0.00000000000E+00 0.  1.
         11    1    1    2    0    0  0.53187156558E+02 -0.51907789768E+02  0.28820744402E+02  0.79711527204E+02  0.00000000000E+00 0. -1.
</event>
<event>
 7    1  0.2648915E-009  0.9436731E+02  0.7561462E-02  0.1292607E+00
         -1   -1    0    0    0  501 -0.00000000000E+00  0.00000000000E+00  0.87779009730E+02  0.87779009730E+02  0.00000000000E+00 0.  1.
          1   -1    0    0  501    0  0.00000000000E+00 -0.00000000000E+00 -0.14968765420E+03  0.14968765420E+03  0.00000000000E+00 0. -1.
         25    2    1    2    0    0  0.13717598254E+02 -0.31329796401E+02 -0.49994178492E+02  0.13898730985E+03  0.12509326829E+03 0.  0.
          5    1    3    3  502    0  0.62421920333E+02  0.11861466188E+02 -0.32296065040E+02  0.71398170392E+02  0.41800000000E+01 0. -1.
         -5    1    3    3    0  502 -0.48704322079E+02 -0.43191262590E+02 -0.17698113451E+02  0.67589139461E+02  0.41800000000E+01 0. -1.
        -11    1    1    2    0    0 -0.23977912141E+02  0.39838717890E+02 -0.43825474870E+02  0.63896290669E+02  0.00000000000E+00 0. -1.
         11    1    1    2    0    0  0.10260313887E+02 -0.85089214882E+01  0.31911008894E+02  0.34583063406E+02  0.00000000000E+00 0.  1.
</event>
<event>
 7    1  0.2648915E-009  0.8183500E+02  0.7561462E-02  0.1323923E+00
         -1   -1    0    0    0  501 -0.00000000000E+00  0.00000000000E+00  0.19359883950E+02  0.19359883950E+02  0.00000000000E+00 0.  1.
          1   -1    0    0  501    0  0.00000000000E+00 -0.00000000000E+00 -0.89581551058E+03  0.89581551058E+03  0.00000000000E+00 0. -1.
         25    2    1    2    0    0 -0.44474340242E+01 -0.58634712094E+02 -0.64159791237E+03  0.65631701421E+03  0.12508530234E+03 0.  0.
          5    1    3    3  502    0  0.93721014629E+01 -0.22533275581E+02 -0.15929339299E+02  0.29441485098E+02  0.41800000000E+01 0. -1.
         -5    1    3    3    0  502 -0.13819535487E+02 -0.36101436513E+02 -0.62566857307E+03  0.62687552912E+03  0.41800000000E+01 0. -1.
        -11    1    1    2    0    0 -0.11753999870E+01 -0.20580507951E+02 -0.16175165367E+02  0.26202573295E+02  0.00000000000E+00 0.  1.
         11    1    1    2    0    0  0.56228340112E+01  0.79215220045E+02 -0.21868254889E+03  0.23265580702E+03  0.00000000000E+00 0. -1.
</event>
<event>
 7    1  0.2648915E-009  0.2726266E+03  0.7561462E-02  0.1099786E+00
         -1   -1    0    0    0  501 -0.00000000000E+00  0.00000000000E+00  0.52839389279E+02  0.52839389279E+02  0.00000000000E+00 0.  1.
          1   -1    0    0  501    0  0.00000000000E+00 -0.00000000000E+00 -0.14185099376E+04  0.14185099376E+04  0.00000000000E+00 0. -1.
         25    2    1    2    0    0  0.22439290088E+03  0.11332130098E+03 -0.73019537634E+03  0.78232181801E+03  0.12509295778E+03 0.  0.
          5    1    3    3  502    0  0.10115295588E+03 -0.13413197813E+02 -0.31168874283E+03  0.32799265108E+03  0.41800000000E+01 0.  1.
         -5    1    3    3    0  502  0.12323994500E+03  0.12673449879E+03 -0.41850663351E+03  0.45432916693E+03  0.41800000000E+01 0.  1.
        -11    1    1    2    0    0 -0.21122701837E+03 -0.12768392949E+03 -0.58655246819E+03  0.63636769015E+03  0.00000000000E+00 0. -1.
         11    1    1    2    0    0 -0.13165882516E+02  0.14362628507E+02 -0.48922703770E+02  0.52659818687E+02  0.00000000000E+00 0.  1.
</event>
<event>
 7    1  0.2648915E-009  0.1069671E+03  0.7561462E-02  0.1266292E+00
         -1   -1    0    0    0  501 -0.00000000000E+00  0.00000000000E+00  0.56008742813E+02  0.56008742813E+02  0.00000000000E+00 0.  1.
          1   -1    0    0  501    0  0.00000000000E+00 -0.00000000000E+00 -0.33439585383E+03  0.33439585383E+03  0.00000000000E+00 0. -1.
         25    2    1    2    0    0 -0.61430677675E+02 -0.22096126689E+02 -0.22667960981E+03  0.26700747933E+03  0.12508949413E+03 0.  0.
          5    1    3    3  502    0  0.28858255203E+02 -0.30969361761E+02 -0.35698711766E+02  0.55531708807E+02  0.41800000000E+01 0.  1.
         -5    1    3    3    0  502 -0.90288932877E+02  0.88732350730E+01 -0.19098089805E+03  0.21147577053E+03  0.41800000000E+01 0.  1.
        -11    1    1    2    0    0  0.36375085166E+02  0.36620723860E+02 -0.71597706783E+02  0.88263559035E+02  0.00000000000E+00 0. -1.
         11    1    1    2    0    0  0.25055592508E+02 -0.14524597172E+02  0.19890205581E+02  0.35133558274E+02  0.00000000000E+00 0.  1.
</event>
<event>
 7    1  0.2648915E-009  0.1132120E+03  0.7561462E-02  0.1254735E+00
          2   -1    0    0  501    0  0.00000000000E+00  0.00000000000E+00  0.16753926839E+03  0.16753926839E+03  0.00000000000E+00 0.  1.
         -2   -1    0    0    0  501 -0.00000000000E+00 -0.00000000000E+00 -0.99534064388E+02  0.99534064388E+02  0.00000000000E+00 0. -1.
         25    2    1    2    0    0 -0.49640335921E+02  0.46101881689E+02  0.38423472643E+02  0.14735430542E+03  0.12508949449E+03 0.  0.
          5    1    3    3  502    0 -0.38168721157E+02  0.86325479658E+02  0.67482166679E+01  0.94720380811E+02  0.41800000000E+01 0.  1.
         -5    1    3    3    0  502 -0.11471614765E+02 -0.40223597968E+02  0.31675255975E+02  0.52633924611E+02  0.41800000000E+01 0.  1.
        -11    1    1    2    0    0  0.24126008304E+02 -0.57203927698E+02  0.54315883225E+02  0.82489810227E+02  0.00000000000E+00 0.  1.
         11    1    1    2    0    0  0.25514327617E+02  0.11102046009E+02 -0.24734151867E+02  0.37229217127E+02  0.00000000000E+00 0. -1.
</event>
<event>
 7    1  0.2648915E-009  0.1111734E+03  0.7561462E-02  0.1258412E+00
         -3   -1    0    0    0  501 -0.00000000000E+00  0.00000000000E+00  0.14580625526E+03  0.14580625526E+03  0.00000000000E+00 0.  1.
          3   -1    0    0  501    0  0.00000000000E+00 -0.00000000000E+00 -0.11272714188E+03  0.11272714188E+03  0.00000000000E+00 0. -1.
         25    2    1    2    0    0 -0.45571407388E+01  0.60785183757E+02  0.45016872804E+02  0.14625236356E+03  0.12509048291E+03 0.  0.
          5    1    3    3  502    0  0.54029619362E+02  0.59036290544E+02  0.30315193797E+02  0.85679441785E+02  0.41800000000E+01 0. -1.
         -5    1    3    3    0  502 -0.58586760101E+02  0.17488932135E+01  0.14701679007E+02  0.60572921774E+02  0.41800000000E+01 0. -1.
        -11    1    1    2    0    0 -0.23591652800E+02 -0.10505303800E+02  0.31052675015E+02  0.40388068973E+02  0.00000000000E+00 0.  1.
         11    1    1    2    0    0  0.28148793539E+02 -0.50279879958E+02 -0.42990434444E+02  0.71892964607E+02  0.00000000000E+00 0. -1.
</event>
<event>
 7    1  0.2648915E-009  0.1518509E+03  0.7561462E-02  0.1198217E+00
         -1   -1    0    0    0  501 -0.00000000000E+00  0.00000000000E+00  0.24584878099E+03  0.24584878099E+03  0.00000000000E+00 0.  1.
          1   -1    0    0  501    0  0.00000000000E+00 -0.00000000000E+00 -0.15337018938E+03  0.15337018938E+03  0.00000000000E+00 0. -1.
         25    2    1    2    0    0 -0.56455653566E+02 -0.13401842132E+03 -0.16752556411E+02  0.19254040540E+03  0.12507190529E+03 0.  0.
          5    1    3    3  502    0 -0.16803571908E+02 -0.10750165463E+03 -0.63142088251E+02  0.12587041545E+03  0.41800000000E+01 0.  1.
         -5    1    3    3    0  502 -0.39652081658E+02 -0.26516766696E+02  0.46389531840E+02  0.66669989951E+02  0.41800000000E+01 0.  1.
        -11    1    1    2    0    0 -0.11243855670E+01  0.11511324870E+02 -0.17678993046E+02  0.21126325717E+02  0.00000000000E+00 0. -1.
         11    1    1    2    0    0  0.57580039133E+02  0.12250709645E+03  0.12691014106E+03  0.18555223925E+03  0.00000000000E+00 0.  1.
</event>
<event>
 7    1  0.2648915E-009  0.1447141E+03  0.7561462E-02  0.1207123E+00
         -1   -1    0    0    0  501 -0.00000000000E+00  0.00000000000E+00  0.38673832160E+03  0.38673832160E+03  0.00000000000E+00 0.  1.
          1   -1    0    0  501    0  0.00000000000E+00 -0.00000000000E+00 -0.74991293355E+02  0.74991293355E+02  0.00000000000E+00 0. -1.
         25    2    1    2    0    0 -0.12405592530E+03 -0.21019489919E+01  0.22050125591E+03  0.28224487428E+03  0.12508826647E+03 0.  0.
          5    1    3    3  502    0 -0.22601374344E+01 -0.11759459613E+02 -0.13320807868E+02  0.18393189878E+02  0.41800000000E+01 0.  1.
         -5    1    3    3    0  502 -0.12179578787E+03  0.96575106207E+01  0.23382206378E+03  0.26385168441E+03  0.41800000000E+01 0.  1.
        -11    1    1    2    0    0  0.68391401905E+02 -0.44755885428E+02  0.45667963329E+02  0.93627111510E+02  0.00000000000E+00 0. -1.
         11    1    1    2    0    0  0.55664523398E+02  0.46857834420E+02  0.45577809004E+02  0.85857629161E+02  0.00000000000E+00 0.  1.
</event>
<event>
 7    1  0.2648915E-009  0.1559465E+03  0.7561462E-02  0.1193351E+00
          2   -1    0    0  501    0  0.00000000000E+00  0.00000000000E+00  0.41721961543E+03  0.41721961543E+03  0.00000000000E+00 0. -1.
         -2   -1    0    0    0  501 -0.00000000000E+00 -0.00000000000E+00 -0.78814225552E+02  0.78814225552E+02  0.00000000000E+00 0.  1.
         25    2    1    2    0    0  0.43837447846E+02  0.13615948985E+03  0.14882663291E+03  0.24136733277E+03  0.12509074368E+03 0.  0.
          5    1    3    3  502    0  0.15751451246E+02 -0.10127982066E+02  0.70407775799E+02  0.72975417299E+02  0.41800000000E+01 0. -1.
         -5    1    3    3    0  502  0.28085996600E+02  0.14628747192E+03  0.78418857112E+02  0.16839191547E+03  0.41800000000E+01 0. -1.
        -11    1    1    2    0    0 -0.49805385608E+01 -0.34458347423E+02 -0.13895402115E+01  0.34844142886E+02  0.00000000000E+00 0.  1.
         11    1    1    2    0    0 -0.38856909286E+02 -0.10170114243E+03  0.19096829718E+03  0.21982236533E+03  0.00000000000E+00 0. -1.
</event>
<event>
 7    1  0.2648915E-009  0.1630265E+03  0.7561462E-02  0.1185322E+00
         -2   -1    0    0    0  501 -0.00000000000E+00  0.00000000000E+00  0.85649616650E+02  0.85649616650E+02  0.00000000000E+00 0. -1.
          2   -1    0    0  501    0  0.00000000000E+00 -0.00000000000E+00 -0.44090701907E+03  0.44090701907E+03  0.00000000000E+00 0.  1.
         25    2    1    2    0    0  0.50510491423E+01  0.12304216120E+03 -0.32630795750E+03  0.37052567492E+03  0.12508999208E+03 0.  0.
          5    1    3    3  502    0  0.44537055393E+02  0.12415039509E+01 -0.58498909538E+02  0.73652463993E+02  0.41800000000E+01 0.  1.
         -5    1    3    3    0  502 -0.39486006251E+02  0.12180065725E+03 -0.26780904796E+03  0.29687321093E+03  0.41800000000E+01 0.  1.
        -11    1    1    2    0    0  0.43098936089E+02 -0.59457866239E+02 -0.17065035309E+02  0.75392118818E+02  0.00000000000E+00 0.  1.
         11    1    1    2    0    0 -0.48149985231E+02 -0.63584294963E+02 -0.11884409607E+02  0.80638841977E+02  0.00000000000E+00 0. -1.
</event>
<event>
 7    1  0.2648915E-009  0.8954476E+02  0.7561462E-02  0.1303958E+00
          1   -1    0    0  501    0  0.00000000000E+00  0.00000000000E+00  0.72990204813E+03  0.72990204813E+03  0.00000000000E+00 0. -1.
         -1   -1    0    0    0  501 -0.00000000000E+00 -0.00000000000E+00 -0.30778848519E+02  0.30778848519E+02  0.00000000000E+00 0.  1.
         25    2    1    2    0    0 -0.17985624511E+02 -0.40621722224E+02  0.61575657477E+03  0.62990318265E+03  0.12509297792E+03 0.  0.
          5    1    3    3  502    0 -0.31753239793E+02 -0.82241372666E+02  0.43461047784E+03  0.44348128649E+03  0.41800000000E+01 0. -1.
         -5    1    3    3    0  502  0.13767615282E+02  0.41619650442E+02  0.18114609693E+03  0.18642189616E+03  0.41800000000E+01 0. -1.
        -11    1    1    2    0    0  0.20537810321E+01  0.22793758162E+02  0.99393081581E+02  0.10199391204E+03  0.00000000000E+00 0. -1.
         11    1    1    2    0    0  0.15931843479E+02  0.17827964062E+02 -0.16026456746E+02  0.28783801957E+02  0.00000000000E+00 0.  1.
</event>
<event>
 7    1  0.2648915E-009  0.9149742E+02  0.7561462E-02  0.1299265E+00
          2   -1    0    0  501    0  0.00000000000E+00  0.00000000000E+00  0.40802129259E+03  0.40802129259E+03  0.00000000000E+00 0. -1.
         -2   -1    0    0    0  501 -0.00000000000E+00 -0.00000000000E+00 -0.31408817653E+02  0.31408817653E+02  0.00000000000E+00 0.  1.
         25    2    1    2    0    0 -0.28398753750E+01 -0.43601034873E+01  0.27846841716E+03  0.30531848494E+03  0.12509053720E+03 0.  0.
          5    1    3    3  502    0  0.42372117553E+02  0.42074905701E+02  0.14569639734E+03  0.15751382997E+03  0.41800000000E+01 0. -1.
         -5    1    3    3    0  502 -0.45211992928E+02 -0.46435009188E+02  0.13277201982E+03  0.14780465497E+03  0.41800000000E+01 0. -1.
        -11    1    1    2    0    0 -0.64991117403E+00  0.31158848998E+02 -0.11686703193E+01  0.31187530293E+02  0.00000000000E+00 0.  1.
         11    1    1    2    0    0  0.34897865490E+01 -0.26798745511E+02  0.99312728095E+02  0.10292409501E+03  0.00000000000E+00 0. -1.
</event>
<event>
 7    1  0.2648915E-009  0.1157312E+03  0.7561462E-02  0.1250310E+00
          1   -1    0    0  501    0  0.00000000000E+00  0.00000000000E+00  0.89645317487E+02  0.89645317487E+02  0.00000000000E+00 0. -1.
         -1   -1    0    0    0  501 -0.00000000000E+00 -0.00000000000E+00 -0.21152735820E+03  0.21152735820E+03  0.00000000000E+00 0.  1.
         25    2    1    2    0    0 -0.82380014860E+02  0.55476581600E+01 -0.45612061514E+02  0.15667031092E+03  0.12509149774E+03 0.  0.
          5    1    3    3  502    0  0.24809318441E+02  0.28902217120E+02 -0.14765550793E+01  0.38347008369E+02  0.41800000000E+01 0.  1.
         -5    1    3    3    0  502 -0.10718933330E+03 -0.23354558960E+02 -0.44135506435E+02  0.11832330255E+03  0.41800000000E+01 0.  1.
        -11    1    1    2    0    0  0.50962648374E+02  0.21699790596E+01  0.10341071975E+02  0.52046499479E+02  0.00000000000E+00 0. -1.
         11    1    1    2    0    0  0.31417366486E+02 -0.77176372196E+01 -0.86611051169E+02  0.92455865286E+02  0.00000000000E+00 0.  1.
</event>
<event>
 7    1  0.2648915E-009  0.1424140E+03  0.7561462E-02  0.1210117E+00
          2   -1    0    0  501    0  0.00000000000E+00  0.00000000000E+00  0.27372948586E+03  0.27372948586E+03  0.00000000000E+00 0. -1.
         -2   -1    0    0    0  501 -0.00000000000E+00 -0.00000000000E+00 -0.14171622598E+03  0.14171622598E+03  0.00000000000E+00 0.  1.
         25    2    1    2    0    0  0.64823384308E+02 -0.11145208245E+03  0.17155286184E+03  0.24839613268E+03  0.12508643607E+03 0.  0.
          5    1    3    3  502    0  0.32985463664E+02 -0.53837249244E+02  0.17111046091E+03  0.18243561180E+03  0.41800000000E+01 0. -1.
         -5    1    3    3    0  502  0.31837920644E+02 -0.57614833203E+02  0.44240092846E+00  0.65960520879E+02  0.41800000000E+01 0. -1.
        -11    1    1    2    0    0 -0.85862726190E+02  0.99383009991E+02 -0.50135681610E+02  0.14058085572E+03  0.00000000000E+00 0.  1.
         11    1    1    2    0    0  0.21039341882E+02  0.12069072456E+02  0.10596079653E+02  0.26468723445E+02  0.00000000000E+00 0. -1.
</event>
<event>
 7    1  0.2648915E-009  0.1020494E+03  0.7561462E-02  0.1276045E+00
          1   -1    0    0  501    0  0.00000000000E+00  0.00000000000E+00  0.12631289629E+03  0.12631289629E+03  0.00000000000E+00 0. -1.
         -1   -1    0    0    0  501 -0.00000000000E+00 -0.00000000000E+00 -0.10837936288E+03  0.10837936288E+03  0.00000000000E+00 0.  1.
         25    2    1    2    0    0  0.39286765532E+02 -0.26638057865E+02 -0.58906248076E+01  0.13392578062E+03  0.12509348177E+03 0.  0.
          5    1    3    3  502    0  0.35337014842E+02 -0.75312409292E+02 -0.13317484890E+02  0.84353372281E+02  0.41800000000E+01 0. -1.
         -5    1    3    3    0  502  0.39497506897E+01  0.48674351428E+02  0.74268600827E+01  0.49572408335E+02  0.41800000000E+01 0. -1.
        -11    1    1    2    0    0  0.11597270253E+02 -0.41493908995E+01 -0.22318888341E+02  0.25492094832E+02  0.00000000000E+00 0.  1.
         11    1    1    2    0    0 -0.50884035785E+02  0.30787448764E+02  0.46143046555E+02  0.75274383721E+02  0.00000000000E+00 0. -1.
</event>
<event>
 7    1  0.2648915E-009  0.1610965E+03  0.7561462E-02  0.1187464E+00
         -1   -1    0    0    0  501 -0.00000000000E+00  0.00000000000E+00  0.33548998499E+02  0.33548998499E+02  0.00000000000E+00 0.  1.
          1   -1    0    0  501    0  0.00000000000E+00 -0.00000000000E+00 -0.91317950519E+03  0.91317950519E+03  0.00000000000E+00 0. -1.
         25    2    1    2    0    0 -0.12160379447E+03  0.51164238068E+02 -0.58176921138E+03  0.60951478630E+03  0.12509035662E+03 0.  0.
          5    1    3    3  502    0 -0.14878919650E+01  0.58260878935E+02 -0.24499501933E+03  0.25186618617E+03  0.41800000000E+01 0. -1.
         -5    1    3    3    0  502 -0.12011590250E+03 -0.70966408669E+01 -0.33677419205E+03  0.35764860013E+03  0.41800000000E+01 0. -1.
        -11    1    1    2    0    0  0.11097692870E+02  0.11784862181E+02 -0.35112137557E+01  0.16564129488E+02  0.00000000000E+00 0.  1.
         11    1    1    2    0    0  0.11050610160E+03 -0.62949100248E+02 -0.29435008155E+03  0.32064958790E+03  0.00000000000E+00 0. -1.
</event>
<event>
 7    1  0.2648915E-009  0.7621981E+02  0.7561462E-02  0.1340135E+00
          1   -1    0    0  501    0  0.00000000000E+00  0.00000000000E+00  0.18511318422E+03  0.18511318422E+03  0.00000000000E+00 0. -1.
         -1   -1    0    0    0  501 -0.00000000000E+00 -0.00000000000E+00 -0.83289720524E+02  0.83289720524E+02  0.00000000000E+00 0.  1.
         25    2    1    2    0    0  0.13075931889E+02 -0.66798511199E+00  0.12128543870E+03  0.17472696930E+03  0.12509168622E+03 0.  0.
          5    1    3    3  502    0 -0.17204943501E+02 -0.18598982198E+02 -0.17769236044E+02  0.31227397735E+02  0.41800000000E+01 0. -1.
         -5    1    3    3    0  502  0.30280875390E+02  0.17930997086E+02  0.13905467475E+03  0.14349957157E+03  0.41800000000E+01 0. -1.
        -11    1    1    2    0    0  0.44002110382E+01 -0.43551941164E+02 -0.54839087734E+01  0.44115832666E+02  0.00000000000E+00 0.  1.
         11    1    1    2    0    0 -0.17476142927E+02  0.44219926276E+02 -0.13978066235E+02  0.49560102776E+02  0.00000000000E+00 0. -1.
</event>
<event>
 7    1  0.2648915E-009  0.4986597E+03  0.7561462E-02  0.1014129E+00
          1   -1    0    0  501    0  0.00000000000E+00  0.00000000000E+00  0.40846116405E+03  0.40846116405E+03  0.00000000000E+00 0. -1.
         -1   -1    0    0    0  501 -0.00000000000E+00 -0.00000000000E+00 -0.63613497485E+03  0.63613497485E+03  0.00000000000E+00 0.  1.
         25    2    1    2    0    0  0.32896512095E+03 -0.37359568969E+03 -0.11570035610E+03  0.52614661498E+03  0.12510754534E+03 0.  0.
          5    1    3    3  502    0  0.23832895167E+03 -0.29576719873E+03 -0.34057301691E+02  0.38138733231E+03  0.41800000000E+01 0.  1.
         -5    1    3    3    0  502  0.90636169286E+02 -0.77828490958E+02 -0.81643054407E+02  0.14475928267E+03  0.41800000000E+01 0.  1.
        -11    1    1    2    0    0 -0.26450732738E+03  0.29344048970E+03 -0.49606420715E+02  0.39816107822E+03  0.00000000000E+00 0. -1.
         11    1    1    2    0    0 -0.64457793577E+02  0.80155199989E+02 -0.62367033992E+02  0.12028844569E+03  0.00000000000E+00 0.  1.
</event>
<event>
 7    1  0.2648915E-009  0.8482847E+02  0.7561462E-02  0.1315882E+00
          1   -1    0    0  501    0  0.00000000000E+00  0.00000000000E+00  0.10002032149E+03  0.10002032149E+03  0.00000000000E+00 0. -1.
         -1   -1    0    0    0  501 -0.00000000000E+00 -0.00000000000E+00 -0.12425895348E+03  0.12425895348E+03  0.00000000000E+00 0.  1.
         25    2    1    2    0    0  0.11061483018E+02  0.11833374089E+02 -0.33415088865E+02  0.13048577857E+03  0.12509030776E+03 0.  0.
          5    1    3    3  502    0  0.41837973052E+01  0.43825692963E+02  0.33767363140E+02  0.55640836955E+02  0.41800000000E+01 0. -1.
         -5    1    3    3    0  502  0.68776857125E+01 -0.31992318874E+02 -0.67182452005E+02  0.74844941613E+02  0.41800000000E+01 0. -1.
        -11    1    1    2    0    0 -0.27946289370E+02  0.33759557407E+02 -0.21282989015E+01  0.43877471008E+02  0.00000000000E+00 0. -1.
         11    1    1    2    0    0  0.16884806353E+02 -0.45592931496E+02  0.11304755781E+02  0.49916025395E+02  0.00000000000E+00 0.  1.
</event>
<event>
 7    1  0.2648915E-009  0.1626369E+03  0.7561462E-02  0.1185751E+00
          2   -1    0    0  501    0  0.00000000000E+00  0.00000000000E+00  0.54980534630E+03  0.54980534630E+03  0.00000000000E+00 0.  1.
         -2   -1    0    0    0  501 -0.00000000000E+00 -0.00000000000E+00 -0.49993798480E+02  0.49993798480E+02  0.00000000000E+00 0. -1.
         25    2    1    2    0    0  0.65273100932E+02  0.10068086529E+03  0.29448613700E+03  0.34171141180E+03  0.12508952683E+03 0.  0.
          5    1    3    3  502    0  0.90925758325E+02  0.11246505734E+03  0.25041078561E+03  0.28920393600E+03  0.41800000000E+01 0.  1.
         -5    1    3    3    0  502 -0.25652657393E+02 -0.11784192050E+02  0.44075351392E+02  0.52507475791E+02  0.41800000000E+01 0.  1.
        -11    1    1    2    0    0  0.23113791429E+02 -0.34958189462E+02  0.32011339605E+02  0.52735644758E+02  0.00000000000E+00 0. -1.
         11    1    1    2    0    0 -0.88386892361E+02 -0.65722675829E+02  0.17331407121E+03  0.20535208823E+03  0.00000000000E+00 0.  1.
</event>
<event>
 7    1  0.2648915E-009  0.1132627E+03  0.7561462E-02  0.1254644E+00
         -2   -1    0    0    0  501 -0.00000000000E+00  0.00000000000E+00  0.11807982880E+03  0.11807982880E+03  0.00000000000E+00 0.  1.
          2   -1    0    0  501    0  0.00000000000E+00 -0.00000000000E+00 -0.19074952304E+03  0.19074952304E+03  0.00000000000E+00 0. -1.
         25    2    1    2    0    0  0.46902287291E+02  0.58293076975E+02 -0.11347761946E+03  0.18472639387E+03  0.12509501629E+03 0.  0.
          5    1    3    3  502    0  0.80405991976E+02  0.28222403209E+01 -0.57327411070E+02  0.98878678420E+02  0.41800000000E+01 0. -1.
         -5    1    3    3    0  502 -0.33503704685E+02  0.55470836654E+02 -0.56150208388E+02  0.85847715455E+02  0.41800000000E+01 0. -1.
        -11    1    1    2    0    0 -0.42176200010E+02 -0.28605743042E+02 -0.21197512491E+02  0.55194700090E+02  0.00000000000E+00 0. -1.
         11    1    1    2    0    0 -0.47260872809E+01 -0.29687333933E+02  0.62005437712E+02  0.68908257871E+02  0.00000000000E+00 0.  1.
</event>
<event>
 7    1  0.2648915E-009  0.1123670E+03  0.7561462E-02  0.1256248E+00
          1   -1    0    0  501    0  0.00000000000E+00  0.00000000000E+00  0.30314830021E+03  0.30314830021E+03  0.00000000000E+00 0. -1.
         -1   -1    0    0    0  501 -0.00000000000E+00 -0.00000000000E+00 -0.43899266502E+02  0.43899266502E+02  0.00000000000E+00 0.  1.
         25    2    1    2    0    0 -0.38518699287E+02 -0.38521389512E+01  0.14303849422E+03  0.19392094512E+03  0.12508714147E+03 0.  0.
          5    1    3    3  502    0 -0.66541799272E+02  0.38430550572E+02  0.64906881003E+02  0.10067320333E+03  0.41800000000E+01 0. -1.
         -5    1    3    3    0  502  0.28023099985E+02 -0.42282689523E+02  0.78131613213E+02  0.93247741792E+02  0.41800000000E+01 0. -1.
        -11    1    1    2    0    0 -0.60021684093E+01 -0.36381515530E+02  0.62635681547E+02  0.72683349543E+02  0.00000000000E+00 0. -1.
         11    1    1    2    0    0  0.44520867696E+02  0.40233654481E+02  0.53574857940E+02  0.80443272041E+02  0.00000000000E+00 0.  1.
</event>
<event>
 7    1  0.2648915E-009  0.2461117E+03  0.7561462E-02  0.1115787E+00
          1   -1    0    0  501    0  0.00000000000E+00  0.00000000000E+00  0.47084927449E+03  0.47084927449E+03  0.00000000000E+00 0. -1.
         -1   -1    0    0    0  501 -0.00000000000E+00 -0.00000000000E+00 -0.17908353777E+03  0.17908353777E+03  0.00000000000E+00 0.  1.
         25    2    1    2    0    0 -0.17320341750E+03 -0.15521570469E+03 -0.24267562149E+01  0.26409265594E+03  0.12509077888E+03 0.  0.
          5    1    3    3  502    0  0.14148957720E+02 -0.12351973948E+02 -0.20050845523E+02  0.27789801568E+02  0.41800000000E+01 0. -1.
         -5    1    3    3    0  502 -0.18735237522E+03 -0.14286373074E+03  0.17624089308E+02  0.23630285437E+03  0.41800000000E+01 0. -1.
        -11    1    1    2    0    0  0.30862080694E+02  0.55632012272E+02  0.13912094314E+03  0.15297720625E+03  0.00000000000E+00 0. -1.
         11    1    1    2    0    0  0.14234133680E+03  0.99583692413E+02  0.15507154980E+03  0.23286295007E+03  0.00000000000E+00 0.  1.
</event>
<event>
 7    1  0.2648915E-009  0.1999327E+03  0.7561462E-02  0.1149796E+00
          2   -1    0    0  501    0  0.00000000000E+00  0.00000000000E+00  0.11035498553E+04  0.11035498553E+04  0.00000000000E+00 0. -1.
         -2   -1    0    0    0  501 -0.00000000000E+00 -0.00000000000E+00 -0.37955901137E+02  0.37955901137E+02  0.00000000000E+00 0.  1.
         25    2    1    2    0    0 -0.16930839410E+03 -0.25013888873E+02  0.46895244252E+03  0.51464060793E+03  0.12509010768E+03 0.  0.
          5    1    3    3  502    0 -0.56704003822E+02  0.50741004317E+02  0.16778212593E+03  0.18427780048E+03  0.41800000000E+01 0. -1.
         -5    1    3    3    0  502 -0.11260439027E+03 -0.75754893191E+02  0.30117031659E+03  0.33036280745E+03  0.41800000000E+01 0. -1.
        -11    1    1    2    0    0  0.36663183597E+02  0.40152757466E+02  0.23927045354E+03  0.24537070506E+03  0.00000000000E+00 0. -1.
         11    1    1    2    0    0  0.13264521050E+03 -0.15138868593E+02  0.35737105809E+03  0.38149444344E+03  0.00000000000E+00 0.  1.
</event>
<event>
 7    1  0.2648915E-009  0.1154260E+03  0.7561462E-02  0.1250839E+00
         -3   -1    0    0    0  501 -0.00000000000E+00  0.00000000000E+00  0.19153533521E+02  0.19153533521E+02  0.00000000000E+00 0.  1.
          3   -1    0    0  501    0  0.00000000000E+00 -0.00000000000E+00 -0.72501704083E+03  0.72501704083E+03  0.00000000000E+00 0. -1.
         25    2    1    2    0    0  0.51716422887E+01 -0.38525237055E+02 -0.46853633387E+03  0.48650107938E+03  0.12508422887E+03 0.  0.
          5    1    3    3  502    0 -0.59526795213E+02 -0.23137173556E+02 -0.21184591759E+03  0.22130280917E+03  0.41800000000E+01 0.  1.
         -5    1    3    3    0  502  0.64698437502E+02 -0.15388063499E+02 -0.25669041628E+03  0.26519827021E+03  0.41800000000E+01 0.  1.
        -11    1    1    2    0    0  0.42188512110E+02  0.56536437193E+01 -0.10734597611E+03  0.11547723944E+03  0.00000000000E+00 0. -1.
         11    1    1    2    0    0 -0.47360154398E+02  0.32871593335E+02 -0.12998119734E+03  0.14219225554E+03  0.00000000000E+00 0.  1.
</event>
<event>
 7    1  0.2648915E-009  0.1708725E+03  0.7561462E-02  0.1176941E+00
         -1   -1    0    0    0  501 -0.00000000000E+00  0.00000000000E+00  0.18184191150E+03  0.18184191150E+03  0.00000000000E+00 0.  1.
          1   -1    0    0  501    0  0.00000000000E+00 -0.00000000000E+00 -0.21492325992E+03  0.21492325992E+03  0.00000000000E+00 0. -1.
         25    2    1    2    0    0 -0.11555329580E+03  0.57128821736E+02 -0.97862265406E+02  0.20455345814E+03  0.12509527490E+03 0.  0.
          5    1    3    3  502    0  0.39836714425E+01 -0.30525573364E+02 -0.21279776799E+02  0.37656096026E+02  0.41800000000E+01 0. -1.
         -5    1    3    3    0  502 -0.11953696725E+03  0.87654395100E+02 -0.76582488607E+02  0.16689736211E+03  0.41800000000E+01 0. -1.
        -11    1    1    2    0    0  0.14117856116E+02 -0.59272131304E+02  0.67219093170E+02  0.90724340158E+02  0.00000000000E+00 0.  1.
         11    1    1    2    0    0  0.10143543969E+03  0.21433095673E+01 -0.24381761819E+01  0.10148737312E+03  0.00000000000E+00 0. -1.
</event>
<event>
 7    1  0.2648915E-009  0.1269640E+03  0.7561462E-02  0.1232031E+00
         -2   -1    0    0    0  501 -0.00000000000E+00  0.00000000000E+00  0.21850939090E+02  0.21850939090E+02  0.00000000000E+00 0.  1.
          2   -1    0    0  501    0  0.00000000000E+00 -0.00000000000E+00 -0.83246159605E+03  0.83246159605E+03  0.00000000000E+00 0. -1.
         25    2    1    2    0    0 -0.63451989979E+02 -0.26402401626E+02 -0.31708690744E+03  0.34772799156E+03  0.12508959748E+03 0.  0.
          5    1    3    3  502    0 -0.76039269986E+02  0.31059329239E+02 -0.15924358544E+03  0.17922791193E+03  0.41800000000E+01 0. -1.
         -5    1    3    3    0  502  0.12587280007E+02 -0.57461730865E+02 -0.15784332200E+03  0.16850007962E+03  0.41800000000E+01 0. -1.
        -11    1    1    2    0    0 -0.22920534753E+02  0.88709748755E+01 -0.14630508094E+03  0.14835505322E+03  0.00000000000E+00 0. -1.
         11    1    1    2    0    0  0.86372524732E+02  0.17531426751E+02 -0.34721866859E+03  0.35822949037E+03  0.00000000000E+00 0.  1.
</event>
<event>
 7    1  0.2648915E-009  0.9597335E+02  0.7561462E-02  0.1288999E+00
          3   -1    0    0  501    0  0.00000000000E+00  0.00000000000E+00  0.10154013664E+03  0.10154013664E+03  0.00000000000E+00 0. -1.
         -3   -1    0    0    0  501 -0.00000000000E+00 -0.00000000000E+00 -0.13837085992E+03  0.13837085992E+03  0.00000000000E+00 0.  1.
         25    2    1    2    0    0 -0.33685838411E+02  0.38448328649E+02 -0.13888588486E+01  0.13513886280E+03  0.12509026191E+03 0.  0.
          5    1    3    3  502    0 -0.16344821628E+02 -0.38288495955E+02 -0.29823601068E+02  0.51381725323E+02  0.41800000000E+01 0.  1.
         -5    1    3    3    0  502 -0.17341016783E+02  0.76736824604E+02  0.28434742219E+02  0.83757137477E+02  0.41800000000E+01 0.  1.
        -11    1    1    2    0    0  0.10140948986E+02 -0.45601789156E+02 -0.55843606306E+02  0.72807076482E+02  0.00000000000E+00 0.  1.
         11    1    1    2    0    0  0.23544889425E+02  0.71534605076E+01  0.20401741879E+02  0.31965057281E+02  0.00000000000E+00 0. -1.
</event>
<event>
 7    1  0.2648915E-009  0.1107863E+03  0.7561462E-02  0.1259121E+00
         -1   -1    0    0    0  501 -0.00000000000E+00  0.00000000000E+00  0.30792965356E+02  0.30792965356E+02  0.00000000000E+00 0.  1.
          1   -1    0    0  501    0  0.00000000000E+00 -0.00000000000E+00 -0.79557472083E+03  0.79557472083E+03  0.00000000000E+00 0. -1.
         25    2    1    2    0    0 -0.62412501685E+01  0.25707975958E+02 -0.69672545738E+03  0.70836013769E+03  0.12509144047E+03 0.  0.
          5    1    3    3  502    0 -0.56675572014E+02 -0.19325235513E+02 -0.31409124504E+03  0.31977549593E+03  0.41800000000E+01 0.  1.
         -5    1    3    3    0  502  0.50434321846E+02  0.45033211471E+02 -0.38263421234E+03  0.38858464176E+03  0.41800000000E+01 0.  1.
        -11    1    1    2    0    0  0.43448899929E+02 -0.34607426515E+02 -0.26571689104E+02  0.61575445892E+02  0.00000000000E+00 0. -1.
         11    1    1    2    0    0 -0.37207649760E+02  0.88994505570E+01 -0.41484608991E+02  0.56432102602E+02  0.00000000000E+00 0.  1.
</event>
<event>
 7    1  0.2648915E-009  0.1223990E+03  0.7561462E-02  0.1239191E+00
         -1   -1    0    0    0  501 -0.00000000000E+00  0.00000000000E+00  0.10334732155E+04  0.10334732155E+04  0.00000000000E+00 0.  1.
          1   -1    0    0  501    0  0.00000000000E+00 -0.00000000000E+00 -0.48408859237E+02  0.48408859237E+02  0.00000000000E+00 0. -1.
         25    2    1    2    0    0 -0.71798089321E+02  0.26602583080E+02  0.94035134971E+03  0.95172083039E+03  0.12509682268E+03 0.  0.
          5    1    3    3  502    0 -0.28254814246E+02 -0.38550510321E+02  0.62169559584E+03  0.62354419464E+03  0.41800000000E+01 0. -1.
         -5    1    3    3    0  502 -0.43543275075E+02  0.65153093400E+02  0.31865575387E+03  0.32817663575E+03  0.41800000000E+01 0. -1.
        -11    1    1    2    0    0  0.59838468555E+02  0.25383521141E+02  0.40646836792E+02  0.76662447167E+02  0.00000000000E+00 0.  1.
         11    1    1    2    0    0  0.11959620766E+02 -0.51986104220E+02  0.40661697419E+01  0.53498797157E+02  0.00000000000E+00 0. -1.
</event>
<event>
 7    1  0.2648915E-009  0.9823957E+02  0.7561462E-02  0.1284042E+00
         -2   -1    0    0    0  501 -0.00000000000E+00  0.00000000000E+00  0.57544182537E+02  0.57544182537E+02  0.00000000000E+00 0. -1.
          2   -1    0    0  501    0  0.00000000000E+00 -0.00000000000E+00 -0.26233393680E+03  0.26233393680E+03  0.00000000000E+00 0.  1.
         25    2    1    2    0    0  0.50098864304E+02 -0.11932883967E+02 -0.80129404799E+02  0.15722509040E+03  0.12508684029E+03 0.  0.
          5    1    3    3  502    0 -0.27006731235E+02  0.34009279324E+02 -0.38544399678E+02  0.58216301485E+02  0.41800000000E+01 0. -1.
         -5    1    3    3    0  502  0.77105595538E+02 -0.45942163291E+02 -0.41585005121E+02  0.99008788913E+02  0.41800000000E+01 0. -1.
        -11    1    1    2    0    0 -0.37855765729E+02  0.24785167147E+02 -0.13481336846E+03  0.14220410622E+03  0.00000000000E+00 0.  1.
         11    1    1    2    0    0 -0.12243098575E+02 -0.12852283180E+02  0.10153018998E+02  0.20448922720E+02  0.00000000000E+00 0. -1.
</event>
<event>
 7    1  0.2648915E-009  0.1049928E+03  0.7561462E-02  0.1270134E+00
          2   -1    0    0  501    0  0.00000000000E+00  0.00000000000E+00  0.27214055743E+04  0.27214055743E+04  0.00000000000E+00 0. -1.
         -2   -1    0    0    0  501 -0.00000000000E+00 -0.00000000000E+00 -0.79961233184E+01  0.79961233184E+01  0.00000000000E+00 0.  1.
         25    2    1    2    0    0 -0.12899338642E+02  0.57500829042E+02  0.22372013341E+04  0.22414704826E+04  0.12508947462E+03 0.  0.
          5    1    3    3  502    0  0.26068713847E+02 -0.15805518575E+02  0.13579332531E+04  0.13582818502E+04  0.41800000000E+01 0.  1.
         -5    1    3    3    0  502 -0.38968052489E+02  0.73306347617E+02  0.87926808104E+03  0.88318863243E+03  0.41800000000E+01 0.  1.
        -11    1    1    2    0    0  0.75332029449E+01  0.18460616968E+02  0.35709389168E+02  0.40898704138E+02  0.00000000000E+00 0.  1.
         11    1    1    2    0    0  0.53661356975E+01 -0.75961446010E+02  0.44049872769E+03  0.44703251088E+03  0.00000000000E+00 0. -1.
</event>
<event>
 7    1  0.2648915E-009  0.1449790E+03  0.7561462E-02  0.1206782E+00
         -1   -1    0    0    0  501 -0.00000000000E+00  0.00000000000E+00  0.29263991553E+02  0.29263991553E+02  0.00000000000E+00 0.  1.
          1   -1    0    0  501    0  0.00000000000E+00 -0.00000000000E+00 -0.93168566978E+03  0.93168566978E+03  0.00000000000E+00 0. -1.
         25    2    1    2    0    0  0.43030134856E+02  0.12149205176E+03 -0.49450388641E+03  0.52611124057E+03  0.12508809948E+03 0.  0.
          5    1    3    3  502    0  0.73089443792E+01  0.93448981621E+02 -0.13906074534E+03  0.16775427306E+03  0.41800000000E+01 0.  1.
         -5    1    3    3    0  502  0.35721190477E+02  0.28043070140E+02 -0.35544314106E+03  0.35835696751E+03  0.41800000000E+01 0.  1.
        -11    1    1    2    0    0 -0.36308368865E+02 -0.84445209982E+01 -0.10796757825E+03  0.11422173846E+03  0.00000000000E+00 0.  1.
         11    1    1    2    0    0 -0.67217659903E+01 -0.11304753076E+03 -0.29995021357E+03  0.32061668230E+03  0.00000000000E+00 0. -1.
</event>
<event>
 7    1  0.2648915E-009  0.1073339E+03  0.7561462E-02  0.1265588E+00
          3   -1    0    0  501    0  0.00000000000E+00  0.00000000000E+00  0.10708008879E+03  0.10708008879E+03  0.00000000000E+00 0. -1.
         -3   -1    0    0    0  501 -0.00000000000E+00 -0.00000000000E+00 -0.11945305393E+03  0.11945305393E+03  0.00000000000E+00 0.  1.
         25    2    1    2    0    0  0.94574049592E+01 -0.72770488456E+01  0.24048535289E+02  0.12793787834E+03  0.12508945086E+03 0.  0.
          5    1    3    3  502    0  0.56990293967E+02  0.30083036612E+02  0.68382936988E+01  0.64939335991E+02  0.41800000000E+01 0. -1.
         -5    1    3    3    0  502 -0.47532889008E+02 -0.37360085458E+02  0.17210241590E+02  0.62998542352E+02  0.41800000000E+01 0. -1.
        -11    1    1    2    0    0 -0.30904047615E+02 -0.32156273932E+02 -0.75764230591E+01  0.45238128813E+02  0.00000000000E+00 0. -1.
         11    1    1    2    0    0  0.21446642656E+02  0.39433322777E+02 -0.28845077375E+02  0.53357135560E+02  0.00000000000E+00 0.  1.
</event>
<event>
 7    1  0.2648915E-009  0.1354391E+03  0.7561462E-02  0.1219601E+00
         -1   -1    0    0    0  501 -0.00000000000E+00  0.00000000000E+00  0.24339537876E+02  0.24339537876E+02  0.00000000000E+00 0.  1.
          1   -1    0    0  501    0  0.00000000000E+00 -0.00000000000E+00 -0.90079199875E+03  0.90079199875E+03  0.00000000000E+00 0. -1.
         25    2    1    2    0    0 -0.40217717875E+02  0.77939102517E+02 -0.60066211792E+03  0.61978558732E+03  0.12508887166E+03 0.  0.
          5    1    3    3  502    0 -0.68465008226E+02  0.33326477724E+01 -0.35098766649E+03  0.35764280829E+03  0.41800000000E+01 0.  1.
         -5    1    3    3    0  502  0.28247290351E+02  0.74606454744E+02 -0.24967445142E+03  0.26214277903E+03  0.41800000000E+01 0.  1.
        -11    1    1    2    0    0 -0.14251054665E+02  0.11017107023E+02 -0.11900400589E+02  0.21589088457E+02  0.00000000000E+00 0.  1.
         11    1    1    2    0    0  0.54468772539E+02 -0.88956209540E+02 -0.26388994237E+03  0.28375686086E+03  0.00000000000E+00 0. -1.
</event>
<event>
 7    1  0.2648915E-009  0.7951776E+02  0.7561462E-02  0.1330426E+00
         -1   -1    0    0    0  501 -0.00000000000E+00  0.00000000000E+00  0.27880052180E+03  0.27880052180E+03  0.00000000000E+00 0.  1.
          1   -1    0    0  501    0  0.00000000000E+00 -0.00000000000E+00 -0.63080600785E+02  0.63080600785E+02  0.00000000000E+00 0. -1.
         25    2    1    2    0    0  0.38137397886E+02 -0.33944208358E+02  0.18957362039E+03  0.23279257698E+03  0.12509019127E+03 0.  0.
          5    1    3    3  502    0  0.52439445955E+01 -0.10933243952E+02 -0.17570109152E+02  0.21753526470E+02  0.41800000000E+01 0. -1.
         -5    1    3    3    0  502  0.32893453291E+02 -0.23010964406E+02  0.20714372955E+03  0.21103905051E+03  0.41800000000E+01 0. -1.
        -11    1    1    2    0    0  0.27899687166E+02  0.28029012466E+02  0.80009783522E+01  0.40348900089E+02  0.00000000000E+00 0.  1.
         11    1    1    2    0    0 -0.66037085053E+02  0.59151958924E+01  0.18145322271E+02  0.68739645511E+02  0.00000000000E+00 0. -1.
</event>
<event>
 7    1  0.2648915E-009  0.1496712E+03  0.7561462E-02  0.1200878E+00
         -4   -1    0    0    0  501 -0.00000000000E+00  0.00000000000E+00  0.13060095859E+03  0.13060095859E+03  0.00000000000E+00 0.  1.
          4   -1    0    0  501    0  0.00000000000E+00 -0.00000000000E+00 -0.24644408508E+03  0.24644408508E+03  0.00000000000E+00 0. -1.
         25    2    1    2    0    0 -0.81638859834E+02  0.71012281803E+02  0.20433458646E+02  0.16665074872E+03  0.12508916106E+03 0.  0.
          5    1    3    3  502    0 -0.28092867463E+02 -0.33193055696E+02 -0.11447441541E+02  0.45160873182E+02  0.41800000000E+01 0.  1.
         -5    1    3    3    0  502 -0.53545992371E+02  0.10420533750E+03  0.31880900188E+02  0.12148987554E+03  0.41800000000E+01 0.  1.
        -11    1    1    2    0    0  0.46176368265E+02  0.12378091387E+02 -0.13046707088E+01  0.47824432021E+02  0.00000000000E+00 0.  1.
         11    1    1    2    0    0  0.35462491570E+02 -0.83390373189E+02 -0.13497191442E+03  0.16256986293E+03  0.00000000000E+00 0. -1.
</event>
<event>
 7    1  0.2648915E-009  0.1157658E+03  0.7561462E-02  0.1250250E+00
          2   -1    0    0  501    0  0.00000000000E+00  0.00000000000E+00  0.50466373505E+03  0.50466373505E+03  0.00000000000E+00 0. -1.
         -2   -1    0    0    0  501 -0.00000000000E+00 -0.00000000000E+00 -0.31638930116E+02  0.31638930116E+02  0.00000000000E+00 0.  1.
         25    2    1    2    0    0  0.43676351009E+02 -0.29658513634E+02  0.34643244170E+03  0.37208996318E+03  0.12509297729E+03 0.  0.
          5    1    3    3  502    0  0.82023018511E+02 -0.64495367040E+01  0.15608848548E+03  0.17649492851E+03  0.41800000000E+01 0.  1.
         -5    1    3    3    0  502 -0.38346667501E+02 -0.23208976930E+02  0.19034395622E+03  0.19559503467E+03  0.41800000000E+01 0.  1.
        -11    1    1    2    0    0 -0.64534679081E+02 -0.38632258169E+01  0.70963144806E+02  0.95996964736E+02  0.00000000000E+00 0.  1.
         11    1    1    2    0    0  0.20858328072E+02  0.33521739451E+02  0.55629218428E+02  0.68215737251E+02  0.00000000000E+00 0. -1.
</event>
<event>
 7    1  0.2648915E-009  0.2220398E+03  0.7561462E-02  0.1132371E+00
         -1   -1    0    0    0  501 -0.00000000000E+00  0.00000000000E+00  0.18608139725E+03  0.18608139725E+03  0.00000000000E+00 0.  1.
          1   -1    0    0  501    0  0.00000000000E+00 -0.00000000000E+00 -0.43389713249E+03  0.43389713249E+03  0.00000000000E+00 0. -1.
         25    2    1    2    0    0 -0.19022231366E+03 -0.10490182830E+03  0.33954285817E+02  0.25296158434E+03  0.12509095664E+03 0.  0.
          5    1    3    3  502    0 -0.63849218177E+02 -0.51985455286E+02  0.73344591280E+02  0.11034541990E+03  0.41800000000E+01 0. -1.
         -5    1    3    3    0  502 -0.12637309549E+03 -0.52916373014E+02 -0.39390305463E+02  0.14261616444E+03  0.41800000000E+01 0. -1.
        -11    1    1    2    0    0  0.12734068194E+03  0.38306914059E+02 -0.21819627223E+03  0.25552432792E+03  0.00000000000E+00 0.  1.
         11    1    1    2    0    0  0.62881631725E+02  0.66594914241E+02 -0.63573748824E+02  0.11149261747E+03  0.00000000000E+00 0. -1.
</event>
<event>
 7    1  0.2648915E-009  0.7894689E+02  0.7561462E-02  0.1332067E+00
          1   -1    0    0  501    0  0.00000000000E+00  0.00000000000E+00  0.77071009854E+02  0.77071009854E+02  0.00000000000E+00 0. -1.
         -1   -1    0    0    0  501 -0.00000000000E+00 -0.00000000000E+00 -0.26549914608E+03  0.26549914608E+03  0.00000000000E+00 0.  1.
         25    2    1    2    0    0  0.46727532419E+02  0.62221396374E+02 -0.16237722094E+03  0.21924641011E+03  0.12509061522E+03 0.  0.
          5    1    3    3  502    0  0.31165711729E+02  0.52612398658E+02 -0.18203249211E+03  0.19207463827E+03  0.41800000000E+01 0. -1.
         -5    1    3    3    0  502  0.15561820690E+02  0.96089977156E+01  0.19655271178E+02  0.27171771848E+02  0.41800000000E+01 0. -1.
        -11    1    1    2    0    0 -0.31439207348E+02 -0.43416662437E+02 -0.60737644644E+02  0.81009208197E+02  0.00000000000E+00 0.  1.
         11    1    1    2    0    0 -0.15288325071E+02 -0.18804733937E+02  0.34686729348E+02  0.42314537629E+02  0.00000000000E+00 0. -1.
</event>
<event>
 7    1  0.2648915E-009  0.7956286E+02  0.7561462E-02  0.1330297E+00
         -1   -1    0    0    0  501 -0.00000000000E+00  0.00000000000E+00  0.16288988121E+02  0.16288988121E+02  0.00000000000E+00 0.  1.
          1   -1    0    0  501    0  0.00000000000E+00 -0.00000000000E+00 -0.76028557225E+03  0.76028557225E+03  0.00000000000E+00 0. -1.
         25    2    1    2    0    0  0.61555189163E+01  0.11983579322E+01 -0.53211164978E+03  0.54665301049E+03  0.12508948626E+03 0.  0.
          5    1    3    3  502    0  0.33222423079E+02  0.34198671014E+02 -0.46195159830E+03  0.46442440727E+03  0.41800000000E+01 0. -1.
         -5    1    3    3    0  502 -0.27066904162E+02 -0.33000313082E+02 -0.70160051482E+02  0.82228603225E+02  0.41800000000E+01 0. -1.
        -11    1    1    2    0    0 -0.30488040231E+02 -0.20989115295E+02 -0.18483155953E+03  0.18850137654E+03  0.00000000000E+00 0. -1.
         11    1    1    2    0    0  0.24332521315E+02  0.19790757362E+02 -0.27053374816E+02  0.41420173339E+02  0.00000000000E+00 0.  1.
</event>
<event>
 7    1  0.2648915E-009  0.1026436E+03  0.7561462E-02  0.1274833E+00
         -1   -1    0    0    0  501 -0.00000000000E+00  0.00000000000E+00  0.56755413646E+02  0.56755413646E+02  0.00000000000E+00 0. -1.
          1   -1    0    0  501    0  0.00000000000E+00 -0.00000000000E+00 -0.26185374510E+03  0.26185374510E+03  0.00000000000E+00 0.  1.
         25    2    1    2    0    0 -0.16490314619E+02 -0.43338299824E+02 -0.81936045372E+02  0.15656232807E+03  0.12509239918E+03 0.  0.
          5    1    3    3  502    0  0.37136178932E+02 -0.31709081959E+02  0.94235336890E+01  0.49908286401E+02  0.41800000000E+01 0. -1.
         -5    1    3    3    0  502 -0.53626493551E+02 -0.11629217865E+02 -0.91359579061E+02  0.10665404167E+03  0.41800000000E+01 0. -1.
        -11    1    1    2    0    0  0.51957994925E+02  0.40094055104E+02 -0.99824636544E+02  0.11946599747E+03  0.00000000000E+00 0.  1.
         11    1    1    2    0    0 -0.35467680305E+02  0.32442447195E+01 -0.23337649539E+02  0.42580833200E+02  0.00000000000E+00 0. -1.
</event>
<event>
 7    1  0.2648915E-009  0.1110796E+03  0.7561462E-02  0.1258584E+00
         -3   -1    0    0    0  501 -0.00000000000E+00  0.00000000000E+00  0.17700242791E+03  0.17700242791E+03  0.00000000000E+00 0.  1.
          3   -1    0    0  501    0  0.00000000000E+00 -0.00000000000E+00 -0.95988422135E+02  0.95988422135E+02  0.00000000000E+00 0. -1.
         25    2    1    2    0    0 -0.32702686261E+02 -0.62535775095E+02  0.37172527576E+02  0.14836554000E+03  0.12510135010E+03 0.  0.
          5    1    3    3  502    0  0.64157706208E+01 -0.65679912876E+02 -0.28293260132E+02  0.71923529091E+02  0.41800000000E+01 0. -1.
         -5    1    3    3    0  502 -0.39118456882E+02  0.31441377811E+01  0.65465787708E+02  0.76442010906E+02  0.41800000000E+01 0. -1.
        -11    1    1    2    0    0 -0.29165964687E+02  0.42482026775E+02  0.21834385077E+02  0.55965314854E+02  0.00000000000E+00 0.  1.
         11    1    1    2    0    0  0.61868650948E+02  0.20053748320E+02  0.22007093117E+02  0.68659995188E+02  0.00000000000E+00 0. -1.
</event>
<event>
 7    1  0.2648915E-009  0.2071484E+03  0.7561462E-02  0.1143844E+00
          1   -1    0    0  501    0  0.00000000000E+00  0.00000000000E+00  0.69301211471E+03  0.69301211471E+03  0.00000000000E+00 0. -1.
         -1   -1    0    0    0  501 -0.00000000000E+00 -0.00000000000E+00 -0.10164028966E+03  0.10164028966E+03  0.00000000000E+00 0.  1.
         25    2    1    2    0    0  0.18062179331E+03  0.88786632349E+02  0.50496696501E+03  0.55780493943E+03  0.12508963348E+03 0.  0.
          5    1    3    3  502    0  0.61454890795E+02  0.66277865500E+02  0.99130768311E+02  0.13421564992E+03  0.41800000000E+01 0. -1.
         -5    1    3    3    0  502  0.11916690252E+03  0.22508766849E+02  0.40583619670E+03  0.42358928951E+03  0.41800000000E+01 0. -1.
        -11    1    1    2    0    0 -0.10642014159E+03 -0.64272351181E+02  0.56187166637E+01  0.12444979566E+03  0.00000000000E+00 0.  1.
         11    1    1    2    0    0 -0.74201651724E+02 -0.24514281169E+02  0.80786143377E+02  0.11239766929E+03  0.00000000000E+00 0. -1.
</event>
<event>
 7    1  0.2648915E-009  0.1352187E+03  0.7561462E-02  0.1219911E+00
         -4   -1    0    0    0  501 -0.00000000000E+00  0.00000000000E+00  0.19847189142E+03  0.19847189142E+03  0.00000000000E+00 0.  1.
          4   -1    0    0  501    0  0.00000000000E+00 -0.00000000000E+00 -0.11376650450E+03  0.11376650450E+03  0.00000000000E+00 0. -1.
         25    2    1    2    0    0 -0.16456142906E+02  0.90916481199E+02 -0.48241303095E+01  0.15558497179E+03  0.12508716969E+03 0.  0.
          5    1    3    3  502    0  0.54139687409E+02  0.31359084613E+02  0.31505759811E+01  0.62784524125E+02  0.41800000000E+01 0. -1.
         -5    1    3    3    0  502 -0.70595830315E+02  0.59557396586E+02 -0.79747062906E+01  0.92800447663E+02  0.41800000000E+01 0. -1.
        -11    1    1    2    0    0  0.43000563200E+02 -0.66604616154E+02  0.25641375248E+02  0.83322886731E+02  0.00000000000E+00 0. -1.
         11    1    1    2    0    0 -0.26544420294E+02 -0.24311865045E+02  0.63888141983E+02  0.73330537409E+02  0.00000000000E+00 0.  1.
</event>
<event>
 7    1  0.2648915E-009  0.1271109E+03  0.7561462E-02  0.1231807E+00
         -1   -1    0    0    0  501 -0.00000000000E+00  0.00000000000E+00  0.78585153133E+03  0.78585153133E+03  0.00000000000E+00 0.  1.
          1   -1    0    0  501    0  0.00000000000E+00 -0.00000000000E+00 -0.28379378408E+02  0.28379378408E+02  0.00000000000E+00 0. -1.
         25    2    1    2    0    0  0.56581176987E+02  0.58056199464E+02  0.58661378395E+03  0.60525463587E+03  0.12508193654E+03 0.  0.
          5    1    3    3  502    0  0.82618126910E+02  0.10659118677E+02  0.46018110601E+03  0.46767883685E+03  0.41800000000E+01 0.  1.
         -5    1    3    3    0  502 -0.26036949923E+02  0.47397080787E+02  0.12643267794E+03  0.13757579903E+03  0.41800000000E+01 0.  1.
        -11    1    1    2    0    0 -0.20139457780E+02  0.21261963898E+02  0.68214106767E+02  0.74234986567E+02  0.00000000000E+00 0.  1.
         11    1    1    2    0    0 -0.36441719207E+02 -0.79318163362E+02  0.10264426221E+03  0.13474128730E+03  0.00000000000E+00 0. -1.
</event>
<event>
 7    1  0.2648915E-009  0.1106669E+03  0.7561462E-02  0.1259340E+00
         -2   -1    0    0    0  501 -0.00000000000E+00  0.00000000000E+00  0.26365460996E+02  0.26365460996E+02  0.00000000000E+00 0. -1.
          2   -1    0    0  501    0  0.00000000000E+00 -0.00000000000E+00 -0.60761296088E+03  0.60761296088E+03  0.00000000000E+00 0.  1.
         25    2    1    2    0    0 -0.17348682138E+01 -0.58202081903E+02 -0.24416859091E+03  0.28045788975E+03  0.12509130678E+03 0.  0.
          5    1    3    3  502    0  0.89453346661E-01  0.34909558937E+02 -0.12089540198E+03  0.12590415373E+03  0.41800000000E+01 0.  1.
         -5    1    3    3    0  502 -0.18243215604E+01 -0.93111640840E+02 -0.12327318893E+03  0.15455373602E+03  0.41800000000E+01 0.  1.
        -11    1    1    2    0    0  0.27199405035E+02  0.61526958766E+02 -0.30549407103E+03  0.31281304596E+03  0.00000000000E+00 0.  1.
         11    1    1    2    0    0 -0.25464536822E+02 -0.33248768629E+01 -0.31584837951E+02  0.40707486168E+02  0.00000000000E+00 0. -1.
</event>
<event>
 7    1  0.2648915E-009  0.1030374E+03  0.7561462E-02  0.1274035E+00
         -1   -1    0    0    0  501 -0.00000000000E+00  0.00000000000E+00  0.40436626211E+02  0.40436626211E+02  0.00000000000E+00 0.  1.
          1   -1    0    0  501    0  0.00000000000E+00 -0.00000000000E+00 -0.37025596170E+03  0.37025596170E+03  0.00000000000E+00 0. -1.
         25    2    1    2    0    0  0.23223759251E+01  0.18202239233E+01 -0.91192348742E+02  0.15482718481E+03  0.12508679404E+03 0.  0.
          5    1    3    3  502    0  0.53840828532E+02  0.31190641832E+02 -0.28949107805E+02  0.68754739456E+02  0.41800000000E+01 0.  1.
         -5    1    3    3    0  502 -0.51518452607E+02 -0.29370417909E+02 -0.62243240936E+02  0.86072445355E+02  0.41800000000E+01 0.  1.
        -11    1    1    2    0    0 -0.12844107662E+02 -0.41379741338E+02 -0.17440920565E+03  0.17971039232E+03  0.00000000000E+00 0.  1.
         11    1    1    2    0    0  0.10521731737E+02  0.39559517415E+02 -0.64217781103E+02  0.76155010778E+02  0.00000000000E+00 0. -1.
</event>
<event>
 7    1  0.3645811E-009  0.1988828E+03  0.7561462E-02  0.1150685E+00
         -2   -1    0    0    0  501 -0.00000000000E+00  0.00000000000E+00  0.97817743521E+02  0.97817743521E+02  0.00000000000E+00 0.  1.
          2   -1    0    0  501    0  0.00000000000E+00 -0.00000000000E+00 -0.42880765487E+03  0.42880765487E+03  0.00000000000E+00 0. -1.
         25    2    1    2    0    0 -0.12792321075E+03  0.11676737657E+03 -0.16047455318E+03  0.26720491476E+03  0.12508963256E+03 0.  0.
          5    1    3    3  502    0 -0.69222591200E+02 -0.35661226248E+01 -0.96162109569E+02  0.11861327109E+03  0.41800000000E+01 0.  1.
         -5    1    3    3    0  502 -0.58700619553E+02  0.12033349919E+03 -0.64312443614E+02  0.14859164367E+03  0.41800000000E+01 0.  1.
        -11    1    1    2    0    0  0.95811332477E+02 -0.27763435246E+02 -0.10144018795E+03  0.14226992479E+03  0.00000000000E+00 0.  1.
         11    1    1    2    0    0  0.32111878275E+02 -0.89003941321E+02 -0.69075170211E+02  0.11715055884E+03  0.00000000000E+00 0. -1.
</event>
<event>
 7    1  0.2648915E-009  0.7741827E+02  0.7561462E-02  0.1336542E+00
         -1   -1    0    0    0  501 -0.00000000000E+00  0.00000000000E+00  0.16065562416E+03  0.16065562416E+03  0.00000000000E+00 0.  1.
          1   -1    0    0  501    0  0.00000000000E+00 -0.00000000000E+00 -0.77822709705E+02  0.77822709705E+02  0.00000000000E+00 0. -1.
         25    2    1    2    0    0 -0.14260671063E+02  0.23907218339E+02  0.61023007305E+02  0.14193876922E+03  0.12509150635E+03 0.  0.
          5    1    3    3  502    0 -0.27658014112E+02 -0.29864235605E+02  0.74281808507E+02  0.84806236728E+02  0.41800000000E+01 0.  1.
         -5    1    3    3    0  502  0.13397343049E+02  0.53771453944E+02 -0.13258801201E+02  0.57132532495E+02  0.41800000000E+01 0.  1.
        -11    1    1    2    0    0 -0.16876565250E+02  0.30623714889E+01  0.45774538542E+02  0.48882562867E+02  0.00000000000E+00 0.  1.
         11    1    1    2    0    0  0.31137236313E+02 -0.26969589828E+02 -0.23964631389E+02  0.47657001777E+02  0.00000000000E+00 0. -1.
</event>
<event>
 7    1  0.2648915E-009  0.9076372E+02  0.7561462E-02  0.1301013E+00
         -1   -1    0    0    0  501 -0.00000000000E+00  0.00000000000E+00  0.32480458806E+02  0.32480458806E+02  0.00000000000E+00 0.  1.
          1   -1    0    0  501    0  0.00000000000E+00 -0.00000000000E+00 -0.52462286383E+03  0.52462286383E+03  0.00000000000E+00 0. -1.
         25    2    1    2    0    0  0.51636223066E+01  0.70078528028E+02 -0.31605671721E+03  0.34709857846E+03  0.12509161279E+03 0.  0.
          5    1    3    3  502    0  0.31653433609E+02  0.33373322584E+02 -0.29207128164E+03  0.29570056557E+03  0.41800000000E+01 0. -1.
         -5    1    3    3    0  502 -0.26489811303E+02  0.36705205444E+02 -0.23985435567E+02  0.51398012888E+02  0.41800000000E+01 0. -1.
        -11    1    1    2    0    0 -0.17728928790E+02  0.94703529699E+00  0.20001889438E+01  0.17866520302E+02  0.00000000000E+00 0.  1.
         11    1    1    2    0    0  0.12565306484E+02 -0.71025563325E+02 -0.17808587676E+03  0.19213822388E+03  0.00000000000E+00 0. -1.
</event>
<event>
 7    1  0.2648915E-009  0.8755033E+02  0.7561462E-02  0.1308895E+00
          2   -1    0    0  501    0  0.00000000000E+00  0.00000000000E+00  0.66139661335E+02  0.66139661335E+02  0.00000000000E+00 0. -1.
         -2   -1    0    0    0  501 -0.00000000000E+00 -0.00000000000E+00 -0.27665739885E+03  0.27665739885E+03  0.00000000000E+00 0.  1.
         25    2    1    2    0    0  0.23936542078E+02  0.52657043633E+02 -0.18836625626E+03  0.23339872113E+03  0.12508954486E+03 0.  0.
          5    1    3    3  502    0  0.21112271589E+01  0.54995188551E+02 -0.13117955437E+02  0.56731659580E+02  0.41800000000E+01 0.  1.
         -5    1    3    3    0  502  0.21825314919E+02 -0.23381449175E+01 -0.17524830083E+03  0.17666706155E+03  0.41800000000E+01 0.  1.
        -11    1    1    2    0    0  0.20851915932E+02  0.78508696572E+01  0.13553397409E+02  0.26079362219E+02  0.00000000000E+00 0. -1.
         11    1    1    2    0    0 -0.44788458010E+02 -0.60507913291E+02 -0.35704878664E+02  0.83318976843E+02  0.00000000000E+00 0.  1.
</event>
<event>
 7    1  0.2648915E-009  0.7927949E+02  0.7561462E-02  0.1331109E+00
         -1   -1    0    0    0  501 -0.00000000000E+00  0.00000000000E+00  0.70411429156E+02  0.70411429156E+02  0.00000000000E+00 0.  1.
          1   -1    0    0  501    0  0.00000000000E+00 -0.00000000000E+00 -0.22163100708E+03  0.22163100708E+03  0.00000000000E+00 0. -1.
         25    2    1    2    0    0 -0.40559163383E+02  0.34259620271E+02 -0.13572266626E+03  0.19205889980E+03  0.12508881461E+03 0.  0.
          5    1    3    3  502    0 -0.98113257517E+01  0.38760754015E+02  0.11276578036E+02  0.41752745743E+02  0.41800000000E+01 0. -1.
         -5    1    3    3    0  502 -0.30747837631E+02 -0.45011337444E+01 -0.14699924430E+03  0.15030615406E+03  0.41800000000E+01 0. -1.
        -11    1    1    2    0    0  0.43592625407E+02 -0.52655150325E+02 -0.31636391971E+02  0.75324253349E+02  0.00000000000E+00 0. -1.
         11    1    1    2    0    0 -0.30334620248E+01  0.18395530053E+02  0.16139480306E+02  0.24659283087E+02  0.00000000000E+00 0.  1.
</event>
<event>
 7    1  0.2648915E-009  0.1034832E+03  0.7561462E-02  0.1273137E+00
         -2   -1    0    0    0  501 -0.00000000000E+00  0.00000000000E+00  0.34369559993E+03  0.34369559993E+03  0.00000000000E+00 0.  1.
          2   -1    0    0  501    0  0.00000000000E+00 -0.00000000000E+00 -0.39986468483E+02  0.39986468483E+02  0.00000000000E+00 0. -1.
         25    2    1    2    0    0  0.38074249508E+02 -0.55053139001E+00  0.22076981661E+03  0.25658629278E+03  0.12508901692E+03 0.  0.
          5    1    3    3  502    0  0.58289939880E+02 -0.41339566000E+02  0.74406023946E+02  0.10324924023E+03  0.41800000000E+01 0.  1.
         -5    1    3    3    0  502 -0.20215690372E+02  0.40789034610E+02  0.14636379266E+03  0.15333705255E+03  0.41800000000E+01 0.  1.
        -11    1    1    2    0    0  0.17064507558E+02 -0.23887202140E+02  0.71078022710E+01  0.30204580735E+02  0.00000000000E+00 0.  1.
         11    1    1    2    0    0 -0.55138757065E+02  0.24437733530E+02  0.75831512564E+02  0.96891194897E+02  0.00000000000E+00 0. -1.
</event>
<event>
 7    1  0.2648915E-009  0.2489291E+03  0.7561462E-02  0.1113983E+00
          2   -1    0    0  501    0  0.00000000000E+00  0.00000000000E+00  0.96903260828E+02  0.96903260828E+02  0.00000000000E+00 0.  1.
         -2   -1    0    0    0  501 -0.00000000000E+00 -0.00000000000E+00 -0.69267010769E+03  0.69267010769E+03  0.00000000000E+00 0. -1.
         25    2    1    2    0    0  0.61949820782E+02 -0.22247684156E+03 -0.35164165370E+03  0.43890027408E+03  0.12509145713E+03 0.  0.
          5    1    3    3  502    0  0.77602343622E+02 -0.67822019413E+02 -0.10394292942E+03  0.14643618074E+03  0.41800000000E+01 0.  1.
         -5    1    3    3    0  502 -0.15652522840E+02 -0.15465482215E+03 -0.24769872428E+03  0.29246409335E+03  0.41800000000E+01 0.  1.
        -11    1    1    2    0    0 -0.11577474927E+01  0.12037088757E+03 -0.68139898043E+02  0.13832402777E+03  0.00000000000E+00 0.  1.
         11    1    1    2    0    0 -0.60792073289E+02  0.10210595399E+03 -0.17598529512E+03  0.21234906666E+03  0.00000000000E+00 0. -1.
</event>
<event>
 7    1  0.2648915E-009  0.1605537E+03  0.7561462E-02  0.1188073E+00
         -1   -1    0    0    0  501 -0.00000000000E+00  0.00000000000E+00  0.14936358164E+04  0.14936358164E+04  0.00000000000E+00 0.  1.
          1   -1    0    0  501    0  0.00000000000E+00 -0.00000000000E+00 -0.18107396493E+02  0.18107396493E+02  0.00000000000E+00 0. -1.
         25    2    1    2    0    0 -0.63836800988E+02 -0.10265139887E+03  0.92416820317E+03  0.94039776086E+03  0.12509450041E+03 0.  0.
          5    1    3    3  502    0 -0.42011125248E+02  0.20315840206E+02  0.32295251037E+03  0.32633336385E+03  0.41800000000E+01 0. -1.
         -5    1    3    3    0  502 -0.21825675740E+02 -0.12296723908E+03  0.60121569279E+03  0.61406439700E+03  0.41800000000E+01 0. -1.
        -11    1    1    2    0    0  0.50265861123E+02  0.11832762649E+03  0.45735294837E+03  0.47507873386E+03  0.00000000000E+00 0.  1.
         11    1    1    2    0    0  0.13570939865E+02 -0.15676227623E+02  0.94007268412E+02  0.96266718213E+02  0.00000000000E+00 0. -1.
</event>
<event>
 7    1  0.2648915E-009  0.1007670E+03  0.7561462E-02  0.1278691E+00
          1   -1    0    0  501    0  0.00000000000E+00  0.00000000000E+00  0.93047676161E+02  0.93047676161E+02  0.00000000000E+00 0. -1.
         -1   -1    0    0    0  501 -0.00000000000E+00 -0.00000000000E+00 -0.19360161947E+03  0.19360161947E+03  0.00000000000E+00 0.  1.
         25    2    1    2    0    0 -0.41122038846E+02 -0.66641071356E+02 -0.65884836803E+02  0.16162195180E+03  0.12509512026E+03 0.  0.
          5    1    3    3  502    0 -0.11142897190E+02 -0.76176121202E+02  0.11527423972E+02  0.77957164536E+02  0.41800000000E+01 0.  1.
         -5    1    3    3    0  502 -0.29979141656E+02  0.95350498453E+01 -0.77412260776E+02  0.83664787267E+02  0.41800000000E+01 0.  1.
        -11    1    1    2    0    0  0.41963163445E+02  0.20774243132E+02 -0.57197925112E+02  0.73919408149E+02  0.00000000000E+00 0.  1.
         11    1    1    2    0    0 -0.84112459851E+00  0.45866828224E+02  0.22528818603E+02  0.51107935681E+02  0.00000000000E+00 0. -1.
</event>
<event>
 7    1  0.2648915E-009  0.8793827E+02  0.7561462E-02  0.1307923E+00
          3   -1    0    0  501    0  0.00000000000E+00  0.00000000000E+00  0.12378500488E+02  0.12378500488E+02  0.00000000000E+00 0. -1.
         -3   -1    0    0    0  501 -0.00000000000E+00 -0.00000000000E+00 -0.11070614421E+04  0.11070614421E+04  0.00000000000E+00 0.  1.
         25    2    1    2    0    0  0.54851231966E+00 -0.18527895378E+02 -0.81094651055E+03  0.82074779503E+03  0.12509642807E+03 0.  0.
          5    1    3    3  502    0 -0.26379201086E+01 -0.50207479460E+02 -0.75142085321E+03  0.75311255511E+03  0.41800000000E+01 0. -1.
         -5    1    3    3    0  502  0.31864324282E+01  0.31679584082E+02 -0.59525657331E+02  0.67635239926E+02  0.41800000000E+01 0. -1.
        -11    1    1    2    0    0 -0.45620043386E+02  0.15337955378E+02 -0.14920116657E+03  0.15677190226E+03  0.00000000000E+00 0.  1.
         11    1    1    2    0    0  0.45071531066E+02  0.31899400000E+01 -0.13453526451E+03  0.14192024530E+03  0.00000000000E+00 0. -1.
</event>
<event>
 7    1  0.2648915E-009  0.1107373E+03  0.7561462E-02  0.1259211E+00
         -2   -1    0    0    0  501 -0.00000000000E+00  0.00000000000E+00  0.52968333062E+02  0.52968333062E+02  0.00000000000E+00 0.  1.
          2   -1    0    0  501    0  0.00000000000E+00 -0.00000000000E+00 -0.25347591658E+03  0.25347591658E+03  0.00000000000E+00 0. -1.
         25    2    1    2    0    0 -0.36704585951E+02  0.11674404184E+02 -0.95972826888E+02  0.16230266935E+03  0.12509138514E+03 0.  0.
          5    1    3    3  502    0 -0.76070285391E+02 -0.19538907401E+02 -0.45012728404E+02  0.90620501766E+02  0.41800000000E+01 0. -1.
         -5    1    3    3    0  502  0.39365699440E+02  0.31213311585E+02 -0.50960098484E+02  0.71682167587E+02  0.41800000000E+01 0. -1.
        -11    1    1    2    0    0  0.39237152143E+02 -0.44591906707E+02 -0.90537416049E+02  0.10828211282E+03  0.00000000000E+00 0. -1.
         11    1    1    2    0    0 -0.25325661921E+01  0.32917502523E+02 -0.13997340583E+02  0.35859467471E+02  0.00000000000E+00 0.  1.
</event>
<event>
 7    1  0.2648915E-009  0.1675179E+03  0.7561462E-02  0.1180461E+00
          1   -1    0    0  501    0  0.00000000000E+00  0.00000000000E+00  0.72114078930E+03  0.72114078930E+03  0.00000000000E+00 0. -1.
         -1   -1    0    0    0  501 -0.00000000000E+00 -0.00000000000E+00 -0.56711865114E+02  0.56711865114E+02  0.00000000000E+00 0.  1.
         25    2    1    2    0    0  0.10986638066E+03 -0.11809582414E+03  0.24384791759E+03  0.31800158298E+03  0.12508379028E+03 0.  0.
          5    1    3    3  502    0  0.37671416864E+02 -0.36905858808E+01  0.14627908408E+03  0.15115488386E+03  0.41800000000E+01 0. -1.
         -5    1    3    3    0  502  0.72194963794E+02 -0.11440523826E+03  0.97568833501E+02  0.16684669913E+03  0.41800000000E+01 0. -1.
        -11    1    1    2    0    0 -0.47914792134E+02  0.58844278559E+02  0.31417357602E+03  0.32320815629E+03  0.00000000000E+00 0. -1.
         11    1    1    2    0    0 -0.61951588524E+02  0.59251545585E+02  0.10640743058E+03  0.13664291514E+03  0.00000000000E+00 0.  1.
</event>
<event>
 7    1  0.2648915E-009  0.1002527E+03  0.7561462E-02  0.1279766E+00
         -2   -1    0    0    0  501 -0.00000000000E+00  0.00000000000E+00  0.18328057518E+02  0.18328057518E+02  0.00000000000E+00 0.  1.
          2   -1    0    0  501    0  0.00000000000E+00 -0.00000000000E+00 -0.78522456189E+03  0.78522456189E+03  0.00000000000E+00 0. -1.
         25    2    1    2    0    0  0.31055526417E+01 -0.50229355014E+02 -0.41514648298E+03  0.43649583848E+03  0.12509749046E+03 0.  0.
          5    1    3    3  502    0  0.57706620448E+00  0.24736636350E+02 -0.14740119363E+02  0.29102881338E+02  0.41800000000E+01 0.  1.
         -5    1    3    3    0  502  0.25284864372E+01 -0.74965991364E+02 -0.40040636361E+03  0.40739295714E+03  0.41800000000E+01 0.  1.
        -11    1    1    2    0    0  0.34611383534E+02  0.52070794487E+02 -0.16329835269E+03  0.17485899319E+03  0.00000000000E+00 0.  1.
         11    1    1    2    0    0 -0.37716936175E+02 -0.18414394735E+01 -0.18845166871E+03  0.19219778774E+03  0.00000000000E+00 0. -1.
</event>
<event>
 7    1  0.2648915E-009  0.1191781E+03  0.7561462E-02  0.1244459E+00
         -2   -1    0    0    0  501 -0.00000000000E+00  0.00000000000E+00  0.72605966317E+02  0.72605966317E+02  0.00000000000E+00 0. -1.
          2   -1    0    0  501    0  0.00000000000E+00 -0.00000000000E+00 -0.23905807128E+03  0.23905807128E+03  0.00000000000E+00 0.  1.
         25    2    1    2    0    0  0.37470996297E+02  0.62964539718E+02 -0.10861907937E+03  0.18114462727E+03  0.12508662103E+03 0.  0.
          5    1    3    3  502    0  0.61431963481E+02 -0.66568367541E+01 -0.18378113427E+02  0.64602067040E+02  0.41800000000E+01 0. -1.
         -5    1    3    3    0  502 -0.23960967184E+02  0.69621376473E+02 -0.90240965947E+02  0.11654256023E+03  0.41800000000E+01 0. -1.
        -11    1    1    2    0    0 -0.57678274559E+02 -0.58148098487E+02 -0.68857818993E+02  0.10700179415E+03  0.00000000000E+00 0.  1.
         11    1    1    2    0    0  0.20207278262E+02 -0.48164412314E+01  0.11024793409E+02  0.23517616176E+02  0.00000000000E+00 0. -1.
</event>
<event>
 7    1  0.2648915E-009  0.8699106E+02  0.7561462E-02  0.1310306E+00
         -1   -1    0    0    0  501 -0.00000000000E+00  0.00000000000E+00  0.36122765412E+02  0.36122765412E+02  0.00000000000E+00 0.  1.
          1   -1    0    0  501    0  0.00000000000E+00 -0.00000000000E+00 -0.32178286205E+03  0.32178286205E+03  0.00000000000E+00 0. -1.
         25    2    1    2    0    0  0.44987694906E+01  0.56777753290E+01 -0.17966677179E+03  0.21904365152E+03  0.12508995294E+03 0.  0.
          5    1    3    3  502    0  0.28205554111E+02  0.41600033007E+02 -0.16630483509E+03  0.17378402287E+03  0.41800000000E+01 0.  1.
         -5    1    3    3    0  502 -0.23706784620E+02 -0.35922257678E+02 -0.13361936698E+02  0.45259628656E+02  0.41800000000E+01 0.  1.
        -11    1    1    2    0    0 -0.35154966813E+02 -0.25825683526E+02 -0.25809571354E+02  0.50685023377E+02  0.00000000000E+00 0.  1.
         11    1    1    2    0    0  0.30656197323E+02  0.20147908197E+02 -0.80183753493E+02  0.88176952562E+02  0.00000000000E+00 0. -1.
</event>
<event>
 7    1  0.2648915E-009  0.3178872E+03  0.7561462E-02  0.1076626E+00
          2   -1    0    0  501    0  0.00000000000E+00  0.00000000000E+00  0.93932156650E+02  0.93932156650E+02  0.00000000000E+00 0. -1.
         -2   -1    0    0    0  501 -0.00000000000E+00 -0.00000000000E+00 -0.11593244595E+04  0.11593244595E+04  0.00000000000E+00 0.  1.
         25    2    1    2    0    0 -0.93431333669E+02  0.28900550692E+03 -0.41030977432E+03  0.52559830614E+03  0.12508345765E+03 0.  0.
          5    1    3    3  502    0 -0.17464447684E+02  0.21573163253E+03 -0.32153937856E+03  0.38762119211E+03  0.41800000000E+01 0.  1.
         -5    1    3    3    0  502 -0.75966885985E+02  0.73273874385E+02 -0.88770395760E+02  0.13797711403E+03  0.41800000000E+01 0.  1.
        -11    1    1    2    0    0  0.10246595760E+03 -0.20504042028E+03 -0.43045416086E+03  0.48767984479E+03  0.00000000000E+00 0.  1.
         11    1    1    2    0    0 -0.90346239315E+01 -0.83965086644E+02 -0.22462836770E+03  0.23997846524E+03  0.00000000000E+00 0. -1.
</event>
<event>
 7    1  0.2648915E-009  0.6424977E+02  0.7561462E-02  0.1380816E+00
         -1   -1    0    0    0  501 -0.00000000000E+00  0.00000000000E+00  0.25952475687E+02  0.25952475687E+02  0.00000000000E+00 0.  1.
          1   -1    0    0  501    0  0.00000000000E+00 -0.00000000000E+00 -0.46951868902E+03  0.46951868902E+03  0.00000000000E+00 0. -1.
         25    2    1    2    0    0 -0.50339001889E+01 -0.18349865783E+02 -0.23889863326E+03  0.27033541447E+03  0.12508645657E+03 0.  0.
          5    1    3    3  502    0  0.19801513206E+02  0.18764076516E+02 -0.21990058721E+03  0.22162565543E+03  0.41800000000E+01 0. -1.
         -5    1    3    3    0  502 -0.24835413395E+02 -0.37113942299E+02 -0.18998046053E+02  0.48709759035E+02  0.41800000000E+01 0. -1.
        -11    1    1    2    0    0  0.26550773945E+02  0.21677864268E+02 -0.19993856809E+03  0.20285537805E+03  0.00000000000E+00 0. -1.
         11    1    1    2    0    0 -0.21516873756E+02 -0.33279984852E+01 -0.47290119820E+01  0.22280372180E+02  0.00000000000E+00 0.  1.
</event>
<event>
 7    1  0.2648915E-009  0.1072878E+03  0.7561462E-02  0.1265676E+00
          2   -1    0    0  501    0  0.00000000000E+00  0.00000000000E+00  0.32770883253E+04  0.32770883253E+04  0.00000000000E+00 0. -1.
         -2   -1    0    0    0  501 -0.00000000000E+00 -0.00000000000E+00 -0.95813481447E+01  0.95813481447E+01  0.00000000000E+00 0.  1.
         25    2    1    2    0    0 -0.48874609626E+02 -0.46156373356E+02  0.28434075127E+04  0.28469512966E+04  0.12508502526E+03 0.  0.
          5    1    3    3  502    0  0.80638555522E+01 -0.40032946434E+02  0.23268876506E+04  0.23272497231E+04  0.41800000000E+01 0.  1.
         -5    1    3    3    0  502 -0.56938465179E+02 -0.61234269220E+01  0.51651986209E+03  0.51970157351E+03  0.41800000000E+01 0.  1.
        -11    1    1    2    0    0  0.73774358609E+02  0.13434245214E+02  0.27993146813E+03  0.28980124530E+03  0.00000000000E+00 0. -1.
         11    1    1    2    0    0 -0.24899748983E+02  0.32722128142E+02  0.14416799628E+03  0.14991713151E+03  0.00000000000E+00 0.  1.
</event>
<event>
 7    1  0.2648915E-009  0.2692562E+03  0.7561462E-02  0.1101706E+00
          1   -1    0    0  501    0  0.00000000000E+00  0.00000000000E+00  0.65286978068E+02  0.65286978068E+02  0.00000000000E+00 0. -1.
         -1   -1    0    0    0  501 -0.00000000000E+00 -0.00000000000E+00 -0.12438934663E+04  0.12438934663E+04  0.00000000000E+00 0.  1.
         25    2    1    2    0    0  0.91596008013E+02  0.23986908638E+03 -0.46578966389E+03  0.54638328240E+03  0.12509065918E+03 0.  0.
          5    1    3    3  502    0  0.40919050011E+02  0.20096583235E+03 -0.26186647222E+03  0.33264569154E+03  0.41800000000E+01 0.  1.
         -5    1    3    3    0  502  0.50676958002E+02  0.38903254029E+02 -0.20392319166E+03  0.21373759086E+03  0.41800000000E+01 0.  1.
        -11    1    1    2    0    0 -0.80139736858E+02 -0.96094352103E+02 -0.38004627794E+03  0.40011457772E+03  0.00000000000E+00 0.  1.
         11    1    1    2    0    0 -0.11456271156E+02 -0.14377473428E+03 -0.33277054642E+03  0.36268258427E+03  0.00000000000E+00 0. -1.
</event>
<event>
 7    1  0.2648915E-009  0.1221537E+03  0.7561462E-02  0.1239586E+00
         -2   -1    0    0    0  501 -0.00000000000E+00  0.00000000000E+00  0.18203499316E+03  0.18203499316E+03  0.00000000000E+00 0.  1.
          2   -1    0    0  501    0  0.00000000000E+00 -0.00000000000E+00 -0.94231170475E+02  0.94231170475E+02  0.00000000000E+00 0. -1.
         25    2    1    2    0    0 -0.25014805924E+02 -0.65092305711E+02  0.17693283034E+02  0.14430354410E+03  0.12509081420E+03 0.  0.
          5    1    3    3  502    0 -0.13328688214E+02 -0.97217840051E+02 -0.11849959372E+02  0.98928541336E+02  0.41800000000E+01 0. -1.
         -5    1    3    3    0  502 -0.11686117709E+02  0.32125534340E+02  0.29543242406E+02  0.45375002761E+02  0.41800000000E+01 0. -1.
        -11    1    1    2    0    0 -0.18433296875E+02  0.65661306576E+02  0.46090765070E+02  0.82313742715E+02  0.00000000000E+00 0. -1.
         11    1    1    2    0    0  0.43448102799E+02 -0.56900086447E+00  0.24019774580E+02  0.49648876822E+02  0.00000000000E+00 0.  1.
</event>
<event>
 7    1  0.2648915E-009  0.5577421E+02  0.7561462E-02  0.1416473E+00
         -3   -1    0    0    0  501 -0.00000000000E+00  0.00000000000E+00  0.53090494092E+03  0.53090494092E+03  0.00000000000E+00 0.  1.
          3   -1    0    0  501    0  0.00000000000E+00 -0.00000000000E+00 -0.28003442764E+02  0.28003442764E+02  0.00000000000E+00 0. -1.
         25    2    1    2    0    0 -0.41381505902E+01  0.11662774046E+02  0.41231963956E+03  0.43105484679E+03  0.12509057191E+03 0.  0.
          5    1    3    3  502    0 -0.21219133033E+02 -0.15367113213E+02  0.11459358684E+02  0.28899638002E+02  0.41800000000E+01 0.  1.
         -5    1    3    3    0  502  0.17080982443E+02  0.27029887259E+02  0.40086028088E+03  0.40215520879E+03  0.41800000000E+01 0.  1.
        -11    1    1    2    0    0 -0.18605873642E+02 -0.21113518746E+02 -0.54922319232E+01  0.28672701640E+02  0.00000000000E+00 0. -1.
         11    1    1    2    0    0  0.22744024232E+02  0.94507447005E+01  0.96074090510E+02  0.99180835251E+02  0.00000000000E+00 0.  1.
</event>
<event>
 7    1  0.2648915E-009  0.5891892E+02  0.7561462E-02  0.1402425E+00
         -1   -1    0    0    0  501 -0.00000000000E+00  0.00000000000E+00  0.22409767250E+03  0.22409767250E+03  0.00000000000E+00 0.  1.
          1   -1    0    0  501    0  0.00000000000E+00 -0.00000000000E+00 -0.57308950837E+02  0.57308950837E+02  0.00000000000E+00 0. -1.
         25    2    1    2    0    0 -0.46566614050E+01 -0.13881900812E+02  0.64990082029E+02  0.14172362048E+03  0.12508989637E+03 0.  0.
          5    1    3    3  502    0 -0.35579180355E+02 -0.31582127323E+01 -0.26365494139E+02  0.44592197339E+02  0.41800000000E+01 0. -1.
         -5    1    3    3    0  502  0.30922518950E+02 -0.10723688079E+02  0.91355576168E+02  0.97131423140E+02  0.41800000000E+01 0. -1.
        -11    1    1    2    0    0  0.64571989154E+01 -0.16876131985E+02  0.10693172651E+03  0.10844765273E+03  0.00000000000E+00 0.  1.
         11    1    1    2    0    0 -0.18005375104E+01  0.30758032797E+02 -0.51330868722E+01  0.31235350129E+02  0.00000000000E+00 0. -1.
</event>
<event>
 7    1  0.2648915E-009  0.1155807E+03  0.7561462E-02  0.1250571E+00
         -2   -1    0    0    0  501 -0.00000000000E+00  0.00000000000E+00  0.95783780497E+02  0.95783780497E+02  0.00000000000E+00 0.  1.
          2   -1    0    0  501    0  0.00000000000E+00 -0.00000000000E+00 -0.17523799496E+03  0.17523799496E+03  0.00000000000E+00 0. -1.
         25    2    1    2    0    0 -0.45599433315E+02  0.26394358200E+02 -0.28342471228E+01  0.13576697857E+03  0.12509464037E+03 0.  0.
          5    1    3    3  502    0  0.41598685140E+02  0.14158622914E+02  0.13407008885E+02  0.46131740650E+02  0.41800000000E+01 0.  1.
         -5    1    3    3    0  502 -0.87198118454E+02  0.12235735286E+02 -0.16241256008E+02  0.89635237919E+02  0.41800000000E+01 0.  1.
        -11    1    1    2    0    0  0.37831869173E+02 -0.56378441840E+02 -0.79026993146E+02  0.10418754568E+03  0.00000000000E+00 0. -1.
         11    1    1    2    0    0  0.77675641424E+01  0.29984083640E+02  0.24070258030E+01  0.31067251209E+02  0.00000000000E+00 0.  1.
</event>
<event>
 7    1  0.2648915E-009  0.9930374E+02  0.7561462E-02  0.1281767E+00
          1   -1    0    0  501    0  0.00000000000E+00  0.00000000000E+00  0.15808124956E+04  0.15808124956E+04  0.00000000000E+00 0.  1.
         -1   -1    0    0    0  501 -0.00000000000E+00 -0.00000000000E+00 -0.10514658689E+02  0.10514658689E+02  0.00000000000E+00 0. -1.
         25    2    1    2    0    0  0.83064100289E+01 -0.64157354829E+02  0.10459779502E+04  0.10554155859E+04  0.12508806512E+03 0.  0.
          5    1    3    3  502    0  0.55885785510E+01  0.14500418028E+02  0.71506631215E+03  0.71524736805E+03  0.41800000000E+01 0. -1.
         -5    1    3    3    0  502  0.27178314779E+01 -0.78657772856E+02  0.33091163805E+03  0.34016821785E+03  0.41800000000E+01 0. -1.
        -11    1    1    2    0    0 -0.17169073651E+02 -0.15751881397E+02  0.54648024600E+02  0.59407957802E+02  0.00000000000E+00 0. -1.
         11    1    1    2    0    0  0.88626636221E+01  0.79909236226E+02  0.46967186210E+03  0.47650361058E+03  0.00000000000E+00 0.  1.
</event>
<event>
 7    1  0.2648915E-009  0.1174205E+03  0.7561462E-02  0.1247414E+00
         -1   -1    0    0    0  501 -0.00000000000E+00  0.00000000000E+00  0.39346506543E+02  0.39346506543E+02  0.00000000000E+00 0.  1.
          1   -1    0    0  501    0  0.00000000000E+00 -0.00000000000E+00 -0.56890452467E+03  0.56890452467E+03  0.00000000000E+00 0. -1.
         25    2    1    2    0    0  0.69668239068E+02 -0.92541975601E+01 -0.42818505337E+03  0.45158519256E+03  0.12508973779E+03 0.  0.
          5    1    3    3  502    0 -0.26211540426E+02  0.18840691002E+02 -0.44818297857E+02  0.55391052633E+02  0.41800000000E+01 0. -1.
         -5    1    3    3    0  502  0.95879779494E+02 -0.28094888563E+02 -0.38336675552E+03  0.39619413993E+03  0.41800000000E+01 0. -1.
        -11    1    1    2    0    0 -0.35964080199E+02  0.42004457411E+02 -0.94052476334E+02  0.10910388541E+03  0.00000000000E+00 0. -1.
         11    1    1    2    0    0 -0.33704158869E+02 -0.32750259851E+02 -0.73204884183E+01  0.47561953241E+02  0.00000000000E+00 0.  1.
</event>
<event>
 7    1  0.2648915E-009  0.1208824E+03  0.7561462E-02  0.1241649E+00
         -1   -1    0    0    0  501 -0.00000000000E+00  0.00000000000E+00  0.20202437348E+02  0.20202437348E+02  0.00000000000E+00 0.  1.
          1   -1    0    0  501    0  0.00000000000E+00 -0.00000000000E+00 -0.88497210614E+03  0.88497210614E+03  0.00000000000E+00 0. -1.
         25    2    1    2    0    0 -0.34553689701E+01 -0.72682551867E+02 -0.58828903626E+03  0.60582764257E+03  0.12509376244E+03 0.  0.
          5    1    3    3  502    0  0.12603308617E+02  0.25049656301E+02 -0.42365590901E+02  0.50976900272E+02  0.41800000000E+01 0. -1.
         -5    1    3    3    0  502 -0.16058677587E+02 -0.97732208168E+02 -0.54592344536E+03  0.55485074230E+03  0.41800000000E+01 0. -1.
        -11    1    1    2    0    0 -0.12583654778E+02 -0.18127368539E+02 -0.64728349694E+02  0.68386468777E+02  0.00000000000E+00 0. -1.
         11    1    1    2    0    0  0.16039023748E+02  0.90809920406E+02 -0.21175228284E+03  0.23096043214E+03  0.00000000000E+00 0.  1.
</event>
<event>
 7    1  0.2648915E-009  0.1213804E+03  0.7561462E-02  0.1240837E+00
          1   -1    0    0  501    0  0.00000000000E+00  0.00000000000E+00  0.60676018773E+03  0.60676018773E+03  0.00000000000E+00 0. -1.
         -1   -1    0    0    0  501 -0.00000000000E+00 -0.00000000000E+00 -0.28205008749E+02  0.28205008749E+02  0.00000000000E+00 0.  1.
         25    2    1    2    0    0  0.56181738664E+02  0.26442290988E+02  0.22250453772E+03  0.26269805858E+03  0.12508564333E+03 0.  0.
          5    1    3    3  502    0 -0.38814878183E+02  0.28783163989E+00  0.84443978171E+02  0.93031905628E+02  0.41800000000E+01 0. -1.
         -5    1    3    3    0  502  0.94996616848E+02  0.26154459348E+02  0.13806055955E+03  0.16966615295E+03  0.41800000000E+01 0. -1.
        -11    1    1    2    0    0 -0.67620597151E+02 -0.46461378306E+02  0.31124912956E+03  0.32188076283E+03  0.00000000000E+00 0. -1.
         11    1    1    2    0    0  0.11438858487E+02  0.20019087318E+02  0.44801511705E+02  0.50386375059E+02  0.00000000000E+00 0.  1.
</event>
<event>
 7    1  0.2648915E-009  0.1494866E+03  0.7561462E-02  0.1201105E+00
          2   -1    0    0  501    0  0.00000000000E+00  0.00000000000E+00  0.56937620250E+03  0.56937620250E+03  0.00000000000E+00 0. -1.
         -2   -1    0    0    0  501 -0.00000000000E+00 -0.00000000000E+00 -0.44021188079E+02  0.44021188079E+02  0.00000000000E+00 0.  1.
         25    2    1    2    0    0 -0.10521015073E+03 -0.12774980965E+02  0.20998615726E+03  0.26640956299E+03  0.12508993985E+03 0.  0.
          5    1    3    3  502    0  0.19609898513E+02  0.17353558532E+02  0.77284509596E+02  0.81707171882E+02  0.41800000000E+01 0.  1.
         -5    1    3    3    0  502 -0.12482004924E+03 -0.30128539497E+02  0.13270164767E+03  0.18470239110E+03  0.41800000000E+01 0.  1.
        -11    1    1    2    0    0  0.60875806470E+02 -0.41669351817E+02  0.14409817103E+03  0.16188416102E+03  0.00000000000E+00 0.  1.
         11    1    1    2    0    0  0.44334344261E+02  0.54444332783E+02  0.17127068613E+03  0.18510366658E+03  0.00000000000E+00 0. -1.
</event>
<event>
 7    1  0.2648915E-009  0.1002588E+03  0.7561462E-02  0.1279753E+00
          1   -1    0    0  501    0  0.00000000000E+00  0.00000000000E+00  0.11894318884E+03  0.11894318884E+03  0.00000000000E+00 0. -1.
         -1   -1    0    0    0  501 -0.00000000000E+00 -0.00000000000E+00 -0.15475329179E+03  0.15475329179E+03  0.00000000000E+00 0.  1.
         25    2    1    2    0    0 -0.60890970402E+02 -0.42575263789E+01  0.33634878430E+02  0.14319427012E+03  0.12508979631E+03 0.  0.
          5    1    3    3  502    0 -0.88252831746E+02  0.26178120428E+02  0.35298499352E+01  0.92215988531E+02  0.41800000000E+01 0. -1.
         -5    1    3    3    0  502  0.27361861344E+02 -0.30435646807E+02  0.30105028495E+02  0.50978281586E+02  0.41800000000E+01 0. -1.
        -11    1    1    2    0    0  0.48590203489E+02  0.15047717537E+02  0.78723077286E+01  0.51472467467E+02  0.00000000000E+00 0. -1.
         11    1    1    2    0    0  0.12300766913E+02 -0.10790191158E+02 -0.77317289102E+02  0.79029743046E+02  0.00000000000E+00 0.  1.
</event>
<event>
 7    1  0.2648915E-009  0.1358255E+03  0.7561462E-02  0.1219059E+00
          2   -1    0    0  501    0  0.00000000000E+00  0.00000000000E+00  0.14538326446E+04  0.14538326446E+04  0.00000000000E+00 0.  1.
         -2   -1    0    0    0  501 -0.00000000000E+00 -0.00000000000E+00 -0.18838960041E+02  0.18838960041E+02  0.00000000000E+00 0. -1.
         25    2    1    2    0    0 -0.11418221417E+03  0.45805907866E+02  0.93581645543E+03  0.95212158493E+03  0.12508922823E+03 0.  0.
          5    1    3    3  502    0 -0.39086453154E+02 -0.10830675129E+02  0.64831984138E+03  0.64960075698E+03  0.41800000000E+01 0. -1.
         -5    1    3    3    0  502 -0.75095761021E+02  0.56636582995E+02  0.28749661405E+03  0.30252082796E+03  0.41800000000E+01 0. -1.
        -11    1    1    2    0    0  0.42200764422E+02 -0.49006628436E+02  0.13998483937E+03  0.15420217055E+03  0.00000000000E+00 0. -1.
         11    1    1    2    0    0  0.71981449753E+02  0.32007205695E+01  0.35919238978E+03  0.36634784918E+03  0.00000000000E+00 0.  1.
</event>
<event>
 7    1  0.2648915E-009  0.1150292E+03  0.7561462E-02  0.1251530E+00
         -1   -1    0    0    0  501 -0.00000000000E+00  0.00000000000E+00  0.12063936724E+03  0.12063936724E+03  0.00000000000E+00 0.  1.
          1   -1    0    0  501    0  0.00000000000E+00 -0.00000000000E+00 -0.23028607972E+03  0.23028607972E+03  0.00000000000E+00 0. -1.
         25    2    1    2    0    0 -0.64992595366E+02 -0.48322439424E+02  0.44449368655E+02  0.15549883137E+03  0.12508015262E+03 0.  0.
          5    1    3    3  502    0 -0.37027868211E+02 -0.72582433494E+02  0.72275656470E+02  0.10899777793E+03  0.41800000000E+01 0.  1.
         -5    1    3    3    0  502 -0.27964727155E+02  0.24259994070E+02 -0.27826287816E+02  0.46501053437E+02  0.41800000000E+01 0.  1.
        -11    1    1    2    0    0  0.70661619141E+02  0.87092042055E+01 -0.59754792042E+02  0.92949178746E+02  0.00000000000E+00 0.  1.
         11    1    1    2    0    0 -0.56690237742E+01  0.39613235218E+02 -0.94341289088E+02  0.10247743684E+03  0.00000000000E+00 0. -1.
</event>
<event>
 7    1  0.2648915E-009  0.1115580E+03  0.7561462E-02  0.1257712E+00
         -1   -1    0    0    0  501 -0.00000000000E+00  0.00000000000E+00  0.46786614823E+03  0.46786614823E+03  0.00000000000E+00 0.  1.
          1   -1    0    0  501    0  0.00000000000E+00 -0.00000000000E+00 -0.33335660378E+02  0.33335660378E+02  0.00000000000E+00 0. -1.
         25    2    1    2    0    0  0.59313296238E+02  0.14045132876E+02  0.24103872093E+03  0.27832330903E+03  0.12509542955E+03 0.  0.
          5    1    3    3  502    0 -0.25381976156E+02  0.41899569058E+02  0.72317900497E+02  0.87448097366E+02  0.41800000000E+01 0.  1.
         -5    1    3    3    0  502  0.84695272394E+02 -0.27854436182E+02  0.16872082043E+03  0.19087521166E+03  0.41800000000E+01 0.  1.
        -11    1    1    2    0    0 -0.11944430927E+02  0.22092314802E+02  0.55518624133E+01  0.25720866621E+02  0.00000000000E+00 0. -1.
         11    1    1    2    0    0 -0.47368865311E+02 -0.36137447678E+02  0.18793990451E+03  0.19715763296E+03  0.00000000000E+00 0.  1.
</event>
<event>
 7    1  0.2648915E-009  0.1148235E+03  0.7561462E-02  0.1251889E+00
          1   -1    0    0  501    0  0.00000000000E+00  0.00000000000E+00  0.14101002965E+03  0.14101002965E+03  0.00000000000E+00 0. -1.
         -1   -1    0    0    0  501 -0.00000000000E+00 -0.00000000000E+00 -0.14696892106E+03  0.14696892106E+03  0.00000000000E+00 0.  1.
         25    2    1    2    0    0 -0.44756279503E+02 -0.59815680090E+01 -0.88099444053E+02  0.15952406211E+03  0.12509001015E+03 0.  0.
          5    1    3    3  502    0  0.28725538845E+02 -0.40367763616E+02 -0.47265007846E+02  0.68601503541E+02  0.41800000000E+01 0.  1.
         -5    1    3    3    0  502 -0.73481818348E+02  0.34386195607E+02 -0.40834436207E+02  0.90922558567E+02  0.41800000000E+01 0.  1.
        -11    1    1    2    0    0 -0.21742501991E+02 -0.17765127162E+02  0.21191641574E+02  0.35177006815E+02  0.00000000000E+00 0. -1.
         11    1    1    2    0    0  0.66498781494E+02  0.23746695171E+02  0.60948911066E+02  0.93277881793E+02  0.00000000000E+00 0.  1.
</event>
<event>
 7    1  0.2648915E-009  0.9081127E+02  0.7561462E-02  0.1300899E+00
         -2   -1    0    0    0  501 -0.00000000000E+00  0.00000000000E+00  0.14189731375E+03  0.14189731375E+03  0.00000000000E+00 0. -1.
          2   -1    0    0  501    0  0.00000000000E+00 -0.00000000000E+00 -0.11237556929E+03  0.11237556929E+03  0.00000000000E+00 0.  1.
         25    2    1    2    0    0  0.32953704395E+02 -0.39820130326E+02  0.11800654308E+02  0.13585961860E+03  0.12508793352E+03 0.  0.
          5    1    3    3  502    0  0.24409201792E+02  0.16015472353E+02  0.56481466366E+02  0.63717602981E+02  0.41800000000E+01 0. -1.
         -5    1    3    3    0  502  0.85445026030E+01 -0.55835602679E+02 -0.44680812058E+02  0.72142015618E+02  0.41800000000E+01 0. -1.
        -11    1    1    2    0    0 -0.50256933852E+02 -0.19328905551E+01 -0.25050030429E+02  0.56187182619E+02  0.00000000000E+00 0.  1.
         11    1    1    2    0    0  0.17303229458E+02  0.41753020881E+02  0.42771120588E+02  0.62226081820E+02  0.00000000000E+00 0. -1.
</event>
<event>
 7    1  0.2648915E-009  0.8019963E+02  0.7561462E-02  0.1328486E+00
         -2   -1    0    0    0  501 -0.00000000000E+00  0.00000000000E+00  0.52898814569E+02  0.52898814569E+02  0.00000000000E+00 0.  1.
          2   -1    0    0  501    0  0.00000000000E+00 -0.00000000000E+00 -0.23334974982E+03  0.23334974982E+03  0.00000000000E+00 0. -1.
         25    2    1    2    0    0  0.22462731466E+02 -0.78325896247E+01 -0.73880601876E+02  0.14721133446E+03  0.12508760888E+03 0.  0.
          5    1    3    3  502    0 -0.27359084863E+02  0.42237114133E+01  0.23847377821E+02  0.36776746615E+02  0.41800000000E+01 0.  1.
         -5    1    3    3    0  502  0.49821816329E+02 -0.12056301038E+02 -0.97727979697E+02  0.11043458785E+03  0.41800000000E+01 0.  1.
        -11    1    1    2    0    0 -0.24156983334E+02 -0.32560820404E+02 -0.82658474387E+02  0.92066227560E+02  0.00000000000E+00 0.  1.
         11    1    1    2    0    0  0.16942518684E+01  0.40393410029E+02 -0.23911858989E+02  0.46971002368E+02  0.00000000000E+00 0. -1.
</event>
<event>
 7    1  0.2648915E-009  0.1267157E+03  0.7561462E-02  0.1232412E+00
         -2   -1    0    0    0  501 -0.00000000000E+00  0.00000000000E+00  0.67238047917E+03  0.67238047917E+03  0.00000000000E+00 0. -1.
          2   -1    0    0  501    0  0.00000000000E+00 -0.00000000000E+00 -0.74659569365E+02  0.74659569365E+02  0.00000000000E+00 0.  1.
         25    2    1    2    0    0 -0.15883014154E+02  0.90026461562E+02  0.59882352967E+03  0.61854427234E+03  0.12510141182E+03 0.  0.
          5    1    3    3  502    0  0.54119170969E+02  0.49241285185E+02  0.30986981687E+03  0.31841853690E+03  0.41800000000E+01 0. -1.
         -5    1    3    3    0  502 -0.70002185123E+02  0.40785176377E+02  0.28895371281E+03  0.30012573545E+03  0.41800000000E+01 0. -1.
        -11    1    1    2    0    0 -0.12139224306E+02 -0.17782361312E+02 -0.37223643571E+02  0.43002009037E+02  0.00000000000E+00 0.  1.
         11    1    1    2    0    0  0.28022238460E+02 -0.72244100250E+02  0.36121023706E+02  0.85493767158E+02  0.00000000000E+00 0. -1.
</event>
<event>
 7    1  0.2648915E-009  0.7763968E+02  0.7561462E-02  0.1335886E+00
         -2   -1    0    0    0  501 -0.00000000000E+00  0.00000000000E+00  0.37606701611E+02  0.37606701611E+02  0.00000000000E+00 0.  1.
          2   -1    0    0  501    0  0.00000000000E+00 -0.00000000000E+00 -0.33836352276E+03  0.33836352276E+03  0.00000000000E+00 0. -1.
         25    2    1    2    0    0  0.35027579940E+00  0.17948955342E+02 -0.14534328812E+03  0.19259872052E+03  0.12508920038E+03 0.  0.
          5    1    3    3  502    0 -0.30685530714E+02  0.42948013262E+02 -0.13278424461E+02  0.54588667272E+02  0.41800000000E+01 0.  1.
         -5    1    3    3    0  502  0.31035806514E+02 -0.24999057920E+02 -0.13206486366E+03  0.13801005325E+03  0.41800000000E+01 0.  1.
        -11    1    1    2    0    0  0.26009879332E+02 -0.23802798626E+02 -0.15213949240E+03  0.15617141926E+03  0.00000000000E+00 0. -1.
         11    1    1    2    0    0 -0.26360155131E+02  0.58538432843E+01 -0.32740406227E+01  0.27200084591E+02  0.00000000000E+00 0.  1.
</event>
<event>
 7    1  0.2648915E-009  0.2120484E+03  0.7561462E-02  0.1139954E+00
         -1   -1    0    0    0  501 -0.00000000000E+00  0.00000000000E+00  0.10674395695E+03  0.10674395695E+03  0.00000000000E+00 0.  1.
          1   -1    0    0  501    0  0.00000000000E+00 -0.00000000000E+00 -0.43009711286E+03  0.43009711286E+03  0.00000000000E+00 0. -1.
         25    2    1    2    0    0  0.29651238097E+02 -0.18194251111E+03 -0.16413473707E+03  0.27671443652E+03  0.12509354177E+03 0.  0.
          5    1    3    3  502    0 -0.48607421386E+02 -0.86229526035E+02 -0.73292071872E+02  0.12323722154E+03  0.41800000000E+01 0. -1.
         -5    1    3    3    0  502  0.78258659483E+02 -0.95712985075E+02 -0.90842665199E+02  0.15347721497E+03  0.41800000000E+01 0. -1.
        -11    1    1    2    0    0  0.26576176213E+02  0.34721424309E+02 -0.58738231119E+02  0.73226021626E+02  0.00000000000E+00 0.  1.
         11    1    1    2    0    0 -0.56227414310E+02  0.14722108680E+03 -0.10048018772E+03  0.18690061167E+03  0.00000000000E+00 0. -1.
</event>
<event>
 7    1  0.2648915E-009  0.1483460E+03  0.7561462E-02  0.1202520E+00
         -1   -1    0    0    0  501 -0.00000000000E+00  0.00000000000E+00  0.57771946085E+02  0.57771946085E+02  0.00000000000E+00 0.  1.
          1   -1    0    0  501    0  0.00000000000E+00 -0.00000000000E+00 -0.83368749488E+03  0.83368749488E+03  0.00000000000E+00 0. -1.
         25    2    1    2    0    0  0.93609695970E+01 -0.13882403831E+03 -0.13874394985E+03  0.23293252656E+03  0.12509171414E+03 0.  0.
          5    1    3    3  502    0  0.43966324028E+01 -0.75044137840E+02  0.50872300707E+01  0.75460620926E+02  0.41800000000E+01 0.  1.
         -5    1    3    3    0  502  0.49643371941E+01 -0.63779900466E+02 -0.14383117992E+03  0.15747190563E+03  0.41800000000E+01 0.  1.
        -11    1    1    2    0    0  0.32080711335E+02  0.69097254286E+02 -0.41672935934E+03  0.42363541109E+03  0.00000000000E+00 0. -1.
         11    1    1    2    0    0 -0.41441680932E+02  0.69726784021E+02 -0.22044223960E+03  0.23489150332E+03  0.00000000000E+00 0.  1.
</event>
<event>
 7    1  0.2648915E-009  0.1031872E+03  0.7561462E-02  0.1273733E+00
         -2   -1    0    0    0  501 -0.00000000000E+00  0.00000000000E+00  0.11929123088E+03  0.11929123088E+03  0.00000000000E+00 0. -1.
          2   -1    0    0  501    0  0.00000000000E+00 -0.00000000000E+00 -0.12298042853E+03  0.12298042853E+03  0.00000000000E+00 0.  1.
         25    2    1    2    0    0 -0.22866057161E+02  0.30164182368E+01  0.45242282341E+02  0.13500668958E+03  0.12509191329E+03 0.  0.
          5    1    3    3  502    0  0.46363047417E+02 -0.23277582991E+02  0.10474431728E+02  0.53090151212E+02  0.41800000000E+01 0.  1.
         -5    1    3    3    0  502 -0.69229104578E+02  0.26294001228E+02  0.34767850613E+02  0.81916538364E+02  0.41800000000E+01 0.  1.
        -11    1    1    2    0    0  0.12166766251E+02  0.36887460899E+02 -0.53046870167E+02  0.65747132310E+02  0.00000000000E+00 0.  1.
         11    1    1    2    0    0  0.10699290910E+02 -0.39903879136E+02  0.41153901753E+01  0.41517837520E+02  0.00000000000E+00 0. -1.
</event>
<event>
 7    1  0.2648915E-009  0.8981051E+02  0.7561462E-02  0.1303311E+00
         -1   -1    0    0    0  501 -0.00000000000E+00  0.00000000000E+00  0.10361263677E+03  0.10361263677E+03  0.00000000000E+00 0.  1.
          1   -1    0    0  501    0  0.00000000000E+00 -0.00000000000E+00 -0.14660625224E+03  0.14660625224E+03  0.00000000000E+00 0. -1.
         25    2    1    2    0    0 -0.31774707437E+01  0.13157789250E+02  0.33303443699E+02  0.13015598570E+03  0.12509291552E+03 0.  0.
          5    1    3    3  502    0 -0.45583874820E+02  0.57585361936E+01 -0.28866254127E+02  0.54422269431E+02  0.41800000000E+01 0.  1.
         -5    1    3    3    0  502  0.42406404077E+02  0.73992530565E+01  0.62169697826E+02  0.75733716271E+02  0.41800000000E+01 0.  1.
        -11    1    1    2    0    0  0.70480963482E+01  0.38143113105E+02 -0.46707870028E+02  0.60714066426E+02  0.00000000000E+00 0. -1.
         11    1    1    2    0    0 -0.38706256045E+01 -0.51300902355E+02 -0.29589189144E+02  0.59348836881E+02  0.00000000000E+00 0.  1.
</event>
<event>
 7    1  0.2648915E-009  0.9450259E+02  0.7561462E-02  0.1292300E+00
          2   -1    0    0  501    0  0.00000000000E+00  0.00000000000E+00  0.35804622722E+03  0.35804622722E+03  0.00000000000E+00 0. -1.
         -2   -1    0    0    0  501 -0.00000000000E+00 -0.00000000000E+00 -0.32555495645E+02  0.32555495645E+02  0.00000000000E+00 0.  1.
         25    2    1    2    0    0 -0.13785977922E+01  0.20528030044E+01  0.19176586663E+03  0.22897238471E+03  0.12509232919E+03 0.  0.
          5    1    3    3  502    0 -0.36013343891E+02 -0.50387825646E+02  0.98632653695E+02  0.11654083699E+03  0.41800000000E+01 0. -1.
         -5    1    3    3    0  502  0.34634746098E+02  0.52440628650E+02  0.93133212939E+02  0.11243154772E+03  0.41800000000E+01 0. -1.
        -11    1    1    2    0    0 -0.24139010956E+02  0.19114778847E+02  0.82904710881E+01  0.31887278516E+02  0.00000000000E+00 0.  1.
         11    1    1    2    0    0  0.25517608748E+02 -0.21167581852E+02  0.12543439386E+03  0.12974205964E+03  0.00000000000E+00 0. -1.
</event>
<event>
 7    1  0.2648915E-009  0.1205748E+03  0.7561462E-02  0.1242152E+00
         -2   -1    0    0    0  501 -0.00000000000E+00  0.00000000000E+00  0.24924569169E+02  0.24924569169E+02  0.00000000000E+00 0.  1.
          2   -1    0    0  501    0  0.00000000000E+00 -0.00000000000E+00 -0.59994643684E+03  0.59994643684E+03  0.00000000000E+00 0. -1.
         25    2    1    2    0    0 -0.40375753424E+02 -0.32197550327E+02 -0.27201770088E+03  0.30382539446E+03  0.12509739013E+03 0.  0.
          5    1    3    3  502    0 -0.48657163625E+02 -0.76024190874E+02 -0.18913629218E+03  0.20961203827E+03  0.41800000000E+01 0. -1.
         -5    1    3    3    0  502  0.82814102011E+01  0.43826640547E+02 -0.82881408700E+02  0.94213356191E+02  0.41800000000E+01 0. -1.
        -11    1    1    2    0    0 -0.24593828396E+02 -0.12050198341E+02 -0.71935409408E+02  0.76972506792E+02  0.00000000000E+00 0.  1.
         11    1    1    2    0    0  0.64969581819E+02  0.44247748668E+02 -0.23106875738E+03  0.24407310475E+03  0.00000000000E+00 0. -1.
</event>
<event>
 7    1  0.2648915E-009  0.1627787E+03  0.7561462E-02  0.1185595E+00
         -4   -1    0    0    0  501 -0.00000000000E+00  0.00000000000E+00  0.62081035606E+02  0.62081035606E+02  0.00000000000E+00 0.  1.
          4   -1    0    0  501    0  0.00000000000E+00 -0.00000000000E+00 -0.56814363199E+03  0.56814363199E+03  0.00000000000E+00 0. -1.
         25    2    1    2    0    0  0.76977341742E+02  0.10820054057E+03 -0.39001230750E+03  0.43057207828E+03  0.12509934642E+03 0.  0.
          5    1    3    3  502    0 -0.10854447077E+02  0.92193057788E+02 -0.19050891231E+03  0.21196343316E+03  0.41800000000E+01 0.  1.
         -5    1    3    3    0  502  0.87831788820E+02  0.16007482783E+02 -0.19950339519E+03  0.21860864512E+03  0.41800000000E+01 0.  1.
        -11    1    1    2    0    0 -0.21244728706E+02 -0.75951510273E+02 -0.15690504152E+02  0.80412451343E+02  0.00000000000E+00 0.  1.
         11    1    1    2    0    0 -0.55732613036E+02 -0.32249030299E+02 -0.10035978473E+03  0.11924013796E+03  0.00000000000E+00 0. -1.
</event>
<event>
 7    1  0.2648915E-009  0.1155039E+03  0.7561462E-02  0.1250704E+00
          1   -1    0    0  501    0  0.00000000000E+00  0.00000000000E+00  0.76198285243E+02  0.76198285243E+02  0.00000000000E+00 0. -1.
         -1   -1    0    0    0  501 -0.00000000000E+00 -0.00000000000E+00 -0.23473600967E+03  0.23473600967E+03  0.00000000000E+00 0.  1.
         25    2    1    2    0    0 -0.71958863845E+02  0.10041583558E+02 -0.10697046812E+03  0.17990784620E+03  0.12508093615E+03 0.  0.
          5    1    3    3  502    0  0.27294601023E+02  0.10966881185E+01 -0.66961053742E+02  0.72439306237E+02  0.41800000000E+01 0. -1.
         -5    1    3    3    0  502 -0.99253464867E+02  0.89448954394E+01 -0.40009414377E+02  0.10746853996E+03  0.41800000000E+01 0. -1.
        -11    1    1    2    0    0  0.77888728953E+02  0.13765227576E+02 -0.65602809208E+02  0.10276119970E+03  0.00000000000E+00 0.  1.
         11    1    1    2    0    0 -0.59298651082E+01 -0.23806811134E+02  0.14035552900E+02  0.28265249013E+02  0.00000000000E+00 0. -1.
</event>
<event>
 7    1  0.2648915E-009  0.7592203E+02  0.7561462E-02  0.1341039E+00
          1   -1    0    0  501    0  0.00000000000E+00  0.00000000000E+00  0.34372590579E+02  0.34372590579E+02  0.00000000000E+00 0. -1.
         -1   -1    0    0    0  501 -0.00000000000E+00 -0.00000000000E+00 -0.43046370427E+03  0.43046370427E+03  0.00000000000E+00 0.  1.
         25    2    1    2    0    0  0.32492403759E+02  0.25119856485E+02 -0.29571216951E+03  0.32369877248E+03  0.12509374331E+03 0.  0.
          5    1    3    3  502    0 -0.38236771010E+01 -0.19187919778E+02  0.23571493173E+01  0.20145106723E+02  0.41800000000E+01 0.  1.
         -5    1    3    3    0  502  0.36316080860E+02  0.44307776262E+02 -0.29806931883E+03  0.30355366575E+03  0.41800000000E+01 0.  1.
        -11    1    1    2    0    0 -0.40878430499E+02 -0.40077893423E+02 -0.22692802485E+02  0.61581222024E+02  0.00000000000E+00 0. -1.
         11    1    1    2    0    0  0.83860267399E+01  0.14958036939E+02 -0.77686141691E+02  0.79556300343E+02  0.00000000000E+00 0.  1.
</event>
<event>
 7    1  0.2648915E-009  0.1409484E+03  0.7561462E-02  0.1212058E+00
         -2   -1    0    0    0  501 -0.00000000000E+00  0.00000000000E+00  0.55845547887E+02  0.55845547887E+02  0.00000000000E+00 0.  1.
          2   -1    0    0  501    0  0.00000000000E+00 -0.00000000000E+00 -0.44460026898E+03  0.44460026898E+03  0.00000000000E+00 0. -1.
         25    2    1    2    0    0 -0.94379133892E+02  0.57089889241E+02 -0.18376020573E+03  0.24815704354E+03  0.12508968256E+03 0.  0.
          5    1    3    3  502    0 -0.85088639233E+02  0.79412384418E+02 -0.79409050459E+02  0.14095982768E+03  0.41800000000E+01 0.  1.
         -5    1    3    3    0  502 -0.92904946590E+01 -0.22322495176E+02 -0.10435115527E+03  0.10719721586E+03  0.41800000000E+01 0.  1.
        -11    1    1    2    0    0 -0.12116286181E+02 -0.27983849938E+02 -0.79480214224E+02  0.85129341012E+02  0.00000000000E+00 0.  1.
         11    1    1    2    0    0  0.10649542007E+03 -0.29106039304E+02 -0.12551430114E+03  0.16715943231E+03  0.00000000000E+00 0. -1.
</event>
<event>
 7    1  0.2648915E-009  0.1044433E+03  0.7561462E-02  0.1271220E+00
          4   -1    0    0  501    0  0.00000000000E+00  0.00000000000E+00  0.13648765443E+03  0.13648765443E+03  0.00000000000E+00 0. -1.
         -4   -1    0    0    0  501 -0.00000000000E+00 -0.00000000000E+00 -0.16654969757E+03  0.16654969757E+03  0.00000000000E+00 0.  1.
         25    2    1    2    0    0  0.73225521875E+02  0.84992822684E+00 -0.78273767203E+02  0.16472349398E+03  0.12507736568E+03 0.  0.
          5    1    3    3  502    0  0.42184434055E+02  0.23093960832E+02  0.25123760256E+02  0.54419970900E+02  0.41800000000E+01 0.  1.
         -5    1    3    3    0  502  0.31041087821E+02 -0.22244032606E+02 -0.10339752746E+03  0.11030352308E+03  0.41800000000E+01 0.  1.
        -11    1    1    2    0    0 -0.48541381067E+02 -0.48446094737E+02  0.37880109138E+01  0.68685069687E+02  0.00000000000E+00 0.  1.
         11    1    1    2    0    0 -0.24684140808E+02  0.47596166510E+02  0.44423713149E+02  0.69628788327E+02  0.00000000000E+00 0. -1.
</event>
<event>
 7    1  0.4017432E-009  0.9364032E+02  0.7561462E-02  0.1294268E+00
          1   -1    0    0  501    0  0.00000000000E+00  0.00000000000E+00  0.40596053476E+03  0.40596053476E+03  0.00000000000E+00 0. -1.
         -1   -1    0    0    0  501 -0.00000000000E+00 -0.00000000000E+00 -0.49929952526E+02  0.49929952526E+02  0.00000000000E+00 0.  1.
         25    2    1    2    0    0  0.59296767504E+02  0.66975901137E+01  0.30636670715E+03  0.33625716442E+03  0.12508939611E+03 0.  0.
          5    1    3    3  502    0  0.90514622667E+02  0.11749822717E+02  0.14223157528E+03  0.16905102383E+03  0.41800000000E+01 0. -1.
         -5    1    3    3    0  502 -0.31217855163E+02 -0.50522326037E+01  0.16413513187E+03  0.16720614059E+03  0.41800000000E+01 0. -1.
        -11    1    1    2    0    0 -0.26024012077E+02  0.85763223206E+01  0.71799752245E+02  0.76850549325E+02  0.00000000000E+00 0. -1.
         11    1    1    2    0    0 -0.33272755428E+02 -0.15273912434E+02 -0.22135877161E+02  0.42782773549E+02  0.00000000000E+00 0.  1.
</event>
<event>
 7    1  0.2648915E-009  0.1205301E+03  0.7561462E-02  0.1242225E+00
          1   -1    0    0  501    0  0.00000000000E+00  0.00000000000E+00  0.25234762443E+03  0.25234762443E+03  0.00000000000E+00 0. -1.
         -1   -1    0    0    0  501 -0.00000000000E+00 -0.00000000000E+00 -0.58723686207E+02  0.58723686207E+02  0.00000000000E+00 0.  1.
         25    2    1    2    0    0  0.45622216527E+02 -0.30674313897E+02  0.10517037222E+03  0.17242303333E+03  0.12508635040E+03 0.  0.
          5    1    3    3  502    0  0.80355713977E+02 -0.50499933413E+02  0.84824368967E+02  0.12735748904E+03  0.41800000000E+01 0.  1.
         -5    1    3    3    0  502 -0.34733497450E+02  0.19825619516E+02  0.20346003249E+02  0.45065544294E+02  0.41800000000E+01 0.  1.
        -11    1    1    2    0    0  0.69172720185E+01  0.49544327446E+02  0.32790398674E+02  0.59813871965E+02  0.00000000000E+00 0. -1.
         11    1    1    2    0    0 -0.52539488545E+02 -0.18870013549E+02  0.55663167334E+02  0.78834405342E+02  0.00000000000E+00 0.  1.
</event>
<event>
 7    1  0.2648915E-009  0.1319201E+03  0.7561462E-02  0.1224634E+00
         -1   -1    0    0    0  501 -0.00000000000E+00  0.00000000000E+00  0.21903813585E+02  0.21903813585E+02  0.00000000000E+00 0.  1.
          1   -1    0    0  501    0  0.00000000000E+00 -0.00000000000E+00 -0.11537923352E+04  0.11537923352E+04  0.00000000000E+00 0. -1.
         25    2    1    2    0    0 -0.11027882236E+03 -0.34252410424E+02 -0.66635383415E+03  0.68775697473E+03  0.12509027824E+03 0.  0.
          5    1    3    3  502    0 -0.30335578329E+02 -0.19762964932E+02 -0.32895122194E+02  0.49095657238E+02  0.41800000000E+01 0.  1.
         -5    1    3    3    0  502 -0.79943244028E+02 -0.14489445492E+02 -0.63345871196E+03  0.63866131749E+03  0.41800000000E+01 0.  1.
        -11    1    1    2    0    0 -0.15806832157E+02  0.53267554473E+01 -0.59659251527E+02  0.61947207841E+02  0.00000000000E+00 0. -1.
         11    1    1    2    0    0  0.12608565451E+03  0.28925654977E+02 -0.40587543595E+03  0.42599196624E+03  0.00000000000E+00 0.  1.
</event>
<event>
 7    1  0.2648915E-009  0.1198549E+03  0.7561462E-02  0.1243337E+00
          2   -1    0    0  501    0  0.00000000000E+00  0.00000000000E+00  0.21488748107E+03  0.21488748107E+03  0.00000000000E+00 0.  1.
         -2   -1    0    0    0  501 -0.00000000000E+00 -0.00000000000E+00 -0.10598658563E+03  0.10598658563E+03  0.00000000000E+00 0. -1.
         25    2    1    2    0    0 -0.82932211752E+02  0.39141901260E+02  0.62899759027E+01  0.15523298890E+03  0.12509147399E+03 0.  0.
          5    1    3    3  502    0 -0.72171179402E+02 -0.22139062975E+02  0.38721314875E+02  0.84944863714E+02  0.41800000000E+01 0. -1.
         -5    1    3    3    0  502 -0.10761032350E+02  0.61280964235E+02 -0.32431338973E+02  0.70288125188E+02  0.41800000000E+01 0. -1.
        -11    1    1    2    0    0  0.35745211539E+02 -0.41159707522E+02  0.10504509130E+03  0.11834826944E+03  0.00000000000E+00 0.  1.
         11    1    1    2    0    0  0.47187000213E+02  0.20178062619E+01 -0.24341717699E+01  0.47292808369E+02  0.00000000000E+00 0. -1.
</event>
<event>
 7    1  0.2648915E-009  0.1112653E+03  0.7561462E-02  0.1258244E+00
          1   -1    0    0  501    0  0.00000000000E+00  0.00000000000E+00  0.44066641786E+02  0.44066641786E+02  0.00000000000E+00 0. -1.
         -1   -1    0    0    0  501 -0.00000000000E+00 -0.00000000000E+00 -0.30424450312E+03  0.30424450312E+03  0.00000000000E+00 0.  1.
         25    2    1    2    0    0 -0.29798711224E+02  0.70541136177E+01 -0.10732711863E+03  0.16764076520E+03  0.12508633840E+03 0.  0.
          5    1    3    3  502    0  0.37591608108E+02  0.38203727284E+02 -0.53499275010E+02  0.75843909480E+02  0.41800000000E+01 0.  1.
         -5    1    3    3    0  502 -0.67390319332E+02 -0.31149613667E+02 -0.53827843615E+02  0.91796855717E+02  0.41800000000E+01 0.  1.
        -11    1    1    2    0    0 -0.21359176104E+02 -0.31225027622E+02 -0.44275150615E+02  0.58236635512E+02  0.00000000000E+00 0. -1.
         11    1    1    2    0    0  0.51157887328E+02  0.24170914004E+02 -0.10857559210E+03  0.12243374420E+03  0.00000000000E+00 0.  1.
</event>
<event>
 7    1  0.2648915E-009  0.1050918E+03  0.7561462E-02  0.1269939E+00
          2   -1    0    0  501    0  0.00000000000E+00  0.00000000000E+00  0.15824943308E+03  0.15824943308E+03  0.00000000000E+00 0.  1.
         -2   -1    0    0    0  501 -0.00000000000E+00 -0.00000000000E+00 -0.88539551536E+02  0.88539551536E+02  0.00000000000E+00 0. -1.
         25    2    1    2    0    0  0.39777500813E+02 -0.27308171280E+02  0.47125850026E+02  0.14211534660E+03  0.12509172719E+03 0.  0.
          5    1    3    3  502    0  0.18718674317E+02  0.44319520132E+02  0.46930286573E+02  0.67338939928E+02  0.41800000000E+01 0. -1.
         -5    1    3    3    0  502  0.21058826497E+02 -0.71627691411E+02  0.19556345355E+00  0.74776406676E+02  0.41800000000E+01 0. -1.
        -11    1    1    2    0    0 -0.26000673944E+02 -0.23148475435E+02  0.36612932803E+02  0.50521221372E+02  0.00000000000E+00 0.  1.
         11    1    1    2    0    0 -0.13776826869E+02  0.50456646714E+02 -0.14028901288E+02  0.54152416637E+02  0.00000000000E+00 0. -1.
</event>
<event>
 7    1  0.2648915E-009  0.9137436E+02  0.7561462E-02  0.1299557E+00
         -1   -1    0    0    0  501 -0.00000000000E+00  0.00000000000E+00  0.10093581309E+03  0.10093581309E+03  0.00000000000E+00 0.  1.
          1   -1    0    0  501    0  0.00000000000E+00 -0.00000000000E+00 -0.16550450250E+03  0.16550450250E+03  0.00000000000E+00 0. -1.
         25    2    1    2    0    0  0.40789247746E+02 -0.57683445992E+02 -0.30819115784E+02  0.14693853920E+03  0.12509985504E+03 0.  0.
          5    1    3    3  502    0 -0.20030647926E+02 -0.32417768929E+02  0.36311995427E+02  0.52803143946E+02  0.41800000000E+01 0.  1.
         -5    1    3    3    0  502  0.60819895672E+02 -0.25265677063E+02 -0.67131111211E+02  0.94135395253E+02  0.41800000000E+01 0.  1.
        -11    1    1    2    0    0 -0.34921274960E+02  0.19916417095E+02 -0.60650127855E+02  0.72763982324E+02  0.00000000000E+00 0. -1.
         11    1    1    2    0    0 -0.58679727853E+01  0.37767028896E+02  0.26900554228E+02  0.46737794065E+02  0.00000000000E+00 0.  1.
</event>
<event>
 7    1  0.2648915E-009  0.2017929E+03  0.7561462E-02  0.1148235E+00
          1   -1    0    0  501    0  0.00000000000E+00  0.00000000000E+00  0.26969047256E+03  0.26969047256E+03  0.00000000000E+00 0. -1.
         -1   -1    0    0    0  501 -0.00000000000E+00 -0.00000000000E+00 -0.21191736909E+03  0.21191736909E+03  0.00000000000E+00 0.  1.
         25    2    1    2    0    0 -0.39992894236E+01 -0.19308647502E+03 -0.59487262636E+02  0.23767266594E+03  0.12510467843E+03 0.  0.
          5    1    3    3  502    0 -0.14269120392E+02 -0.11873114443E+03  0.27421723534E+02  0.12276039987E+03  0.41800000000E+01 0.  1.
         -5    1    3    3    0  502  0.10269830968E+02 -0.74355330597E+02 -0.86908986169E+02  0.11491226607E+03  0.41800000000E+01 0.  1.
        -11    1    1    2    0    0  0.41590857721E+02  0.10786447726E+03  0.38175019777E+02  0.12174513147E+03  0.00000000000E+00 0.  1.
         11    1    1    2    0    0 -0.37591568298E+02  0.85221997760E+02  0.79085346326E+02  0.12219004425E+03  0.00000000000E+00 0. -1.
</event>
<event>
 7    1  0.2648915E-009  0.9266840E+02  0.7561462E-02  0.1296515E+00
         -1   -1    0    0    0  501 -0.00000000000E+00  0.00000000000E+00  0.87815961001E+02  0.87815961001E+02  0.00000000000E+00 0.  1.
          1   -1    0    0  501    0  0.00000000000E+00 -0.00000000000E+00 -0.20977303282E+03  0.20977303282E+03  0.00000000000E+00 0. -1.
         25    2    1    2    0    0  0.45254880873E+02 -0.76565335508E+01 -0.14084925199E+03  0.19388835167E+03  0.12509018499E+03 0.  0.
          5    1    3    3  502    0  0.30062517181E+02 -0.42204847501E+02 -0.43058323819E+01  0.52163365347E+02  0.41800000000E+01 0.  1.
         -5    1    3    3    0  502  0.15192363692E+02  0.34548313951E+02 -0.13654341960E+03  0.14172498632E+03  0.41800000000E+01 0.  1.
        -11    1    1    2    0    0 -0.34459030092E+02  0.44902297424E+02  0.29040415302E+02  0.63615931886E+02  0.00000000000E+00 0.  1.
         11    1    1    2    0    0 -0.10795850782E+02 -0.37245763873E+02 -0.10148235138E+02  0.40084710265E+02  0.00000000000E+00 0. -1.
</event>
<event>
 7    1  0.2648915E-009  0.1393096E+03  0.7561462E-02  0.1214261E+00
         -1   -1    0    0    0  501 -0.00000000000E+00  0.00000000000E+00  0.19576979430E+03  0.19576979430E+03  0.00000000000E+00 0.  1.
          1   -1    0    0  501    0  0.00000000000E+00 -0.00000000000E+00 -0.10414652667E+03  0.10414652667E+03  0.00000000000E+00 0. -1.
         25    2    1    2    0    0 -0.81829616658E+02 -0.35055425134E+02  0.78807097621E+02  0.17257963087E+03  0.12509277103E+03 0.  0.
          5    1    3    3  502    0 -0.84264216485E+01  0.44268048171E+02  0.26427213525E+02  0.52407391515E+02  0.41800000000E+01 0.  1.
         -5    1    3    3    0  502 -0.73403195009E+02 -0.79323473305E+02  0.52379884095E+02  0.12017223936E+03  0.41800000000E+01 0.  1.
        -11    1    1    2    0    0 -0.15609655945E+02  0.21885018032E+02  0.10858793825E+02  0.28991874315E+02  0.00000000000E+00 0. -1.
         11    1    1    2    0    0  0.97439272603E+02  0.13170407102E+02  0.19573761864E+01  0.98344815776E+02  0.00000000000E+00 0.  1.
</event>
<event>
 7    1  0.2648915E-009  0.3930392E+03  0.7561462E-02  0.1046217E+00
          2   -1    0    0  501    0  0.00000000000E+00  0.00000000000E+00  0.18914382220E+04  0.18914382220E+04  0.00000000000E+00 0. -1.
         -2   -1    0    0    0  501 -0.00000000000E+00 -0.00000000000E+00 -0.84232652887E+02  0.84232652887E+02  0.00000000000E+00 0.  1.
         25    2    1    2    0    0 -0.31293516131E+03  0.21626675109E+03  0.78709705941E+03  0.88310170906E+03  0.12508846790E+03 0.  0.
          5    1    3    3  502    0 -0.17552793868E+03  0.19113133641E+03  0.47905692746E+03  0.54484333268E+03  0.41800000000E+01 0.  1.
         -5    1    3    3    0  502 -0.13740722262E+03  0.25135414685E+02  0.30804013195E+03  0.33825837638E+03  0.41800000000E+01 0.  1.
        -11    1    1    2    0    0  0.14262500148E+03 -0.14112076174E+03  0.61100120314E+03  0.64310141555E+03  0.00000000000E+00 0.  1.
         11    1    1    2    0    0  0.17031015983E+03 -0.75145989355E+02  0.40910730654E+03  0.44946775026E+03  0.00000000000E+00 0. -1.
</event>
<event>
 7    1  0.2648915E-009  0.1907352E+03  0.7561462E-02  0.1157800E+00
          1   -1    0    0  501    0  0.00000000000E+00  0.00000000000E+00  0.59154268750E+02  0.59154268750E+02  0.00000000000E+00 0. -1.
         -1   -1    0    0    0  501 -0.00000000000E+00 -0.00000000000E+00 -0.67980729901E+03  0.67980729901E+03  0.00000000000E+00 0.  1.
         25    2    1    2    0    0 -0.87124219609E+02  0.14295712464E+03 -0.35534243023E+03  0.41224140649E+03  0.12508942952E+03 0.  0.
          5    1    3    3  502    0 -0.10579219587E+03  0.13251970917E+03 -0.35126013727E+03  0.39007001738E+03  0.41800000000E+01 0. -1.
         -5    1    3    3    0  502  0.18667976260E+02  0.10437415469E+02 -0.40822929595E+01  0.22171389111E+02  0.41800000000E+01 0. -1.
        -11    1    1    2    0    0  0.90139904847E+02 -0.62834702765E+02 -0.16620373958E+03  0.19924127425E+03  0.00000000000E+00 0. -1.
         11    1    1    2    0    0 -0.30156852379E+01 -0.80122421876E+02 -0.99106860459E+02  0.12747888702E+03  0.00000000000E+00 0.  1.
</event>
<event>
 7    1  0.2648915E-009  0.1012600E+03  0.7561462E-02  0.1277668E+00
          1   -1    0    0  501    0  0.00000000000E+00  0.00000000000E+00  0.23980538292E+03  0.23980538292E+03  0.00000000000E+00 0. -1.
         -1   -1    0    0    0  501 -0.00000000000E+00 -0.00000000000E+00 -0.21501343124E+03  0.21501343124E+03  0.00000000000E+00 0.  1.
         25    2    1    2    0    0 -0.52929498795E+02 -0.76890463785E+02 -0.16709067521E+03  0.22864828993E+03  0.12508825477E+03 0.  0.
          5    1    3    3  502    0 -0.62108351996E+02 -0.75698324455E+02 -0.18425838425E+03  0.20870148126E+03  0.41800000000E+01 0.  1.
         -5    1    3    3    0  502  0.91788532003E+01 -0.11921393303E+01  0.17167709041E+02  0.19946808667E+02  0.41800000000E+01 0.  1.
        -11    1    1    2    0    0  0.18163538591E+02  0.38473427703E+02  0.20691146405E+02  0.47310065662E+02  0.00000000000E+00 0.  1.
         11    1    1    2    0    0  0.34765960204E+02  0.38417036082E+02  0.17119148048E+03  0.17886045857E+03  0.00000000000E+00 0. -1.
</event>
<event>
 7    1  0.2648915E-009  0.1344189E+03  0.7561462E-02  0.1221042E+00
          2   -1    0    0  501    0  0.00000000000E+00  0.00000000000E+00  0.23738315463E+04  0.23738315463E+04  0.00000000000E+00 0. -1.
         -2   -1    0    0    0  501 -0.00000000000E+00 -0.00000000000E+00 -0.12165589554E+02  0.12165589554E+02  0.00000000000E+00 0.  1.
         25    2    1    2    0    0  0.90856190211E+02  0.43266827720E+02  0.18251210652E+04  0.18321683312E+04  0.12508807068E+03 0.  0.
          5    1    3    3  502    0  0.10947128999E+03  0.52438930860E+02  0.10905638233E+04  0.10973061240E+04  0.41800000000E+01 0. -1.
         -5    1    3    3    0  502 -0.18615099782E+02 -0.91721031395E+01  0.73455724193E+03  0.73486220714E+03  0.41800000000E+01 0. -1.
        -11    1    1    2    0    0 -0.28766109542E+02 -0.55885799143E+02  0.37628917931E+03  0.38150263180E+03  0.00000000000E+00 0. -1.
         11    1    1    2    0    0 -0.62090080669E+02  0.12618971422E+02  0.16025571227E+03  0.17232617291E+03  0.00000000000E+00 0.  1.
</event>
<event>
 7    1  0.2648915E-009  0.1078321E+03  0.7561462E-02  0.1264638E+00
          1   -1    0    0  501    0  0.00000000000E+00  0.00000000000E+00  0.70103643494E+03  0.70103643494E+03  0.00000000000E+00 0. -1.
         -1   -1    0    0    0  501 -0.00000000000E+00 -0.00000000000E+00 -0.20572945729E+02  0.20572945729E+02  0.00000000000E+00 0.  1.
         25    2    1    2    0    0  0.18595964993E+02 -0.30158536688E+02  0.48808398307E+03  0.50510254461E+03  0.12508900347E+03 0.  0.
          5    1    3    3  502    0  0.67003941615E+02 -0.16061074863E+02  0.37381183436E+03  0.38013188005E+03  0.41800000000E+01 0. -1.
         -5    1    3    3    0  502 -0.48407976622E+02 -0.14097461825E+02  0.11427214871E+03  0.12497066456E+03  0.41800000000E+01 0. -1.
        -11    1    1    2    0    0 -0.25080236730E+02 -0.27962323631E+02  0.10357431086E+03  0.11017507743E+03  0.00000000000E+00 0.  1.
         11    1    1    2    0    0  0.64842717372E+01  0.58120860319E+02  0.88805195281E+02  0.10633175863E+03  0.00000000000E+00 0. -1.
</event>
<event>
 7    1  0.2648915E-009  0.1313877E+03  0.7561462E-02  0.1225411E+00
         -1   -1    0    0    0  501 -0.00000000000E+00  0.00000000000E+00  0.47400322694E+02  0.47400322694E+02  0.00000000000E+00 0.  1.
          1   -1    0    0  501    0  0.00000000000E+00 -0.00000000000E+00 -0.43631870620E+03  0.43631870620E+03  0.00000000000E+00 0. -1.
         25    2    1    2    0    0 -0.27060562444E+02 -0.78276635193E+02 -0.28889971548E+03  0.32552786769E+03  0.12508333774E+03 0.  0.
          5    1    3    3  502    0  0.46612151561E+02 -0.19728207710E+02 -0.64034487681E+02  0.81729938610E+02  0.41800000000E+01 0. -1.
         -5    1    3    3    0  502 -0.73672714006E+02 -0.58548427483E+02 -0.22486522780E+03  0.24379792908E+03  0.41800000000E+01 0. -1.
        -11    1    1    2    0    0  0.57154173848E+02  0.43659024216E+02 -0.38878129567E+02  0.81757072736E+02  0.00000000000E+00 0.  1.
         11    1    1    2    0    0 -0.30093611403E+02  0.34617610977E+02 -0.61140538458E+02  0.76434088468E+02  0.00000000000E+00 0. -1.
</event>
<event>
 7    1  0.2648915E-009  0.8433397E+02  0.7561462E-02  0.1317184E+00
         -2   -1    0    0    0  501 -0.00000000000E+00  0.00000000000E+00  0.16917039592E+02  0.16917039592E+02  0.00000000000E+00 0.  1.
          2   -1    0    0  501    0  0.00000000000E+00 -0.00000000000E+00 -0.11782888726E+04  0.11782888726E+04  0.00000000000E+00 0. -1.
         25    2    1    2    0    0  0.64967404262E+02 -0.26421018660E+02 -0.85473757231E+03  0.86668508966E+03  0.12509153957E+03 0.  0.
          5    1    3    3  502    0  0.26171016969E+02 -0.17021583929E+02 -0.78923592186E+03  0.78986420935E+03  0.41800000000E+01 0.  1.
         -5    1    3    3    0  502  0.38796387293E+02 -0.93994347315E+01 -0.65501650448E+02  0.76820880310E+02  0.41800000000E+01 0.  1.
        -11    1    1    2    0    0 -0.11260951480E+02  0.40067399758E+02 -0.23122639617E+03  0.23494223086E+03  0.00000000000E+00 0. -1.
         11    1    1    2    0    0 -0.53706452782E+02 -0.13646381097E+02 -0.75407864488E+02  0.93578591645E+02  0.00000000000E+00 0.  1.
</event>
<event>
 7    1  0.2648915E-009  0.1219751E+03  0.7561462E-02  0.1239874E+00
         -2   -1    0    0    0  501 -0.00000000000E+00  0.00000000000E+00  0.82219359138E+02  0.82219359138E+02  0.00000000000E+00 0. -1.
          2   -1    0    0  501    0  0.00000000000E+00 -0.00000000000E+00 -0.21816500614E+03  0.21816500614E+03  0.00000000000E+00 0.  1.
         25    2    1    2    0    0 -0.40830094666E+02 -0.73463976819E+02 -0.13706780352E+03  0.20371749856E+03  0.12509669834E+03 0.  0.
          5    1    3    3  502    0  0.39539939753E+02 -0.52465459097E+02 -0.45551886779E+02  0.80052970108E+02  0.41800000000E+01 0.  1.
         -5    1    3    3    0  502 -0.80370034419E+02 -0.20998517722E+02 -0.91515916743E+02  0.12366452845E+03  0.41800000000E+01 0.  1.
        -11    1    1    2    0    0  0.44398446456E+02  0.35579450031E+02  0.95524063733E+01  0.57692007937E+02  0.00000000000E+00 0.  1.
         11    1    1    2    0    0 -0.35683517906E+01  0.37884526788E+02 -0.84302498490E+01  0.38974858780E+02  0.00000000000E+00 0. -1.
</event>
<event>
 7    1  0.2648915E-009  0.1060973E+03  0.7561462E-02  0.1267973E+00
         -2   -1    0    0    0  501 -0.00000000000E+00  0.00000000000E+00  0.28605379916E+02  0.28605379916E+02  0.00000000000E+00 0.  1.
          2   -1    0    0  501    0  0.00000000000E+00 -0.00000000000E+00 -0.73760925738E+03  0.73760925738E+03  0.00000000000E+00 0. -1.
         25    2    1    2    0    0  0.62720391879E+02 -0.63408236449E+02 -0.49425708248E+03  0.51758300009E+03  0.12509055281E+03 0.  0.
          5    1    3    3  502    0  0.45401281716E+02  0.79499102031E+01 -0.37229411778E+03  0.37515977928E+03  0.41800000000E+01 0.  1.
         -5    1    3    3    0  502  0.17319110163E+02 -0.71358146652E+02 -0.12196296470E+03  0.14242322082E+03  0.41800000000E+01 0.  1.
        -11    1    1    2    0    0 -0.50611533029E+02  0.62209135049E+02 -0.22089222355E+03  0.23499974082E+03  0.00000000000E+00 0. -1.
         11    1    1    2    0    0 -0.12108858849E+02  0.11991013994E+01  0.61454285634E+01  0.13631896384E+02  0.00000000000E+00 0.  1.
</event>
<event>
 7    1  0.2648915E-009  0.8974701E+02  0.7561462E-02  0.1303466E+00
         -1   -1    0    0    0  501 -0.00000000000E+00  0.00000000000E+00  0.23818966107E+03  0.23818966107E+03  0.00000000000E+00 0.  1.
          1   -1    0    0  501    0  0.00000000000E+00 -0.00000000000E+00 -0.57634623088E+02  0.57634623088E+02  0.00000000000E+00 0. -1.
         25    2    1    2    0    0  0.41408352219E+02 -0.19402747248E+02  0.10873043193E+03  0.17193205467E+03  0.12508879390E+03 0.  0.
          5    1    3    3  502    0 -0.41288287787E+02  0.13638314076E+02  0.41719015881E+02  0.60404263139E+02  0.41800000000E+01 0.  1.
         -5    1    3    3    0  502  0.82696640006E+02 -0.33041061325E+02  0.67011416050E+02  0.11152779153E+03  0.41800000000E+01 0.  1.
        -11    1    1    2    0    0 -0.29015857721E+02  0.87179026660E+01 -0.16202282970E+02  0.34357470798E+02  0.00000000000E+00 0. -1.
         11    1    1    2    0    0 -0.12392494498E+02  0.10684844582E+02  0.88026889024E+02  0.89534758697E+02  0.00000000000E+00 0.  1.
</event>
<event>
 7    1  0.2648915E-009  0.1230265E+03  0.7561462E-02  0.1238186E+00
         -1   -1    0    0    0  501 -0.00000000000E+00  0.00000000000E+00  0.62971148144E+02  0.62971148144E+02  0.00000000000E+00 0.  1.
          1   -1    0    0  501    0  0.00000000000E+00 -0.00000000000E+00 -0.47681187792E+03  0.47681187792E+03  0.00000000000E+00 0. -1.
         25    2    1    2    0    0  0.18954350371E+02  0.10245463991E+03 -0.35299837577E+03  0.38873195674E+03  0.12509380582E+03 0.  0.
          5    1    3    3  502    0 -0.24783154656E+02  0.53766062475E+02 -0.46781529928E+02  0.75571014094E+02  0.41800000000E+01 0.  1.
         -5    1    3    3    0  502  0.43737505028E+02  0.48688577433E+02 -0.30621684584E+03  0.31316094264E+03  0.41800000000E+01 0.  1.
        -11    1    1    2    0    0  0.36563940650E+01 -0.98008478957E+02 -0.14296315246E+02  0.99113146427E+02  0.00000000000E+00 0. -1.
         11    1    1    2    0    0 -0.22610744436E+02 -0.44461609502E+01 -0.46546038759E+02  0.51937922902E+02  0.00000000000E+00 0.  1.
</event>
<event>
 7    1  0.2648915E-009  0.1205812E+03  0.7561462E-02  0.1242141E+00
          2   -1    0    0  501    0  0.00000000000E+00  0.00000000000E+00  0.18845212606E+03  0.18845212606E+03  0.00000000000E+00 0. -1.
         -2   -1    0    0    0  501 -0.00000000000E+00 -0.00000000000E+00 -0.88529573384E+02  0.88529573384E+02  0.00000000000E+00 0.  1.
         25    2    1    2    0    0  0.45963562468E+02  0.47181378580E+02  0.33038523558E+02  0.14518272111E+03  0.12509095456E+03 0.  0.
          5    1    3    3  502    0  0.62647088735E+02 -0.24673743360E+02  0.17216001840E+02  0.69622657646E+02  0.41800000000E+01 0. -1.
         -5    1    3    3    0  502 -0.16683526267E+02  0.71855121940E+02  0.15822521718E+02  0.75560063468E+02  0.41800000000E+01 0. -1.
        -11    1    1    2    0    0 -0.63454794663E+02 -0.18280844588E+02  0.11652811508E+02  0.67055859256E+02  0.00000000000E+00 0.  1.
         11    1    1    2    0    0  0.17491232195E+02 -0.28900533993E+02  0.55231217614E+02  0.64743119078E+02  0.00000000000E+00 0. -1.
</event>
<event>
 7    1  0.2648915E-009  0.1080862E+03  0.7561462E-02  0.1264155E+00
          2   -1    0    0  501    0  0.00000000000E+00  0.00000000000E+00  0.17743690968E+03  0.17743690968E+03  0.00000000000E+00 0. -1.
         -2   -1    0    0    0  501 -0.00000000000E+00 -0.00000000000E+00 -0.75065746942E+02  0.75065746942E+02  0.00000000000E+00 0.  1.
         25    2    1    2    0    0 -0.24237434733E+02 -0.26919568770E+02  0.52103269217E+02  0.14026426663E+03  0.12508875810E+03 0.  0.
          5    1    3    3  502    0 -0.43003331663E+02 -0.63236376647E+02  0.61368053006E+02  0.98140899707E+02  0.41800000000E+01 0.  1.
         -5    1    3    3    0  502  0.18765896931E+02  0.36316807877E+02 -0.92647837889E+01  0.42123366919E+02  0.41800000000E+01 0.  1.
        -11    1    1    2    0    0  0.43057521347E+02 -0.20343189279E+02  0.13588871290E+02  0.49522246693E+02  0.00000000000E+00 0.  1.
         11    1    1    2    0    0 -0.18820086615E+02  0.47262758049E+02  0.36679022227E+02  0.62716143298E+02  0.00000000000E+00 0. -1.
</event>
<event>
 7    1  0.2648915E-009  0.7172762E+02  0.7561462E-02  0.1354315E+00
          1   -1    0    0  501    0  0.00000000000E+00  0.00000000000E+00  0.75516950778E+02  0.75516950778E+02  0.00000000000E+00 0. -1.
         -1   -1    0    0    0  501 -0.00000000000E+00 -0.00000000000E+00 -0.17728451883E+03  0.17728451883E+03  0.00000000000E+00 0.  1.
         25    2    1    2    0    0 -0.19884623021E+02 -0.34994769522E+02 -0.44116303612E+02  0.13861484608E+03  0.12509114750E+03 0.  0.
          5    1    3    3  502    0 -0.34193140379E+02  0.58451021340E+01 -0.76700628426E+02  0.84284013127E+02  0.41800000000E+01 0. -1.
         -5    1    3    3    0  502  0.14308517357E+02 -0.40839871657E+02  0.32584324814E+02  0.54330832954E+02  0.41800000000E+01 0. -1.
        -11    1    1    2    0    0 -0.13879115271E+02 -0.30116642122E+01 -0.61580743400E+02  0.63197214494E+02  0.00000000000E+00 0.  1.
         11    1    1    2    0    0  0.33763738292E+02  0.38006433735E+02  0.39294789597E+01  0.50989409033E+02  0.00000000000E+00 0. -1.
</event>
<event>
 7    1  0.2648915E-009  0.9259497E+02  0.7561462E-02  0.1296687E+00
          1   -1    0    0  501    0  0.00000000000E+00  0.00000000000E+00  0.55895095552E+03  0.55895095552E+03  0.00000000000E+00 0. -1.
         -1   -1    0    0    0  501 -0.00000000000E+00 -0.00000000000E+00 -0.29751420993E+02  0.29751420993E+02  0.00000000000E+00 0.  1.
         25    2    1    2    0    0  0.48083257735E+02 -0.21790903475E+02  0.39790197700E+03  0.42042845833E+03  0.12508901680E+03 0.  0.
          5    1    3    3  502    0  0.35901913767E+02  0.19275874661E+02  0.36220039299E+03  0.36450940158E+03  0.41800000000E+01 0. -1.
         -5    1    3    3    0  502  0.12181343968E+02 -0.41066778135E+02  0.35701584012E+02  0.55919056754E+02  0.41800000000E+01 0. -1.
        -11    1    1    2    0    0 -0.65349850575E+02 -0.89201658544E+01  0.10620812315E+03  0.12502134918E+03  0.00000000000E+00 0. -1.
         11    1    1    2    0    0  0.17266592840E+02  0.30711069329E+02  0.25089434377E+02  0.43252568999E+02  0.00000000000E+00 0.  1.
</event>
<event>
 7    1  0.2648915E-009  0.1907167E+03  0.7561462E-02  0.1157817E+00
         -1   -1    0    0    0  501 -0.00000000000E+00  0.00000000000E+00  0.31904716732E+02  0.31904716732E+02  0.00000000000E+00 0.  1.
          1   -1    0    0  501    0  0.00000000000E+00 -0.00000000000E+00 -0.14638121781E+04  0.14638121781E+04  0.00000000000E+00 0. -1.
         25    2    1    2    0    0 -0.54026052914E+02  0.15639556480E+03 -0.98714270479E+03  0.10087002418E+04  0.12508825342E+03 0.  0.
          5    1    3    3  502    0  0.34799475789E+02  0.40240402840E+02 -0.40305688203E+03  0.40657424425E+03  0.41800000000E+01 0. -1.
         -5    1    3    3    0  502 -0.88825528703E+02  0.11615516196E+03 -0.58408582275E+03  0.60212599756E+03  0.41800000000E+01 0. -1.
        -11    1    1    2    0    0  0.55920161828E+02 -0.48941041372E+02 -0.28455961668E+03  0.29410281446E+03  0.00000000000E+00 0. -1.
         11    1    1    2    0    0 -0.18941089139E+01 -0.10745452342E+03 -0.16020513987E+03  0.19291383852E+03  0.00000000000E+00 0.  1.
</event>
<event>
 7    1  0.2648915E-009  0.1340869E+03  0.7561462E-02  0.1221514E+00
         -2   -1    0    0    0  501 -0.00000000000E+00  0.00000000000E+00  0.29301280136E+03  0.29301280136E+03  0.00000000000E+00 0.  1.
          2   -1    0    0  501    0  0.00000000000E+00 -0.00000000000E+00 -0.11138471854E+03  0.11138471854E+03  0.00000000000E+00 0. -1.
         25    2    1    2    0    0  0.54679258074E+02  0.58133528906E+02 -0.35337096373E+02  0.15253023352E+03  0.12508970106E+03 0.  0.
          5    1    3    3  502    0 -0.21602813067E+00 -0.37652929860E+02 -0.99641782192E+01  0.39173295021E+02  0.41800000000E+01 0. -1.
         -5    1    3    3    0  502  0.54895286204E+02  0.95786458766E+02 -0.25372918154E+02  0.11335693850E+03  0.41800000000E+01 0. -1.
        -11    1    1    2    0    0 -0.60784341908E+02  0.57094938828E+00  0.15401015347E+03  0.16557230921E+03  0.00000000000E+00 0.  1.
         11    1    1    2    0    0  0.61050838346E+01 -0.58704478294E+02  0.62955025733E+02  0.86294977174E+02  0.00000000000E+00 0. -1.
</event>
<event>
 7    1  0.2648915E-009  0.1258920E+03  0.7561462E-02  0.1233682E+00
          2   -1    0    0  501    0  0.00000000000E+00  0.00000000000E+00  0.10237080859E+03  0.10237080859E+03  0.00000000000E+00 0.  1.
         -2   -1    0    0    0  501 -0.00000000000E+00 -0.00000000000E+00 -0.17838235024E+03  0.17838235024E+03  0.00000000000E+00 0. -1.
         25    2    1    2    0    0  0.66331596404E+02 -0.42802557982E+02 -0.59395484951E+02  0.15940973940E+03  0.12510676133E+03 0.  0.
          5    1    3    3  502    0  0.64881078076E+02 -0.74907997767E+02 -0.91368044070E+01  0.99607811022E+02  0.41800000000E+01 0. -1.
         -5    1    3    3    0  502  0.14505183282E+01  0.32105439785E+02 -0.50258680544E+02  0.59801928374E+02  0.41800000000E+01 0. -1.
        -11    1    1    2    0    0 -0.83487527152E+02  0.11209557532E+02 -0.10824452124E+02  0.84929324346E+02  0.00000000000E+00 0.  1.
         11    1    1    2    0    0  0.17155930748E+02  0.31593000450E+02 -0.57916045801E+01  0.36414095085E+02  0.00000000000E+00 0. -1.
</event>
<event>
 7    1  0.2873153E-009  0.5754550E+02  0.7561462E-02  0.1408431E+00
          2   -1    0    0  501    0  0.00000000000E+00  0.00000000000E+00  0.11496549472E+03  0.11496549472E+03  0.00000000000E+00 0. -1.
         -2   -1    0    0    0  501 -0.00000000000E+00 -0.00000000000E+00 -0.10564338990E+03  0.10564338990E+03  0.00000000000E+00 0.  1.
         25    2    1    2    0    0  0.12745580482E+02 -0.21946611547E+01  0.21112912223E+02  0.12751736363E+03  0.12509059359E+03 0.  0.
          5    1    3    3  502    0  0.39408015603E+02  0.13749761343E+02 -0.40551339198E+02  0.58343218471E+02  0.41800000000E+01 0. -1.
         -5    1    3    3    0  502 -0.26662435122E+02 -0.15944422498E+02  0.61664251421E+02  0.69174145161E+02  0.41800000000E+01 0. -1.
        -11    1    1    2    0    0 -0.22654306660E+02 -0.11091651800E+02  0.35176555517E+02  0.43285475716E+02  0.00000000000E+00 0. -1.
         11    1    1    2    0    0  0.99087261785E+01  0.13286312955E+02 -0.46967362916E+02  0.49806045273E+02  0.00000000000E+00 0.  1.
</event>
<event>
 7    1  0.2648915E-009  0.1416182E+03  0.7561462E-02  0.1211168E+00
          2   -1    0    0  501    0  0.00000000000E+00  0.00000000000E+00  0.52811227867E+02  0.52811227867E+02  0.00000000000E+00 0. -1.
         -2   -1    0    0    0  501 -0.00000000000E+00 -0.00000000000E+00 -0.47891392051E+03  0.47891392051E+03  0.00000000000E+00 0.  1.
         25    2    1    2    0    0 -0.19626469833E+02 -0.11278698093E+03 -0.19690843223E+03  0.25985825358E+03  0.12508908779E+03 0.  0.
          5    1    3    3  502    0 -0.49584243195E+02 -0.41406063361E+02 -0.21716958148E+02  0.68279996540E+02  0.41800000000E+01 0. -1.
         -5    1    3    3    0  502  0.29957773362E+02 -0.71380917571E+02 -0.17519147409E+03  0.19157825704E+03  0.41800000000E+01 0. -1.
        -11    1    1    2    0    0  0.51419923809E+02  0.81537843621E+02 -0.18749744210E+03  0.21082627754E+03  0.00000000000E+00 0.  1.
         11    1    1    2    0    0 -0.31793453976E+02  0.31249137310E+02 -0.41696818312E+02  0.61040617261E+02  0.00000000000E+00 0. -1.
</event>
<event>
 7    1  0.2648915E-009  0.1629241E+03  0.7561462E-02  0.1185434E+00
         -1   -1    0    0    0  501 -0.00000000000E+00  0.00000000000E+00  0.39715196849E+03  0.39715196849E+03  0.00000000000E+00 0.  1.
          1   -1    0    0  501    0  0.00000000000E+00 -0.00000000000E+00 -0.88984750959E+02  0.88984750959E+02  0.00000000000E+00 0. -1.
         25    2    1    2    0    0  0.82189724289E+02  0.11744291208E+03  0.92184080122E+02  0.21140655261E+03  0.12508731942E+03 0.  0.
          5    1    3    3  502    0 -0.21139385433E+02  0.35303138000E+02 -0.12141958002E+02  0.43105506762E+02  0.41800000000E+01 0. -1.
         -5    1    3    3    0  502  0.10332910972E+03  0.82139774082E+02  0.10432603812E+03  0.16830104584E+03  0.41800000000E+01 0. -1.
        -11    1    1    2    0    0 -0.41817331772E+02 -0.18822136242E+02  0.12984629072E+03  0.13770628622E+03  0.00000000000E+00 0.  1.
         11    1    1    2    0    0 -0.40372392516E+02 -0.98620775840E+02  0.86136846689E+02  0.13702388063E+03  0.00000000000E+00 0. -1.
</event>
<event>
 7    1  0.2648915E-009  0.1563007E+03  0.7561462E-02  0.1192938E+00
         -2   -1    0    0    0  501 -0.00000000000E+00  0.00000000000E+00  0.19900658498E+02  0.19900658498E+02  0.00000000000E+00 0.  1.
          2   -1    0    0  501    0  0.00000000000E+00 -0.00000000000E+00 -0.16864358518E+04  0.16864358518E+04  0.00000000000E+00 0. -1.
         25    2    1    2    0    0  0.47455515347E+02 -0.12124127443E+03 -0.69470474787E+03  0.71778429202E+03  0.12509248815E+03 0.  0.
          5    1    3    3  502    0  0.34719374082E+02 -0.10456031855E+03 -0.25818792255E+03  0.28074324730E+03  0.41800000000E+01 0. -1.
         -5    1    3    3    0  502  0.12736141266E+02 -0.16680955884E+02 -0.43651682532E+03  0.43704104472E+03  0.41800000000E+01 0. -1.
        -11    1    1    2    0    0 -0.13372746664E+02  0.14094654462E+03 -0.77407223247E+03  0.78691332425E+03  0.00000000000E+00 0.  1.
         11    1    1    2    0    0 -0.34082768683E+02 -0.19705270184E+02 -0.19775821298E+03  0.20163889405E+03  0.00000000000E+00 0. -1.
</event>
<event>
 7    1  0.2648915E-009  0.1069834E+03  0.7561462E-02  0.1266260E+00
         -2   -1    0    0    0  501 -0.00000000000E+00  0.00000000000E+00  0.11779358105E+03  0.11779358105E+03  0.00000000000E+00 0.  1.
          2   -1    0    0  501    0  0.00000000000E+00 -0.00000000000E+00 -0.14237719879E+03  0.14237719879E+03  0.00000000000E+00 0. -1.
         25    2    1    2    0    0  0.26755651229E+02  0.35870255179E+02  0.41372379719E+02  0.13914600489E+03  0.12508955510E+03 0.  0.
          5    1    3    3  502    0  0.75538438195E+02  0.90531083292E+01  0.31532326391E+02  0.82460744740E+02  0.41800000000E+01 0. -1.
         -5    1    3    3    0  502 -0.48782786967E+02  0.26817146849E+02  0.98400533280E+01  0.56685260155E+02  0.41800000000E+01 0. -1.
        -11    1    1    2    0    0 -0.21288239576E+02 -0.56620380428E+02 -0.10280938242E+02  0.61357593786E+02  0.00000000000E+00 0.  1.
         11    1    1    2    0    0 -0.54674116522E+01  0.20750125249E+02 -0.55675059219E+02  0.59667181156E+02  0.00000000000E+00 0. -1.
</event>
<event>
 7    1  0.2648915E-009  0.9503812E+02  0.7561462E-02  0.1291090E+00
          2   -1    0    0  501    0  0.00000000000E+00  0.00000000000E+00  0.15871144900E+03  0.15871144900E+03  0.00000000000E+00 0. -1.
         -2   -1    0    0    0  501 -0.00000000000E+00 -0.00000000000E+00 -0.98282492647E+02  0.98282492647E+02  0.00000000000E+00 0.  1.
         25    2    1    2    0    0 -0.40035301290E+02 -0.41630488567E+02  0.43557197321E+02  0.14450079611E+03  0.12508927895E+03 0.  0.
          5    1    3    3  502    0 -0.51548271315E+02 -0.12346200871E+02  0.80071892733E+02  0.96117809782E+02  0.41800000000E+01 0.  1.
         -5    1    3    3    0  502  0.11512970024E+02 -0.29284287696E+02 -0.36514695411E+02  0.48382986324E+02  0.41800000000E+01 0.  1.
        -11    1    1    2    0    0 -0.19664352422E+02  0.40986688867E+02  0.25573260814E+02  0.52159247398E+02  0.00000000000E+00 0.  1.
         11    1    1    2    0    0  0.59699653712E+02  0.64379969951E+00 -0.87015017858E+01  0.60333898140E+02  0.00000000000E+00 0. -1.
</event>
<event>
 7    1  0.2648915E-009  0.1051081E+03  0.7561462E-02  0.1269907E+00
         -2   -1    0    0    0  501 -0.00000000000E+00  0.00000000000E+00  0.23497278887E+02  0.23497278887E+02  0.00000000000E+00 0.  1.
          2   -1    0    0  501    0  0.00000000000E+00 -0.00000000000E+00 -0.59279881171E+03  0.59279881171E+03  0.00000000000E+00 0. -1.
         25    2    1    2    0    0  0.33448438265E+02  0.20694186696E+02 -0.26257592350E+03  0.29350127567E+03  0.12509930388E+03 0.  0.
          5    1    3    3  502    0  0.65496417922E+02 -0.27605972373E+02 -0.16845884972E+03  0.18288719725E+03  0.41800000000E+01 0.  1.
         -5    1    3    3    0  502 -0.32047979657E+02  0.48300159068E+02 -0.94117073779E+02  0.11061407841E+03  0.41800000000E+01 0.  1.
        -11    1    1    2    0    0  0.88146783551E+01 -0.35146592703E+02 -0.47467337925E+02  0.59717080495E+02  0.00000000000E+00 0.  1.
         11    1    1    2    0    0 -0.42263116620E+02  0.14452406007E+02 -0.25925827140E+03  0.26307773443E+03  0.00000000000E+00 0. -1.
</event>
<event>
 7    1  0.2648915E-009  0.1755808E+03  0.7561462E-02  0.1172150E+00
         -2   -1    0    0    0  501 -0.00000000000E+00  0.00000000000E+00  0.50264521344E+03  0.50264521344E+03  0.00000000000E+00 0. -1.
          2   -1    0    0  501    0  0.00000000000E+00 -0.00000000000E+00 -0.94949535712E+02  0.94949535712E+02  0.00000000000E+00 0.  1.
         25    2    1    2    0    0  0.14050659689E+03 -0.14355275239E+02  0.39886636498E+02  0.19283655554E+03  0.12508723230E+03 0.  0.
          5    1    3    3  502    0  0.27445085241E+02 -0.55674265557E+02  0.36940635033E+02  0.72352881532E+02  0.41800000000E+01 0.  1.
         -5    1    3    3    0  502  0.11306151165E+03  0.41318990318E+02  0.29460014645E+01  0.12048367401E+03  0.41800000000E+01 0.  1.
        -11    1    1    2    0    0 -0.86889608345E+01  0.34121729566E+02  0.89485757974E+02  0.96163877569E+02  0.00000000000E+00 0.  1.
         11    1    1    2    0    0 -0.13181763606E+03 -0.19766454327E+02  0.27832328326E+03  0.30859431604E+03  0.00000000000E+00 0. -1.
</event>
<event>
 7    1  0.2648915E-009  0.1393201E+03  0.7561462E-02  0.1214247E+00
          1   -1    0    0  501    0  0.00000000000E+00  0.00000000000E+00  0.31682046488E+03  0.31682046488E+03  0.00000000000E+00 0. -1.
         -1   -1    0    0    0  501 -0.00000000000E+00 -0.00000000000E+00 -0.73679726221E+02  0.73679726221E+02  0.00000000000E+00 0.  1.
         25    2    1    2    0    0 -0.65119944056E+02 -0.79418642671E+02  0.10097321191E+03  0.19076451073E+03  0.12509029184E+03 0.  0.
          5    1    3    3  502    0 -0.77553237245E+02 -0.99276234307E+02  0.52070783828E+02  0.13637856956E+03  0.41800000000E+01 0.  1.
         -5    1    3    3    0  502  0.12433293189E+02  0.19857591636E+02  0.48902428078E+02  0.54385941171E+02  0.41800000000E+01 0.  1.
        -11    1    1    2    0    0  0.74140498005E+02  0.88866056198E+02  0.14582681948E+03  0.18617048818E+03  0.00000000000E+00 0. -1.
         11    1    1    2    0    0 -0.90205539487E+01 -0.94474135276E+01 -0.36592927325E+01  0.13565192192E+02  0.00000000000E+00 0.  1.
</event>
<event>
 7    1  0.2648915E-009  0.1205677E+03  0.7561462E-02  0.1242163E+00
         -3   -1    0    0    0  501 -0.00000000000E+00  0.00000000000E+00  0.42223740366E+02  0.42223740366E+02  0.00000000000E+00 0. -1.
          3   -1    0    0  501    0  0.00000000000E+00 -0.00000000000E+00 -0.46485628296E+03  0.46485628296E+03  0.00000000000E+00 0.  1.
         25    2    1    2    0    0  0.35777373693E+02  0.71968839331E+02 -0.16132067513E+03  0.21938804392E+03  0.12508884557E+03 0.  0.
          5    1    3    3  502    0  0.66549811411E+01  0.10187546849E+03 -0.13696131642E+03  0.17087648887E+03  0.41800000000E+01 0.  1.
         -5    1    3    3    0  502  0.29122392552E+02 -0.29906629163E+02 -0.24359358711E+02  0.48511555042E+02  0.41800000000E+01 0.  1.
        -11    1    1    2    0    0 -0.46857891480E+02 -0.35209532382E+02 -0.23227256226E+03  0.23955357719E+03  0.00000000000E+00 0.  1.
         11    1    1    2    0    0  0.11080517787E+02 -0.36759306949E+02 -0.29039305205E+02  0.48138402223E+02  0.00000000000E+00 0. -1.
</event>
<event>
 7    1  0.2648915E-009  0.1226209E+03  0.7561462E-02  0.1238835E+00
          1   -1    0    0  501    0  0.00000000000E+00  0.00000000000E+00  0.88747997184E+02  0.88747997184E+02  0.00000000000E+00 0. -1.
         -1   -1    0    0    0  501 -0.00000000000E+00 -0.00000000000E+00 -0.25450460677E+03  0.25450460677E+03  0.00000000000E+00 0.  1.
         25    2    1    2    0    0 -0.67600288439E+02  0.71686174192E+02 -0.53159263503E+02  0.16786948413E+03  0.12508217234E+03 0.  0.
          5    1    3    3  502    0 -0.69258314913E+02  0.41078894370E+02  0.24502010950E+02  0.84273428125E+02  0.41800000000E+01 0.  1.
         -5    1    3    3    0  502  0.16580264741E+01  0.30607279822E+02 -0.77661274453E+02  0.83596056005E+02  0.41800000000E+01 0.  1.
        -11    1    1    2    0    0  0.42237376939E+02 -0.91964571827E+02 -0.76731508633E+02  0.12700079881E+03  0.00000000000E+00 0.  1.
         11    1    1    2    0    0  0.25362911501E+02  0.20278397635E+02 -0.35865837447E+02  0.48382321009E+02  0.00000000000E+00 0. -1.
</event>
<event>
 7    1  0.2648915E-009  0.3056351E+03  0.7561462E-02  0.1082457E+00
         -1   -1    0    0    0  501 -0.00000000000E+00  0.00000000000E+00  0.52311720704E+02  0.52311720704E+02  0.00000000000E+00 0.  1.
          1   -1    0    0  501    0  0.00000000000E+00 -0.00000000000E+00 -0.18353401142E+04  0.18353401142E+04  0.00000000000E+00 0. -1.
         25    2    1    2    0    0  0.22968839644E+03  0.17077184541E+03 -0.76916737654E+03  0.83017384155E+03  0.12510144449E+03 0.  0.
          5    1    3    3  502    0  0.11135481006E+03  0.15660135700E+03 -0.50489983503E+03  0.54024549470E+03  0.41800000000E+01 0.  1.
         -5    1    3    3    0  502  0.11833358638E+03  0.14170488409E+02 -0.26426754151E+03  0.28992834685E+03  0.41800000000E+01 0.  1.
        -11    1    1    2    0    0 -0.77163504531E+01 -0.43020712411E+02 -0.17617943373E+03  0.18152001716E+03  0.00000000000E+00 0.  1.
         11    1    1    2    0    0 -0.22197204599E+03 -0.12775113300E+03 -0.83768158320E+03  0.87595797617E+03  0.00000000000E+00 0. -1.
</event>
<event>
 7    1  0.2648915E-009  0.2391008E+03  0.7561462E-02  0.1120393E+00
          1   -1    0    0  501    0  0.00000000000E+00  0.00000000000E+00  0.41711698316E+03  0.41711698316E+03  0.00000000000E+00 0. -1.
         -1   -1    0    0    0  501 -0.00000000000E+00 -0.00000000000E+00 -0.20655153188E+03  0.20655153188E+03  0.00000000000E+00 0.  1.
         25    2    1    2    0    0 -0.22862074469E+03 -0.48824290361E+02  0.25422177465E+03  0.36732511155E+03  0.12509104939E+03 0.  0.
          5    1    3    3  502    0 -0.14537575333E+03 -0.53398454580E+01  0.72199518994E+02  0.16245881493E+03  0.41800000000E+01 0. -1.
         -5    1    3    3    0  502 -0.83244991355E+02 -0.43484444903E+02  0.18202225566E+03  0.20486629662E+03  0.41800000000E+01 0. -1.
        -11    1    1    2    0    0  0.98017837280E+02 -0.32084043517E+01 -0.59750810388E+02  0.11483879843E+03  0.00000000000E+00 0.  1.
         11    1    1    2    0    0  0.13060290741E+03  0.52032694713E+02  0.16094487017E+02  0.14150460507E+03  0.00000000000E+00 0. -1.
</event>
<event>
 7    1  0.2648915E-009  0.5458437E+02  0.7561462E-02  0.1422075E+00
         -1   -1    0    0    0  501 -0.00000000000E+00  0.00000000000E+00  0.35669932178E+02  0.35669932178E+02  0.00000000000E+00 0.  1.
          1   -1    0    0  501    0  0.00000000000E+00 -0.00000000000E+00 -0.36070300260E+03  0.36070300260E+03  0.00000000000E+00 0. -1.
         25    2    1    2    0    0  0.25105675309E+02  0.52012148784E+01 -0.22585651419E+03  0.25945369636E+03  0.12509079895E+03 0.  0.
          5    1    3    3  502    0  0.27990731376E+02  0.20642002383E+02 -0.23711007140E+03  0.23968360741E+03  0.41800000000E+01 0.  1.
         -5    1    3    3    0  502 -0.28850560669E+01 -0.15440787504E+02  0.11253557203E+02  0.19770088947E+02  0.41800000000E+01 0.  1.
        -11    1    1    2    0    0  0.64194460811E+01 -0.21470198828E+02 -0.98936763379E+02  0.10144289957E+03  0.00000000000E+00 0. -1.
         11    1    1    2    0    0 -0.31525121390E+02  0.16268983950E+02 -0.23979285230E+00  0.35476338848E+02  0.00000000000E+00 0.  1.
</event>
<event>
 7    1  0.2648915E-009  0.1127687E+03  0.7561462E-02  0.1255527E+00
         -2   -1    0    0    0  501 -0.00000000000E+00  0.00000000000E+00  0.17124658987E+02  0.17124658987E+02  0.00000000000E+00 0.  1.
          2   -1    0    0  501    0  0.00000000000E+00 -0.00000000000E+00 -0.10947085709E+04  0.10947085709E+04  0.00000000000E+00 0. -1.
         25    2    1    2    0    0 -0.40754326976E+02 -0.29407433034E+02 -0.73959669967E+03  0.75178172458E+03  0.12508705356E+03 0.  0.
          5    1    3    3  502    0  0.38572738672E+02 -0.17437805800E+02 -0.12686639493E+03  0.13380765226E+03  0.41800000000E+01 0. -1.
         -5    1    3    3    0  502 -0.79327065648E+02 -0.11969627233E+02 -0.61273030474E+03  0.61797407232E+03  0.41800000000E+01 0. -1.
        -11    1    1    2    0    0  0.65077082239E+01  0.57809571653E+02 -0.83882937436E+02  0.10208155580E+03  0.00000000000E+00 0.  1.
         11    1    1    2    0    0  0.34246618752E+02 -0.28402138619E+02 -0.25410427482E+03  0.25796994953E+03  0.00000000000E+00 0. -1.
</event>
<event>
 7    1  0.2648915E-009  0.1127343E+03  0.7561462E-02  0.1255589E+00
          2   -1    0    0  501    0  0.00000000000E+00  0.00000000000E+00  0.35329862542E+03  0.35329862542E+03  0.00000000000E+00 0. -1.
         -2   -1    0    0    0  501 -0.00000000000E+00 -0.00000000000E+00 -0.56264590948E+02  0.56264590948E+02  0.00000000000E+00 0.  1.
         25    2    1    2    0    0 -0.87076203410E+02  0.11862010657E+01  0.20162918940E+03  0.25275469133E+03  0.12508769604E+03 0.  0.
          5    1    3    3  502    0  0.24961173709E+02 -0.25832659980E+01  0.43468463082E+01  0.25808931186E+02  0.41800000000E+01 0. -1.
         -5    1    3    3    0  502 -0.11203737712E+03  0.37694670637E+01  0.19728234309E+03  0.22694576014E+03  0.41800000000E+01 0. -1.
        -11    1    1    2    0    0  0.34585107168E+02  0.51913855950E+01 -0.12097324959E+02  0.37005748113E+02  0.00000000000E+00 0.  1.
         11    1    1    2    0    0  0.52491096242E+02 -0.63775866606E+01  0.10750217003E+03  0.11980277692E+03  0.00000000000E+00 0. -1.
</event>
<event>
 7    1  0.2648915E-009  0.1093393E+03  0.7561462E-02  0.1261798E+00
         -2   -1    0    0    0  501 -0.00000000000E+00  0.00000000000E+00  0.70901500676E+02  0.70901500676E+02  0.00000000000E+00 0.  1.
          2   -1    0    0  501    0  0.00000000000E+00 -0.00000000000E+00 -0.38720064190E+03  0.38720064190E+03  0.00000000000E+00 0. -1.
         25    2    1    2    0    0  0.51311507487E+02 -0.60111338065E+02 -0.30389295748E+03  0.33800190466E+03  0.12509242259E+03 0.  0.
          5    1    3    3  502    0  0.50639831534E+01 -0.80202735089E+02 -0.25593842094E+03  0.26829101802E+03  0.41800000000E+01 0.  1.
         -5    1    3    3    0  502  0.46247524333E+02  0.20091397025E+02 -0.47954536542E+02  0.69710886641E+02  0.41800000000E+01 0.  1.
        -11    1    1    2    0    0 -0.33357098706E+02  0.61118511104E+02 -0.44979017006E+02  0.82893186719E+02  0.00000000000E+00 0. -1.
         11    1    1    2    0    0 -0.17954408780E+02 -0.10071730394E+01  0.32572833257E+02  0.37207051194E+02  0.00000000000E+00 0.  1.
</event>
<event>
 7    1  0.2648915E-009  0.1544701E+03  0.7561462E-02  0.1195085E+00
          2   -1    0    0  501    0  0.00000000000E+00  0.00000000000E+00  0.27941728342E+03  0.27941728342E+03  0.00000000000E+00 0. -1.
         -2   -1    0    0    0  501 -0.00000000000E+00 -0.00000000000E+00 -0.10498043983E+03  0.10498043983E+03  0.00000000000E+00 0.  1.
         25    2    1    2    0    0 -0.12935174893E+03 -0.68771788639E+01  0.11974801661E+03  0.21625462418E+03  0.12508918603E+03 0.  0.
          5    1    3    3  502    0  0.22238332384E+02 -0.15561285069E+02  0.25623543550E+02  0.37559757777E+02  0.41800000000E+01 0.  1.
         -5    1    3    3    0  502 -0.15159008131E+03  0.86841062053E+01  0.94124473056E+02  0.17869486641E+03  0.41800000000E+01 0.  1.
        -11    1    1    2    0    0  0.25068026557E+02 -0.54899545800E-01  0.58410979270E+02  0.63562972466E+02  0.00000000000E+00 0. -1.
         11    1    1    2    0    0  0.10428372237E+03  0.69320784097E+01 -0.37221522807E+01  0.10458012660E+03  0.00000000000E+00 0.  1.
</event>
<event>
 7    1  0.2648915E-009  0.1281814E+03  0.7561462E-02  0.1230179E+00
          2   -1    0    0  501    0  0.00000000000E+00  0.00000000000E+00  0.36753944238E+03  0.36753944238E+03  0.00000000000E+00 0. -1.
         -2   -1    0    0    0  501 -0.00000000000E+00 -0.00000000000E+00 -0.70767036568E+02  0.70767036568E+02  0.00000000000E+00 0.  1.
         25    2    1    2    0    0 -0.40673352241E+02 -0.10823618859E+03  0.19415148506E+03  0.25828710115E+03  0.12509209953E+03 0.  0.
          5    1    3    3  502    0  0.18421295473E+02 -0.44538312691E+01 -0.99240233454E+01  0.21797692062E+02  0.41800000000E+01 0.  1.
         -5    1    3    3    0  502 -0.59094647714E+02 -0.10378235732E+03  0.20407550840E+03  0.23648940909E+03  0.41800000000E+01 0.  1.
        -11    1    1    2    0    0  0.11448666755E+01  0.27867896659E+02  0.84042185992E+02  0.88549530830E+02  0.00000000000E+00 0. -1.
         11    1    1    2    0    0  0.39528485566E+02  0.80368291934E+02  0.18578734764E+02  0.91469846971E+02  0.00000000000E+00 0.  1.
</event>
<event>
 7    1  0.2648915E-009  0.1275028E+03  0.7561462E-02  0.1231209E+00
         -1   -1    0    0    0  501 -0.00000000000E+00  0.00000000000E+00  0.49040402044E+02  0.49040402044E+02  0.00000000000E+00 0.  1.
          1   -1    0    0  501    0  0.00000000000E+00 -0.00000000000E+00 -0.70307417225E+03  0.70307417225E+03  0.00000000000E+00 0. -1.
         25    2    1    2    0    0 -0.33241401084E+02 -0.67328556943E+02 -0.60048370362E+03  0.61795354156E+03  0.12509107042E+03 0.  0.
          5    1    3    3  502    0  0.13169149284E+02 -0.91277756383E+02 -0.34390633889E+03  0.35608158844E+03  0.41800000000E+01 0.  1.
         -5    1    3    3    0  502 -0.46410550368E+02  0.23949199440E+02 -0.25657736473E+03  0.26187195312E+03  0.41800000000E+01 0.  1.
        -11    1    1    2    0    0  0.84992423371E+01 -0.18827540607E+02  0.11279460195E+02  0.23535922075E+02  0.00000000000E+00 0.  1.
         11    1    1    2    0    0  0.24742158747E+02  0.86156097550E+02 -0.64829526790E+02  0.11062511066E+03  0.00000000000E+00 0. -1.
</event>
<event>
 7    1  0.2648915E-009  0.1087102E+03  0.7561462E-02  0.1262977E+00
          1   -1    0    0  501    0  0.00000000000E+00  0.00000000000E+00  0.62679052372E+03  0.62679052372E+03  0.00000000000E+00 0. -1.
         -1   -1    0    0    0  501 -0.00000000000E+00 -0.00000000000E+00 -0.30294880152E+02  0.30294880152E+02  0.00000000000E+00 0.  1.
         25    2    1    2    0    0  0.68309505321E+02  0.15118974425E+02  0.44144526266E+03  0.46413019566E+03  0.12509255251E+03 0.  0.
          5    1    3    3  502    0 -0.14015724435E+02  0.20285339821E+02  0.13761694116E+02  0.28544564597E+02  0.41800000000E+01 0.  1.
         -5    1    3    3    0  502  0.82325229756E+02 -0.51663653960E+01  0.42768356854E+03  0.43558563106E+03  0.41800000000E+01 0.  1.
        -11    1    1    2    0    0 -0.37731791793E+02 -0.50510701453E+02  0.60067469350E+02  0.87081111312E+02  0.00000000000E+00 0. -1.
         11    1    1    2    0    0 -0.30577713527E+02  0.35391727029E+02  0.94982911561E+02  0.10587409690E+03  0.00000000000E+00 0.  1.
</event>
<event>
 7    1  0.2648915E-009  0.7417381E+02  0.7561462E-02  0.1346449E+00
         -2   -1    0    0    0  501 -0.00000000000E+00  0.00000000000E+00  0.26794427604E+02  0.26794427604E+02  0.00000000000E+00 0.  1.
          2   -1    0    0  501    0  0.00000000000E+00 -0.00000000000E+00 -0.69863045609E+03  0.69863045609E+03  0.00000000000E+00 0. -1.
         25    2    1    2    0    0 -0.45356622387E+02  0.16809983572E+02 -0.56617226142E+03  0.58184145112E+03  0.12509454786E+03 0.  0.
          5    1    3    3  502    0 -0.44590560232E+02  0.29839809531E+02 -0.56556816197E+03  0.56812283049E+03  0.41800000000E+01 0. -1.
         -5    1    3    3    0  502 -0.76606215513E+00 -0.13029825959E+02 -0.60409944446E+00  0.13718620626E+02  0.41800000000E+01 0. -1.
        -11    1    1    2    0    0  0.61631854570E+02 -0.18785516791E+02 -0.39851063568E+02  0.75759411338E+02  0.00000000000E+00 0.  1.
         11    1    1    2    0    0 -0.16275232183E+02  0.19755332183E+01 -0.65812703506E+02  0.67824021238E+02  0.00000000000E+00 0. -1.
</event>
<event>
 7    1  0.2648915E-009  0.1141839E+03  0.7561462E-02  0.1253012E+00
         -2   -1    0    0    0  501 -0.00000000000E+00  0.00000000000E+00  0.19391550439E+02  0.19391550439E+02  0.00000000000E+00 0.  1.
          2   -1    0    0  501    0  0.00000000000E+00 -0.00000000000E+00 -0.97616603171E+03  0.97616603171E+03  0.00000000000E+00 0. -1.
         25    2    1    2    0    0  0.54575970101E+01  0.47525268544E+02 -0.77572447482E+03  0.78720020659E+03  0.12508903993E+03 0.  0.
          5    1    3    3  502    0  0.18144412671E+02 -0.40622243057E+02 -0.27231909651E+03  0.27596113688E+03  0.41800000000E+01 0. -1.
         -5    1    3    3    0  502 -0.12686815661E+02  0.88147511600E+02 -0.50340537830E+03  0.51123906971E+03  0.41800000000E+01 0. -1.
        -11    1    1    2    0    0 -0.11912515380E+02  0.21832125144E+02 -0.91985241966E+02  0.95288165322E+02  0.00000000000E+00 0. -1.
         11    1    1    2    0    0  0.64549183703E+01 -0.69357393688E+02 -0.89064764486E+02  0.11306921024E+03  0.00000000000E+00 0.  1.
</event>
<event>
 7    1  0.2648915E-009  0.8094073E+02  0.7561462E-02  0.1326403E+00
         -3   -1    0    0    0  501 -0.00000000000E+00  0.00000000000E+00  0.32503258319E+03  0.32503258319E+03  0.00000000000E+00 0.  1.
          3   -1    0    0  501    0  0.00000000000E+00 -0.00000000000E+00 -0.41101426465E+02  0.41101426465E+02  0.00000000000E+00 0. -1.
         25    2    1    2    0    0  0.19823269918E+02 -0.17795049715E+02  0.15218102692E+03  0.19879274032E+03  0.12509941177E+03 0.  0.
          5    1    3    3  502    0 -0.77306836621E+01 -0.63182468053E+02  0.12175531569E+03  0.13745405428E+03  0.41800000000E+01 0. -1.
         -5    1    3    3    0  502  0.27553953581E+02  0.45387418338E+02  0.30425711226E+02  0.61338686039E+02  0.41800000000E+01 0. -1.
        -11    1    1    2    0    0  0.92138339106E+01  0.12151118707E+02 -0.12729769743E+02  0.19864326288E+02  0.00000000000E+00 0. -1.
         11    1    1    2    0    0 -0.29037103829E+02  0.56439310078E+01  0.14447989956E+03  0.14747694305E+03  0.00000000000E+00 0.  1.
</event>
<event>
 7    1  0.2648915E-009  0.1771677E+03  0.7561462E-02  0.1170573E+00
         -1   -1    0    0    0  501 -0.00000000000E+00  0.00000000000E+00  0.11907553732E+03  0.11907553732E+03  0.00000000000E+00 0.  1.
          1   -1    0    0  501    0  0.00000000000E+00 -0.00000000000E+00 -0.33377437697E+03  0.33377437697E+03  0.00000000000E+00 0. -1.
         25    2    1    2    0    0  0.10209198730E+03  0.11510691128E+03 -0.42296953454E+02  0.20276184964E+03  0.12510379891E+03 0.  0.
          5    1    3    3  502    0  0.16668479484E+02 -0.18686701752E+02  0.19864339880E+02  0.32235003173E+02  0.41800000000E+01 0.  1.
         -5    1    3    3    0  502  0.85423507817E+02  0.13379361304E+03 -0.62161293334E+02  0.17052684647E+03  0.41800000000E+01 0.  1.
        -11    1    1    2    0    0 -0.50572111763E+01 -0.56643615792E+02 -0.20191888201E+02  0.60347219853E+02  0.00000000000E+00 0.  1.
         11    1    1    2    0    0 -0.97034776125E+02 -0.58463295493E+02 -0.15220999799E+03  0.18974084480E+03  0.00000000000E+00 0. -1.
</event>
<event>
 7    1  0.2648915E-009  0.1246239E+03  0.7561462E-02  0.1235658E+00
          1   -1    0    0  501    0  0.00000000000E+00  0.00000000000E+00  0.14076295491E+03  0.14076295491E+03  0.00000000000E+00 0. -1.
         -1   -1    0    0    0  501 -0.00000000000E+00 -0.00000000000E+00 -0.13693897955E+03  0.13693897955E+03  0.00000000000E+00 0.  1.
         25    2    1    2    0    0 -0.78078901266E+02  0.32040416734E+02 -0.16081303703E+02  0.15175673975E+03  0.12509435080E+03 0.  0.
          5    1    3    3  502    0 -0.40177134082E+02 -0.32393282449E+02 -0.47776682069E+02  0.70452896323E+02  0.41800000000E+01 0.  1.
         -5    1    3    3    0  502 -0.37901767184E+02  0.64433699183E+02  0.31695378366E+02  0.81303843426E+02  0.41800000000E+01 0.  1.
        -11    1    1    2    0    0  0.74597276188E-01 -0.43723627820E+02  0.17317830889E+02  0.47028379317E+02  0.00000000000E+00 0. -1.
         11    1    1    2    0    0  0.78004303990E+02  0.11683211086E+02  0.25874481740E+01  0.78916815384E+02  0.00000000000E+00 0.  1.
</event>
<event>
 7    1  0.2648915E-009  0.9101469E+02  0.7561462E-02  0.1300413E+00
         -2   -1    0    0    0  501 -0.00000000000E+00  0.00000000000E+00  0.27991259508E+02  0.27991259508E+02  0.00000000000E+00 0.  1.
          2   -1    0    0  501    0  0.00000000000E+00 -0.00000000000E+00 -0.56840399378E+03  0.56840399378E+03  0.00000000000E+00 0. -1.
         25    2    1    2    0    0 -0.43416707912E+02 -0.42715544210E+02 -0.26925967533E+03  0.30308084695E+03  0.12509036250E+03 0.  0.
          5    1    3    3  502    0 -0.56976286656E+02 -0.40939802179E+02 -0.57415234210E+02  0.90754317600E+02  0.41800000000E+01 0.  1.
         -5    1    3    3    0  502  0.13559578744E+02 -0.17757420307E+01 -0.21184444112E+03  0.21232652935E+03  0.41800000000E+01 0.  1.
        -11    1    1    2    0    0  0.29255875795E+02  0.64864308093E+02 -0.24890058787E+03  0.25887214484E+03  0.00000000000E+00 0. -1.
         11    1    1    2    0    0  0.14160832118E+02 -0.22148763883E+02 -0.22252471078E+02  0.34442261495E+02  0.00000000000E+00 0.  1.
</event>
<event>
 7    1  0.2648915E-009  0.1158531E+03  0.7561462E-02  0.1250099E+00
          1   -1    0    0  501    0  0.00000000000E+00  0.00000000000E+00  0.44271529147E+03  0.44271529147E+03  0.00000000000E+00 0. -1.
         -1   -1    0    0    0  501 -0.00000000000E+00 -0.00000000000E+00 -0.46307684157E+02  0.46307684157E+02  0.00000000000E+00 0.  1.
         25    2    1    2    0    0 -0.56258421950E+02  0.47276384536E+01  0.88837919337E+02  0.16348307978E+03  0.12508869196E+03 0.  0.
          5    1    3    3  502    0 -0.95727997244E+02  0.52602420771E+01  0.73707618180E+02  0.12100332632E+03  0.41800000000E+01 0.  1.
         -5    1    3    3    0  502  0.39469575294E+02 -0.53260362351E+00  0.15130301158E+02  0.42479753456E+02  0.41800000000E+01 0.  1.
        -11    1    1    2    0    0  0.54974113195E+02  0.29097146331E+02  0.12235149642E+03  0.13725409183E+03  0.00000000000E+00 0.  1.
         11    1    1    2    0    0  0.12843087553E+01 -0.33824784785E+02  0.18521819156E+03  0.18828580403E+03  0.00000000000E+00 0. -1.
</event>
<event>
 7    1  0.2648915E-009  0.1136975E+03  0.7561462E-02  0.1253872E+00
         -2   -1    0    0    0  501 -0.00000000000E+00  0.00000000000E+00  0.10920921059E+02  0.10920921059E+02  0.00000000000E+00 0.  1.
          2   -1    0    0  501    0  0.00000000000E+00 -0.00000000000E+00 -0.15987108562E+04  0.15987108562E+04  0.00000000000E+00 0. -1.
         25    2    1    2    0    0  0.53391675345E+00  0.53611060160E+02 -0.12053096142E+04  0.12129678853E+04  0.12508154905E+03 0.  0.
          5    1    3    3  502    0 -0.61572318859E+02  0.25017114216E+02 -0.66748328641E+03  0.67079685188E+03  0.41800000000E+01 0. -1.
         -5    1    3    3    0  502  0.62106235613E+02  0.28593945943E+02 -0.53782632781E+03  0.54217103347E+03  0.41800000000E+01 0. -1.
        -11    1    1    2    0    0 -0.16537454208E+01  0.19306309918E+02 -0.24023861119E+02  0.30864451715E+02  0.00000000000E+00 0.  1.
         11    1    1    2    0    0  0.11198286674E+01 -0.72917370077E+02 -0.35845645977E+03  0.36579944017E+03  0.00000000000E+00 0. -1.
</event>
<event>
 7    1  0.2648915E-009  0.1933544E+03  0.7561462E-02  0.1155470E+00
          2   -1    0    0  501    0  0.00000000000E+00  0.00000000000E+00  0.22014769894E+04  0.22014769894E+04  0.00000000000E+00 0. -1.
         -2   -1    0    0    0  501 -0.00000000000E+00 -0.00000000000E+00 -0.25062843419E+02  0.25062843419E+02  0.00000000000E+00 0.  1.
         25    2    1    2    0    0  0.10731647518E+03 -0.14850750322E+03  0.15879908503E+04  0.16034133144E+04  0.12509201299E+03 0.  0.
          5    1    3    3  502    0  0.11305552087E+03 -0.10285205829E+03  0.14467544584E+04  0.14548113390E+04  0.41800000000E+01 0. -1.
         -5    1    3    3    0  502 -0.57390456944E+01 -0.45655444924E+02  0.14123639191E+03  0.14860197542E+03  0.41800000000E+01 0. -1.
        -11    1    1    2    0    0 -0.87048097675E+02  0.14155772206E+03  0.57330213603E+03  0.59690141494E+03  0.00000000000E+00 0. -1.
         11    1    1    2    0    0 -0.20268377505E+02  0.69497811511E+01  0.15121159657E+02  0.26225103510E+02  0.00000000000E+00 0.  1.
</event>
<event>
 7    1  0.2648915E-009  0.1726166E+03  0.7561462E-02  0.1175146E+00
         -2   -1    0    0    0  501 -0.00000000000E+00  0.00000000000E+00  0.54078493486E+02  0.54078493486E+02  0.00000000000E+00 0.  1.
          2   -1    0    0  501    0  0.00000000000E+00 -0.00000000000E+00 -0.64358617847E+03  0.64358617847E+03  0.00000000000E+00 0. -1.
         25    2    1    2    0    0  0.12613506049E+03  0.56118723361E+02 -0.42656016909E+03  0.46546842264E+03  0.12509160652E+03 0.  0.
          5    1    3    3  502    0  0.16807709328E+02 -0.37643597558E+02 -0.11393815814E+03  0.12123908533E+03  0.41800000000E+01 0. -1.
         -5    1    3    3    0  502  0.10932735117E+03  0.93762320918E+02 -0.31262201095E+03  0.34422933731E+03  0.41800000000E+01 0. -1.
        -11    1    1    2    0    0 -0.11286433838E+03 -0.11839852273E+02 -0.85830088155E+02  0.14228613781E+03  0.00000000000E+00 0.  1.
         11    1    1    2    0    0 -0.13270722114E+02 -0.44278871088E+02 -0.77117427734E+02  0.89910111503E+02  0.00000000000E+00 0. -1.
</event>
<event>
 7    1  0.2648915E-009  0.1004492E+03  0.7561462E-02  0.1279354E+00
         -2   -1    0    0    0  501 -0.00000000000E+00  0.00000000000E+00  0.25399153096E+02  0.25399153096E+02  0.00000000000E+00 0.  1.
          2   -1    0    0  501    0  0.00000000000E+00 -0.00000000000E+00 -0.82984684545E+03  0.82984684545E+03  0.00000000000E+00 0. -1.
         25    2    1    2    0    0 -0.57461266908E+02  0.31420898469E+02 -0.64374704697E+03  0.65904934193E+03  0.12508678813E+03 0.  0.
          5    1    3    3  502    0 -0.28428090946E+02 -0.19213247728E+02 -0.53006430445E+03  0.53119012085E+03  0.41800000000E+01 0. -1.
         -5    1    3    3    0  502 -0.29033175962E+02  0.50634146197E+02 -0.11368274252E+03  0.12785922108E+03  0.41800000000E+01 0. -1.
        -11    1    1    2    0    0  0.55367819212E+02 -0.58563286670E+02 -0.92051173511E+02  0.12234652629E+03  0.00000000000E+00 0.  1.
         11    1    1    2    0    0  0.20934476966E+01  0.27142388201E+02 -0.68649471872E+02  0.73850130324E+02  0.00000000000E+00 0. -1.
</event>
<event>
 7    1  0.2648915E-009  0.1230438E+03  0.7561462E-02  0.1238159E+00
          1   -1    0    0  501    0  0.00000000000E+00  0.00000000000E+00  0.80210493801E+03  0.80210493801E+03  0.00000000000E+00 0. -1.
         -1   -1    0    0    0  501 -0.00000000000E+00 -0.00000000000E+00 -0.27088100947E+02  0.27088100947E+02  0.00000000000E+00 0.  1.
         25    2    1    2    0    0 -0.75104711274E+02 -0.16857480914E+02  0.60564321859E+03  0.62319811288E+03  0.12508911767E+03 0.  0.
          5    1    3    3  502    0 -0.17822246520E+02  0.45197145557E+02  0.10902909105E+03  0.11943713632E+03  0.41800000000E+01 0. -1.
         -5    1    3    3    0  502 -0.57282464754E+02 -0.62054626471E+02  0.49661412754E+03  0.50376097656E+03  0.41800000000E+01 0. -1.
        -11    1    1    2    0    0  0.87141077413E+02 -0.55667867693E+01  0.15161273321E+03  0.17495993073E+03  0.00000000000E+00 0. -1.
         11    1    1    2    0    0 -0.12036366139E+02  0.22424267683E+02  0.17760885262E+02  0.31034995348E+02  0.00000000000E+00 0.  1.
</event>
<event>
 7    1  0.2648915E-009  0.1958029E+03  0.7561462E-02  0.1153329E+00
         -1   -1    0    0    0  501 -0.00000000000E+00  0.00000000000E+00  0.61531320903E+03  0.61531320903E+03  0.00000000000E+00 0.  1.
          1   -1    0    0  501    0  0.00000000000E+00 -0.00000000000E+00 -0.77967953983E+02  0.77967953983E+02  0.00000000000E+00 0. -1.
         25    2    1    2    0    0  0.69278484779E+02 -0.15516020402E+03  0.41267193783E+03  0.46348649462E+03  0.12508958811E+03 0.  0.
          5    1    3    3  502    0  0.98157700442E+02 -0.14901930942E+03  0.32368832543E+03  0.36963940963E+03  0.41800000000E+01 0. -1.
         -5    1    3    3    0  502 -0.28879215664E+02 -0.61408946061E+01  0.88983612404E+02  0.93847084986E+02  0.41800000000E+01 0. -1.
        -11    1    1    2    0    0 -0.77239505250E+02  0.94202625907E+02  0.11506899539E+03  0.16757371393E+03  0.00000000000E+00 0.  1.
         11    1    1    2    0    0  0.79610204714E+01  0.60957578114E+02  0.96043218156E+01  0.62220954461E+02  0.00000000000E+00 0. -1.
</event>
<event>
 7    1  0.2648915E-009  0.1026698E+03  0.7561462E-02  0.1274780E+00
         -1   -1    0    0    0  501 -0.00000000000E+00  0.00000000000E+00  0.57924377422E+03  0.57924377422E+03  0.00000000000E+00 0.  1.
          1   -1    0    0  501    0  0.00000000000E+00 -0.00000000000E+00 -0.25144331026E+02  0.25144331026E+02  0.00000000000E+00 0. -1.
         25    2    1    2    0    0 -0.46182250462E+02  0.19468529937E+02  0.28355828930E+03  0.31394452688E+03  0.12507613126E+03 0.  0.
          5    1    3    3  502    0 -0.50433128244E+02  0.65286468738E+02  0.22275737756E+03  0.23757976573E+03  0.41800000000E+01 0.  1.
         -5    1    3    3    0  502  0.42508777823E+01 -0.45817938801E+02  0.60800911744E+02  0.76364761158E+02  0.41800000000E+01 0.  1.
        -11    1    1    2    0    0  0.53819808756E+02 -0.31441316042E+02  0.26903663051E+03  0.27616269974E+03  0.00000000000E+00 0.  1.
         11    1    1    2    0    0 -0.76375582944E+01  0.11972786105E+02  0.15045233830E+01  0.14280878629E+02  0.00000000000E+00 0. -1.
</event>
<event>
 7    1  0.2648915E-009  0.2725963E+03  0.7561462E-02  0.1099803E+00
         -1   -1    0    0    0  501 -0.00000000000E+00  0.00000000000E+00  0.45620508853E+02  0.45620508853E+02  0.00000000000E+00 0.  1.
          1   -1    0    0  501    0  0.00000000000E+00 -0.00000000000E+00 -0.21246946460E+04  0.21246946460E+04  0.00000000000E+00 0. -1.
         25    2    1    2    0    0  0.13904095215E+03 -0.22034221969E+03 -0.60514567806E+03  0.67062067944E+03  0.12509086240E+03 0.  0.
          5    1    3    3  502    0  0.99697848530E+02 -0.87123164264E+02 -0.41130928809E+03  0.43211446357E+03  0.41800000000E+01 0. -1.
         -5    1    3    3    0  502  0.39343103624E+02 -0.13321905543E+03 -0.19383638997E+03  0.23850621587E+03  0.41800000000E+01 0. -1.
        -11    1    1    2    0    0 -0.69196754007E+02  0.39006266566E+02 -0.33353252259E+03  0.34286093861E+03  0.00000000000E+00 0.  1.
         11    1    1    2    0    0 -0.69844198146E+02  0.18133595313E+03 -0.11403959364E+04  0.11568335368E+04  0.00000000000E+00 0. -1.
</event>
<event>
 7    1  0.2648915E-009  0.1597417E+03  0.7561462E-02  0.1188989E+00
         -1   -1    0    0    0  501 -0.00000000000E+00  0.00000000000E+00  0.10353671007E+03  0.10353671007E+03  0.00000000000E+00 0.  1.
          1   -1    0    0  501    0  0.00000000000E+00 -0.00000000000E+00 -0.34263973973E+03  0.34263973973E+03  0.00000000000E+00 0. -1.
         25    2    1    2    0    0  0.10179812130E+02  0.15138975356E+03 -0.15421789739E+03  0.24990492209E+03  0.12508726616E+03 0.  0.
          5    1    3    3  502    0  0.11035131529E+02  0.12455327737E+01  0.17891482180E+02  0.21468651899E+02  0.41800000000E+01 0. -1.
         -5    1    3    3    0  502 -0.85531939849E+00  0.15014422079E+03 -0.17210937957E+03  0.22843627020E+03  0.41800000000E+01 0. -1.
        -11    1    1    2    0    0  0.20347195129E+01 -0.14197820353E+03 -0.10078298655E+03  0.17412398094E+03  0.00000000000E+00 0. -1.
         11    1    1    2    0    0 -0.12214531643E+02 -0.94115500315E+01  0.15897854279E+02  0.22147546770E+02  0.00000000000E+00 0.  1.
</event>
<event>
 7    1  0.2648915E-009  0.1120110E+03  0.7561462E-02  0.1256891E+00
          2   -1    0    0  501    0  0.00000000000E+00  0.00000000000E+00  0.19358473224E+02  0.19358473224E+02  0.00000000000E+00 0. -1.
         -2   -1    0    0    0  501 -0.00000000000E+00 -0.00000000000E+00 -0.97148447019E+03  0.97148447019E+03  0.00000000000E+00 0.  1.
         25    2    1    2    0    0  0.83899101819E+02  0.25856212473E+01 -0.50462932808E+03  0.52663433717E+03  0.12508885484E+03 0.  0.
          5    1    3    3  502    0  0.33591324305E+02 -0.25932438138E+02 -0.40212018000E+02  0.58611835050E+02  0.41800000000E+01 0.  1.
         -5    1    3    3    0  502  0.50307777514E+02  0.28518059385E+02 -0.46441731008E+03  0.46802250212E+03  0.41800000000E+01 0.  1.
        -11    1    1    2    0    0 -0.10235142582E+03  0.70309384853E+01 -0.37610515176E+03  0.38984655140E+03  0.00000000000E+00 0.  1.
         11    1    1    2    0    0  0.18452323996E+02 -0.96165597326E+01 -0.71391517128E+02  0.74362054838E+02  0.00000000000E+00 0. -1.
</event>
<event>
 7    1  0.2648915E-009  0.1274529E+03  0.7561462E-02  0.1231285E+00
          1   -1    0    0  501    0  0.00000000000E+00  0.00000000000E+00  0.15548831659E+03  0.15548831659E+03  0.00000000000E+00 0. -1.
         -1   -1    0    0    0  501 -0.00000000000E+00 -0.00000000000E+00 -0.19721608453E+03  0.19721608453E+03  0.00000000000E+00 0.  1.
         25    2    1    2    0    0  0.11863267319E+03 -0.41664543543E+02  0.30068717173E+02  0.17987949762E+03  0.12507142190E+03 0.  0.
          5    1    3    3  502    0  0.27192660842E+02 -0.22043569857E+02  0.69788094215E+02  0.78187021109E+02  0.41800000000E+01 0.  1.
         -5    1    3    3    0  502  0.91440012351E+02 -0.19620973686E+02 -0.39719377042E+02  0.10169247652E+03  0.41800000000E+01 0.  1.
        -11    1    1    2    0    0 -0.98469881698E+02  0.37979791306E+02 -0.94905277126E+02  0.14193587910E+03  0.00000000000E+00 0.  1.
         11    1    1    2    0    0 -0.20162791495E+02  0.36847522367E+01  0.23108792008E+02  0.30889024394E+02  0.00000000000E+00 0. -1.
</event>
<event>
 7    1  0.2648915E-009  0.1575422E+03  0.7561462E-02  0.1191500E+00
          1   -1    0    0  501    0  0.00000000000E+00  0.00000000000E+00  0.80014371136E+02  0.80014371136E+02  0.00000000000E+00 0. -1.
         -1   -1    0    0    0  501 -0.00000000000E+00 -0.00000000000E+00 -0.37135016272E+03  0.37135016272E+03  0.00000000000E+00 0.  1.
         25    2    1    2    0    0  0.12968867133E+02  0.13109979770E+03 -0.18130940572E+03  0.25666280748E+03  0.12508935874E+03 0.  0.
          5    1    3    3  502    0  0.69150664744E+02  0.68097614908E+02 -0.95805835327E+02  0.13643800817E+03  0.41800000000E+01 0.  1.
         -5    1    3    3    0  502 -0.56181797612E+02  0.63002182789E+02 -0.85503570391E+02  0.12022479931E+03  0.41800000000E+01 0.  1.
        -11    1    1    2    0    0  0.50260020231E+01 -0.54898900444E+02  0.52192042765E+01  0.55374994895E+02  0.00000000000E+00 0. -1.
         11    1    1    2    0    0 -0.17994869156E+02 -0.76200897252E+02 -0.11524559014E+03  0.13932673148E+03  0.00000000000E+00 0.  1.
</event>
<event>
 7    1  0.2648915E-009  0.2246432E+03  0.7561462E-02  0.1130468E+00
         -1   -1    0    0    0  501 -0.00000000000E+00  0.00000000000E+00  0.34857786934E+03  0.34857786934E+03  0.00000000000E+00 0.  1.
          1   -1    0    0  501    0  0.00000000000E+00 -0.00000000000E+00 -0.15634602941E+03  0.15634602941E+03  0.00000000000E+00 0. -1.
         25    2    1    2    0    0  0.19255287207E+03  0.62262575359E+02  0.56981131444E+02  0.24463597021E+03  0.12508665695E+03 0.  0.
          5    1    3    3  502    0  0.86401691506E+02  0.81740249879E+02  0.66292564320E+02  0.13623104356E+03  0.41800000000E+01 0.  1.
         -5    1    3    3    0  502  0.10615118056E+03 -0.19477674520E+02 -0.93114328768E+01  0.10840492665E+03  0.41800000000E+01 0.  1.
        -11    1    1    2    0    0 -0.29011451476E+02 -0.50581167315E+02  0.31742838190E+02  0.66390711549E+02  0.00000000000E+00 0.  1.
         11    1    1    2    0    0 -0.16354142059E+03 -0.11681408044E+02  0.10350787030E+03  0.19389721699E+03  0.00000000000E+00 0. -1.
</event>
<event>
 7    1  0.2648915E-009  0.9094541E+02  0.7561462E-02  0.1300578E+00
         -1   -1    0    0    0  501 -0.00000000000E+00  0.00000000000E+00  0.74062350494E+02  0.74062350494E+02  0.00000000000E+00 0.  1.
          1   -1    0    0  501    0  0.00000000000E+00 -0.00000000000E+00 -0.28296976915E+03  0.28296976915E+03  0.00000000000E+00 0. -1.
         25    2    1    2    0    0 -0.32391737556E+02 -0.60403218337E+02 -0.19905218173E+03  0.24487969220E+03  0.12508604700E+03 0.  0.
          5    1    3    3  502    0 -0.41440934357E+02 -0.28514647944E+02 -0.82161382359E+01  0.51141113747E+02  0.41800000000E+01 0. -1.
         -5    1    3    3    0  502  0.90491968012E+01 -0.31888570393E+02 -0.19083604349E+03  0.19373857845E+03  0.41800000000E+01 0. -1.
        -11    1    1    2    0    0  0.28778370746E+02 -0.77112269117E+01  0.21836881295E+02  0.36939234263E+02  0.00000000000E+00 0.  1.
         11    1    1    2    0    0  0.36133668100E+01  0.68114445248E+02 -0.31692118220E+02  0.75213193181E+02  0.00000000000E+00 0. -1.
</event>
<event>
 7    1  0.2648915E-009  0.1462096E+03  0.7561462E-02  0.1205209E+00
          3   -1    0    0  501    0  0.00000000000E+00  0.00000000000E+00  0.16750255844E+03  0.16750255844E+03  0.00000000000E+00 0. -1.
         -3   -1    0    0    0  501 -0.00000000000E+00 -0.00000000000E+00 -0.21479677099E+03  0.21479677099E+03  0.00000000000E+00 0.  1.
         25    2    1    2    0    0 -0.55660385141E+02 -0.11222667876E+03  0.67214951141E+02  0.18936288148E+03  0.12509014879E+03 0.  0.
          5    1    3    3  502    0  0.14736717206E+02 -0.66379301850E+02  0.79123663543E+02  0.10440981314E+03  0.41800000000E+01 0. -1.
         -5    1    3    3    0  502 -0.70397102348E+02 -0.45847376909E+02 -0.11908712402E+02  0.84953068335E+02  0.41800000000E+01 0. -1.
        -11    1    1    2    0    0 -0.14165058182E+02  0.19708280986E+02  0.67476820174E+01  0.25191197378E+02  0.00000000000E+00 0. -1.
         11    1    1    2    0    0  0.69825443323E+02  0.92518397773E+02 -0.12125684570E+03  0.16774525058E+03  0.00000000000E+00 0.  1.
</event>
<event>
 7    1  0.2648915E-009  0.1169259E+03  0.7561462E-02  0.1248256E+00
         -1   -1    0    0    0  501 -0.00000000000E+00  0.00000000000E+00  0.91872127600E+03  0.91872127600E+03  0.00000000000E+00 0.  1.
          1   -1    0    0  501    0  0.00000000000E+00 -0.00000000000E+00 -0.20403090009E+02  0.20403090009E+02  0.00000000000E+00 0. -1.
         25    2    1    2    0    0  0.56801079653E+02 -0.26795883704E+02  0.30950679576E+03  0.33968541532E+03  0.12508933898E+03 0.  0.
          5    1    3    3  502    0 -0.33868642513E+01 -0.54954944007E+02  0.22723464938E+03  0.23384733267E+03  0.41800000000E+01 0.  1.
         -5    1    3    3    0  502  0.60187943904E+02  0.28159060303E+02  0.82272146385E+02  0.10583808265E+03  0.41800000000E+01 0.  1.
        -11    1    1    2    0    0 -0.22045764125E+02  0.60039473855E+02  0.31340685313E+03  0.31986654987E+03  0.00000000000E+00 0.  1.
         11    1    1    2    0    0 -0.34755315528E+02 -0.33243590151E+02  0.27540453710E+03  0.27957240081E+03  0.00000000000E+00 0. -1.
</event>
<event>
 7    1  0.2648915E-009  0.3077375E+03  0.7561462E-02  0.1081435E+00
          2   -1    0    0  501    0  0.00000000000E+00  0.00000000000E+00  0.38130370495E+03  0.38130370495E+03  0.00000000000E+00 0. -1.
         -2   -1    0    0    0  501 -0.00000000000E+00 -0.00000000000E+00 -0.25999399978E+03  0.25999399978E+03  0.00000000000E+00 0.  1.
         25    2    1    2    0    0 -0.28692180912E+03 -0.65485592567E+02  0.33478236367E+02  0.32152524046E+03  0.12508077613E+03 0.  0.
          5    1    3    3  502    0 -0.34547459466E+02  0.33640152066E+02  0.91731215403E+01  0.49262616103E+02  0.41800000000E+01 0.  1.
         -5    1    3    3    0  502 -0.25237434966E+03 -0.99125744633E+02  0.24305114827E+02  0.27226262435E+03  0.41800000000E+01 0.  1.
        -11    1    1    2    0    0  0.14947805470E+03  0.18366135467E+02  0.11944789686E+01  0.15060687418E+03  0.00000000000E+00 0.  1.
         11    1    1    2    0    0  0.13744375442E+03  0.47119457100E+02  0.86636989827E+02  0.16916559010E+03  0.00000000000E+00 0. -1.
</event>
<event>
 7    1  0.2648915E-009  0.6656018E+02  0.7561462E-02  0.1372197E+00
         -4   -1    0    0    0  501 -0.00000000000E+00  0.00000000000E+00  0.38982856209E+02  0.38982856209E+02  0.00000000000E+00 0.  1.
          4   -1    0    0  501    0  0.00000000000E+00 -0.00000000000E+00 -0.24637657057E+03  0.24637657057E+03  0.00000000000E+00 0. -1.
         25    2    1    2    0    0  0.37189502360E+02 -0.41140987081E+01 -0.10838590355E+03  0.16969366505E+03  0.12509376873E+03 0.  0.
          5    1    3    3  502    0 -0.78774938385E+01  0.31320473177E+02 -0.10737357572E+03  0.11220331596E+03  0.41800000000E+01 0.  1.
         -5    1    3    3    0  502  0.45066996198E+02 -0.35434571885E+02 -0.10123278305E+01  0.57490349091E+02  0.41800000000E+01 0.  1.
        -11    1    1    2    0    0 -0.22089776324E+02  0.12923007360E+02 -0.14594231513E+02  0.29461057869E+02  0.00000000000E+00 0.  1.
         11    1    1    2    0    0 -0.15099726036E+02 -0.88089086523E+01 -0.84413579298E+02  0.86204703862E+02  0.00000000000E+00 0. -1.
</event>
<event>
 7    1  0.2648915E-009  0.1125485E+03  0.7561462E-02  0.1255922E+00
          2   -1    0    0  501    0  0.00000000000E+00  0.00000000000E+00  0.54125249335E+02  0.54125249335E+02  0.00000000000E+00 0. -1.
         -2   -1    0    0    0  501 -0.00000000000E+00 -0.00000000000E+00 -0.38257959899E+03  0.38257959899E+03  0.00000000000E+00 0.  1.
         25    2    1    2    0    0  0.19309344110E+02 -0.77467109149E+02 -0.10261100237E+03  0.18042002493E+03  0.12509342037E+03 0.  0.
          5    1    3    3  502    0 -0.16339838671E+02  0.28191470358E+02 -0.72657365849E+01  0.33645395775E+02  0.41800000000E+01 0. -1.
         -5    1    3    3    0  502  0.35649182781E+02 -0.10565857951E+03 -0.95345265784E+02  0.14677462916E+03  0.41800000000E+01 0. -1.
        -11    1    1    2    0    0 -0.16784420147E+01  0.29570040250E+02 -0.55207961824E+01  0.30127788476E+02  0.00000000000E+00 0. -1.
         11    1    1    2    0    0 -0.17630902095E+02  0.47897068899E+02 -0.22032255110E+03  0.22615703491E+03  0.00000000000E+00 0.  1.
</event>
<event>
 7    1  0.2648915E-009  0.9055416E+02  0.7561462E-02  0.1301515E+00
         -2   -1    0    0    0  501 -0.00000000000E+00  0.00000000000E+00  0.14667546308E+03  0.14667546308E+03  0.00000000000E+00 0.  1.
          2   -1    0    0  501    0  0.00000000000E+00 -0.00000000000E+00 -0.17431786386E+03  0.17431786386E+03  0.00000000000E+00 0. -1.
         25    2    1    2    0    0  0.71700173882E+02  0.43034843071E+02  0.69708180768E+02  0.16582355999E+03  0.12508121333E+03 0.  0.
          5    1    3    3  502    0  0.21311495703E+02  0.38137775425E+02 -0.30520497316E+02  0.53456925837E+02  0.41800000000E+01 0. -1.
         -5    1    3    3    0  502  0.50388678179E+02  0.48970676457E+01  0.10022867808E+03  0.11236663415E+03  0.41800000000E+01 0. -1.
        -11    1    1    2    0    0 -0.54330129921E+02 -0.20727816722E+02 -0.47433318981E+01  0.58342991017E+02  0.00000000000E+00 0.  1.
         11    1    1    2    0    0 -0.17370043961E+02 -0.22307026349E+02 -0.92607249645E+02  0.96826775938E+02  0.00000000000E+00 0. -1.
</event>
<event>
 7    1  0.2648915E-009  0.2329017E+03  0.7561462E-02  0.1124614E+00
          1   -1    0    0  501    0  0.00000000000E+00  0.00000000000E+00  0.86878044849E+03  0.86878044849E+03  0.00000000000E+00 0. -1.
         -1   -1    0    0    0  501 -0.00000000000E+00 -0.00000000000E+00 -0.81731028955E+02  0.81731028955E+02  0.00000000000E+00 0.  1.
         25    2    1    2    0    0 -0.20490420796E+03  0.80631224128E+02  0.22087951034E+03  0.33603922560E+03  0.12508986495E+03 0.  0.
          5    1    3    3  502    0 -0.28355036635E+02  0.59348736749E+02  0.10425089036E+03  0.12333694173E+03  0.41800000000E+01 0. -1.
         -5    1    3    3    0  502 -0.17654917132E+03  0.21282487379E+02  0.11662861998E+03  0.21270228387E+03  0.41800000000E+01 0. -1.
        -11    1    1    2    0    0  0.11487481567E+03 -0.60233927138E+02  0.43605591996E+03  0.45493858331E+03  0.00000000000E+00 0. -1.
         11    1    1    2    0    0  0.90029392289E+02 -0.20397296990E+02  0.13011398924E+03  0.15953366854E+03  0.00000000000E+00 0.  1.
</event>
<event>
 7    1  0.2648915E-009  0.1165636E+03  0.7561462E-02  0.1248876E+00
         -3   -1    0    0    0  501 -0.00000000000E+00  0.00000000000E+00  0.18357009473E+03  0.18357009473E+03  0.00000000000E+00 0.  1.
          3   -1    0    0  501    0  0.00000000000E+00 -0.00000000000E+00 -0.10607853759E+03  0.10607853759E+03  0.00000000000E+00 0. -1.
         25    2    1    2    0    0  0.20374377576E+02  0.81953606137E+02  0.12619745955E+02  0.15145472884E+03  0.12509103916E+03 0.  0.
          5    1    3    3  502    0  0.37719600937E+02 -0.17618132785E+02 -0.18313817508E+02  0.45673134438E+02  0.41800000000E+01 0. -1.
         -5    1    3    3    0  502 -0.17345223361E+02  0.99571738922E+02  0.30933563463E+02  0.10578159440E+03  0.41800000000E+01 0. -1.
        -11    1    1    2    0    0  0.85539347616E+01 -0.20133878567E+02 -0.19753337224E+02  0.29474348128E+02  0.00000000000E+00 0. -1.
         11    1    1    2    0    0 -0.28928312338E+02 -0.61819727570E+02  0.84625148418E+02  0.10871955535E+03  0.00000000000E+00 0.  1.
</event>
<event>
 7    1  0.2648915E-009  0.1947695E+03  0.7561462E-02  0.1154229E+00
         -2   -1    0    0    0  501 -0.00000000000E+00  0.00000000000E+00  0.35403631912E+03  0.35403631912E+03  0.00000000000E+00 0.  1.
          2   -1    0    0  501    0  0.00000000000E+00 -0.00000000000E+00 -0.12274237483E+03  0.12274237483E+03  0.00000000000E+00 0. -1.
         25    2    1    2    0    0 -0.44312691647E+02 -0.16530545252E+03  0.67000801799E+02  0.22231805989E+03  0.12508679002E+03 0.  0.
          5    1    3    3  502    0 -0.73779902978E+02 -0.11113144823E+03  0.32156580222E+01  0.13349713752E+03  0.41800000000E+01 0.  1.
         -5    1    3    3    0  502  0.29467211331E+02 -0.54174004284E+02  0.63785143776E+02  0.88820922369E+02  0.41800000000E+01 0.  1.
        -11    1    1    2    0    0  0.72690928226E+02  0.10607825422E+03  0.10615826539E+03  0.16675174474E+03  0.00000000000E+00 0. -1.
         11    1    1    2    0    0 -0.28378236580E+02  0.59227198293E+02  0.58134877103E+02  0.87708889315E+02  0.00000000000E+00 0.  1.
</event>
<event>
 7    1  0.2648915E-009  0.1073899E+03  0.7561462E-02  0.1265481E+00
          1   -1    0    0  501    0  0.00000000000E+00  0.00000000000E+00  0.81844143393E+03  0.81844143393E+03  0.00000000000E+00 0. -1.
         -1   -1    0    0    0  501 -0.00000000000E+00 -0.00000000000E+00 -0.14855743429E+02  0.14855743429E+02  0.00000000000E+00 0.  1.
         25    2    1    2    0    0 -0.15426682175E+02  0.33283602762E+01  0.42314802722E+03  0.44153196519E+03  0.12508861995E+03 0.  0.
          5    1    3    3  502    0 -0.17781442855E+01 -0.59838923971E+02  0.23539593900E+03  0.24292504835E+03  0.41800000000E+01 0.  1.
         -5    1    3    3    0  502 -0.13648537889E+02  0.63167284247E+02  0.18775208822E+03  0.19860691684E+03  0.41800000000E+01 0.  1.
        -11    1    1    2    0    0 -0.23692218735E+02 -0.33201335722E+02  0.12071263567E+03  0.12741738631E+03  0.00000000000E+00 0.  1.
         11    1    1    2    0    0  0.39118900909E+02  0.29872975446E+02  0.25972502761E+03  0.26434782586E+03  0.00000000000E+00 0. -1.
</event>
<event>
 7    1  0.2648915E-009  0.6798236E+02  0.7561462E-02  0.1367092E+00
         -2   -1    0    0    0  501 -0.00000000000E+00  0.00000000000E+00  0.17115529514E+02  0.17115529514E+02  0.00000000000E+00 0.  1.
          2   -1    0    0  501    0  0.00000000000E+00 -0.00000000000E+00 -0.15173610358E+04  0.15173610358E+04  0.00000000000E+00 0. -1.
         25    2    1    2    0    0 -0.40623120034E+02  0.24375027711E+02 -0.13035814401E+04  0.13104260344E+04  0.12508973097E+03 0.  0.
          5    1    3    3  502    0 -0.35824343603E+02  0.29247367350E+02 -0.13012507629E+04  0.13020790346E+04  0.41800000000E+01 0.  1.
         -5    1    3    3    0  502 -0.47987764311E+01 -0.48723396391E+01 -0.23306772001E+01  0.83469997607E+01  0.41800000000E+01 0.  1.
        -11    1    1    2    0    0  0.13884375907E+02  0.23143681270E+02 -0.14962309447E+03  0.15203774622E+03  0.00000000000E+00 0. -1.
         11    1    1    2    0    0  0.26738744127E+02 -0.47518708981E+02 -0.47040971733E+02  0.72012784714E+02  0.00000000000E+00 0.  1.
</event>
<event>
 7    1  0.2648915E-009  0.7006331E+02  0.7561462E-02  0.1359878E+00
         -2   -1    0    0    0  501 -0.00000000000E+00  0.00000000000E+00  0.44087562848E+02  0.44087562848E+02  0.00000000000E+00 0.  1.
          2   -1    0    0  501    0  0.00000000000E+00 -0.00000000000E+00 -0.31335587985E+03  0.31335587985E+03  0.00000000000E+00 0. -1.
         25    2    1    2    0    0 -0.44277058937E+02  0.10528847910E+02 -0.14744731011E+03  0.19864402108E+03  0.12508966091E+03 0.  0.
          5    1    3    3  502    0 -0.19388950537E+00  0.10882278153E+02  0.21246331946E+02  0.24235110730E+02  0.41800000000E+01 0.  1.
         -5    1    3    3    0  502 -0.44083169431E+02 -0.35343024293E+00 -0.16869364206E+03  0.17440891035E+03  0.41800000000E+01 0.  1.
        -11    1    1    2    0    0  0.20016985474E+02  0.30522801753E+02 -0.10948442119E+02  0.38107604479E+02  0.00000000000E+00 0.  1.
         11    1    1    2    0    0  0.24260073462E+02 -0.41051649663E+02 -0.11087256477E+03  0.12069181713E+03  0.00000000000E+00 0. -1.
</event>
<event>
 7    1  0.2648915E-009  0.1506736E+03  0.7561462E-02  0.1199648E+00
         -1   -1    0    0    0  501 -0.00000000000E+00  0.00000000000E+00  0.63270041128E+02  0.63270041128E+02  0.00000000000E+00 0.  1.
          1   -1    0    0  501    0  0.00000000000E+00 -0.00000000000E+00 -0.41395411064E+03  0.41395411064E+03  0.00000000000E+00 0. -1.
         25    2    1    2    0    0 -0.11248027803E+03  0.43538499608E+02 -0.18886317883E+03  0.25664052023E+03  0.12509053686E+03 0.  0.
          5    1    3    3  502    0 -0.69232900360E+02 -0.39633857108E+02 -0.89779205821E+02  0.12017410420E+03  0.41800000000E+01 0.  1.
         -5    1    3    3    0  502 -0.43247377666E+02  0.83172356717E+02 -0.99083973014E+02  0.13646641603E+03  0.41800000000E+01 0.  1.
        -11    1    1    2    0    0  0.23199394532E+02 -0.29049927331E+02 -0.11050657031E+03  0.11659250519E+03  0.00000000000E+00 0. -1.
         11    1    1    2    0    0  0.89280883494E+02 -0.14488572278E+02 -0.51314320360E+02  0.10399112634E+03  0.00000000000E+00 0.  1.
</event>
<event>
 7    1  0.2648915E-009  0.1485185E+03  0.7561462E-02  0.1202305E+00
          2   -1    0    0  501    0  0.00000000000E+00  0.00000000000E+00  0.24676820533E+03  0.24676820533E+03  0.00000000000E+00 0.  1.
         -2   -1    0    0    0  501 -0.00000000000E+00 -0.00000000000E+00 -0.12029335812E+03  0.12029335812E+03  0.00000000000E+00 0. -1.
         25    2    1    2    0    0 -0.91625993540E+02 -0.91279698276E+02  0.27923402377E+02  0.18208349577E+03  0.12508947606E+03 0.  0.
          5    1    3    3  502    0  0.19314437723E+02  0.53934250652E+01 -0.18628231914E+02  0.27687902823E+02  0.41800000000E+01 0.  1.
         -5    1    3    3    0  502 -0.11094043126E+03 -0.96673123341E+02  0.46551634291E+02  0.15439559294E+03  0.41800000000E+01 0.  1.
        -11    1    1    2    0    0  0.40034013076E+02  0.40897691070E+02  0.97267267224E+02  0.11285506019E+03  0.00000000000E+00 0.  1.
         11    1    1    2    0    0  0.51591980464E+02  0.50382007206E+02  0.12841776076E+01  0.72123007497E+02  0.00000000000E+00 0. -1.
</event>
<event>
 7    1  0.2648915E-009  0.1214531E+03  0.7561462E-02  0.1240719E+00
         -4   -1    0    0    0  501 -0.00000000000E+00  0.00000000000E+00  0.72973127193E+02  0.72973127193E+02  0.00000000000E+00 0. -1.
          4   -1    0    0  501    0  0.00000000000E+00 -0.00000000000E+00 -0.30865565769E+03  0.30865565769E+03  0.00000000000E+00 0.  1.
         25    2    1    2    0    0  0.12079933226E+02  0.94180427246E+02 -0.70589954521E+02  0.17218206909E+03  0.12509134891E+03 0.  0.
          5    1    3    3  502    0  0.30409356040E+02  0.95508812303E+02 -0.97126246231E+02  0.13963395815E+03  0.41800000000E+01 0.  1.
         -5    1    3    3    0  502 -0.18329422814E+02 -0.13283850568E+01  0.26536291711E+02  0.32548110933E+02  0.41800000000E+01 0.  1.
        -11    1    1    2    0    0 -0.26243002882E+02  0.21894491543E+01 -0.63296238001E+02  0.68555835878E+02  0.00000000000E+00 0.  1.
         11    1    1    2    0    0  0.14163069655E+02 -0.96369876400E+02 -0.10179633798E+03  0.14089087992E+03  0.00000000000E+00 0. -1.
</event>
<event>
 7    1  0.2648915E-009  0.9698053E+02  0.7561462E-02  0.1286777E+00
          1   -1    0    0  501    0  0.00000000000E+00  0.00000000000E+00  0.89759491972E+02  0.89759491972E+02  0.00000000000E+00 0. -1.
         -1   -1    0    0    0  501 -0.00000000000E+00 -0.00000000000E+00 -0.19869982676E+03  0.19869982676E+03  0.00000000000E+00 0.  1.
         25    2    1    2    0    0 -0.50483089550E+02  0.30505415760E+01 -0.12433488169E+03  0.18347864812E+03  0.12508958141E+03 0.  0.
          5    1    3    3  502    0 -0.54811887226E+01  0.60158236991E+02 -0.42781904846E+02  0.74140546869E+02  0.41800000000E+01 0.  1.
         -5    1    3    3    0  502 -0.45001900827E+02 -0.57107695415E+02 -0.81552976844E+02  0.10933810125E+03  0.41800000000E+01 0.  1.
        -11    1    1    2    0    0  0.27915270660E+02  0.14993072555E+02 -0.34799344758E+02  0.47064306605E+02  0.00000000000E+00 0.  1.
         11    1    1    2    0    0  0.22567818890E+02 -0.18043614131E+02  0.50193891656E+02  0.57916364008E+02  0.00000000000E+00 0. -1.
</event>
<event>
 7    1  0.2648915E-009  0.1232429E+03  0.7561462E-02  0.1237841E+00
         -1   -1    0    0    0  501 -0.00000000000E+00  0.00000000000E+00  0.97172179068E+03  0.97172179068E+03  0.00000000000E+00 0.  1.
          1   -1    0    0  501    0  0.00000000000E+00 -0.00000000000E+00 -0.25098703279E+02  0.25098703279E+02  0.00000000000E+00 0. -1.
         25    2    1    2    0    0  0.29092568685E+02  0.86226590987E+02  0.64797012106E+03  0.66617781739E+03  0.12508478744E+03 0.  0.
          5    1    3    3  502    0  0.40896901077E+02  0.85468843600E+02  0.24065082473E+03  0.25866536604E+03  0.41800000000E+01 0. -1.
         -5    1    3    3    0  502 -0.11804332392E+02  0.75774738687E+00  0.40731929633E+03  0.40751245135E+03  0.41800000000E+01 0. -1.
        -11    1    1    2    0    0 -0.66117216639E+02 -0.75902935758E+02  0.24282357730E+03  0.26286124036E+03  0.00000000000E+00 0. -1.
         11    1    1    2    0    0  0.37024647954E+02 -0.10323655228E+02  0.55829389042E+02  0.67781436206E+02  0.00000000000E+00 0.  1.
</event>
<event>
 7    1  0.2757897E-009  0.1309869E+03  0.7561462E-02  0.1225999E+00
          2   -1    0    0  501    0  0.00000000000E+00  0.00000000000E+00  0.81366041400E+03  0.81366041400E+03  0.00000000000E+00 0. -1.
         -2   -1    0    0    0  501 -0.00000000000E+00 -0.00000000000E+00 -0.23549164359E+02  0.23549164359E+02  0.00000000000E+00 0.  1.
         25    2    1    2    0    0 -0.67429335044E+02  0.45952266828E+02  0.35560914550E+03  0.38569857060E+03  0.12508875627E+03 0.  0.
          5    1    3    3  502    0 -0.19599986782E+01  0.71012588197E+02  0.24098311855E+03  0.25127070084E+03  0.41800000000E+01 0. -1.
         -5    1    3    3    0  502 -0.65469336366E+02 -0.25060321369E+02  0.11462602695E+03  0.13442786975E+03  0.41800000000E+01 0. -1.
        -11    1    1    2    0    0  0.83673983455E+01 -0.59420667720E+02  0.25856880842E+03  0.26544049765E+03  0.00000000000E+00 0.  1.
         11    1    1    2    0    0  0.59061936699E+02  0.13468400892E+02  0.17593329572E+03  0.18607051011E+03  0.00000000000E+00 0. -1.
</event>
<event>
 7    1  0.2648915E-009  0.1237757E+03  0.7561462E-02  0.1236995E+00
         -4   -1    0    0    0  501 -0.00000000000E+00  0.00000000000E+00  0.64107038364E+02  0.64107038364E+02  0.00000000000E+00 0. -1.
          4   -1    0    0  501    0  0.00000000000E+00 -0.00000000000E+00 -0.27087639864E+03  0.27087639864E+03  0.00000000000E+00 0.  1.
         25    2    1    2    0    0 -0.57399461438E+02 -0.36050260446E+01 -0.62548340276E+02  0.15121634237E+03  0.12508554250E+03 0.  0.
          5    1    3    3  502    0 -0.92669322937E+02 -0.22209390923E+02 -0.31320607401E+02  0.10039578331E+03  0.41800000000E+01 0.  1.
         -5    1    3    3    0  502  0.35269861499E+02  0.18604364878E+02 -0.31227732875E+02  0.50820559060E+02  0.41800000000E+01 0.  1.
        -11    1    1    2    0    0  0.54088617167E+02  0.45112616191E+02 -0.74234549192E+02  0.10233032268E+03  0.00000000000E+00 0. -1.
         11    1    1    2    0    0  0.33108442714E+01 -0.41507590146E+02 -0.69986470813E+02  0.81436771954E+02  0.00000000000E+00 0.  1.
</event>
<event>
 7    1  0.2648915E-009  0.1446031E+03  0.7561462E-02  0.1207266E+00
          2   -1    0    0  501    0  0.00000000000E+00  0.00000000000E+00  0.34400328853E+03  0.34400328853E+03  0.00000000000E+00 0. -1.
         -2   -1    0    0    0  501 -0.00000000000E+00 -0.00000000000E+00 -0.85059667285E+02  0.85059667285E+02  0.00000000000E+00 0.  1.
         25    2    1    2    0    0 -0.11153412358E+03 -0.65949624618E+02  0.17319493157E+03  0.24986943733E+03  0.12509611376E+03 0.  0.
          5    1    3    3  502    0 -0.64309195142E+02 -0.53957306481E+02  0.18173160312E+03  0.20022714970E+03  0.41800000000E+01 0.  1.
         -5    1    3    3    0  502 -0.47224928438E+02 -0.11992318137E+02 -0.85366715490E+01  0.49642287633E+02  0.41800000000E+01 0.  1.
        -11    1    1    2    0    0  0.99632421243E+02  0.11241119150E+02  0.44741751711E+02  0.10979438268E+03  0.00000000000E+00 0.  1.
         11    1    1    2    0    0  0.11901702337E+02  0.54708505468E+02  0.41006937958E+02  0.69399135800E+02  0.00000000000E+00 0. -1.
</event>
<event>
 7    1  0.2648915E-009  0.2420165E+03  0.7561462E-02  0.1118457E+00
         -1   -1    0    0    0  501 -0.00000000000E+00  0.00000000000E+00  0.64621822245E+02  0.64621822245E+02  0.00000000000E+00 0.  1.
          1   -1    0    0  501    0  0.00000000000E+00 -0.00000000000E+00 -0.10468967194E+04  0.10468967194E+04  0.00000000000E+00 0. -1.
         25    2    1    2    0    0 -0.22095117166E+03  0.63469544478E+02 -0.61792612184E+03  0.67106466950E+03  0.12508914926E+03 0.  0.
          5    1    3    3  502    0 -0.17092934280E+03  0.71763493971E+00 -0.49945739157E+03  0.52791335807E+03  0.41800000000E+01 0.  1.
         -5    1    3    3    0  502 -0.50021828861E+02  0.62751909538E+02 -0.11846873027E+03  0.14315131144E+03  0.41800000000E+01 0.  1.
        -11    1    1    2    0    0  0.13166574283E+03 -0.56050333855E+02 -0.14598017924E+03  0.20442045027E+03  0.00000000000E+00 0.  1.
         11    1    1    2    0    0  0.89285428836E+02 -0.74192106230E+01 -0.21836859606E+03  0.23603342186E+03  0.00000000000E+00 0. -1.
</event>
<event>
 7    1  0.2648915E-009  0.1933605E+03  0.7561462E-02  0.1155465E+00
         -1   -1    0    0    0  501 -0.00000000000E+00  0.00000000000E+00  0.22957215055E+02  0.22957215055E+02  0.00000000000E+00 0.  1.
          1   -1    0    0  501    0  0.00000000000E+00 -0.00000000000E+00 -0.20447146305E+04  0.20447146305E+04  0.00000000000E+00 0. -1.
         25    2    1    2    0    0  0.46191123766E+02 -0.17898868163E+03 -0.11756137356E+04  0.11966145379E+04  0.12509248146E+03 0.  0.
          5    1    3    3  502    0  0.55611481218E+02 -0.16801811769E+03 -0.74526664028E+03  0.76600428343E+03  0.41800000000E+01 0.  1.
         -5    1    3    3    0  502 -0.94203574521E+01 -0.10970563939E+02 -0.43034709529E+03  0.43061025444E+03  0.41800000000E+01 0.  1.
        -11    1    1    2    0    0 -0.55591414567E+02  0.94588654438E+02 -0.61709857029E+03  0.62677592836E+03  0.00000000000E+00 0.  1.
         11    1    1    2    0    0  0.94002908011E+01  0.84400027192E+02 -0.22904510958E+03  0.24428137931E+03  0.00000000000E+00 0. -1.
</event>
<event>
 7    1  0.2648915E-009  0.5236957E+02  0.7561462E-02  0.1432964E+00
          2   -1    0    0  501    0  0.00000000000E+00  0.00000000000E+00  0.14651608265E+03  0.14651608265E+03  0.00000000000E+00 0. -1.
         -2   -1    0    0    0  501 -0.00000000000E+00 -0.00000000000E+00 -0.13544015300E+03  0.13544015300E+03  0.00000000000E+00 0.  1.
         25    2    1    2    0    0  0.80697330591E+01 -0.64477028780E+01  0.97090262932E+02  0.15868500165E+03  0.12509083551E+03 0.  0.
          5    1    3    3  502    0 -0.88665457094E+01  0.76583775754E+01 -0.28505431661E+02  0.31101421416E+02  0.41800000000E+01 0. -1.
         -5    1    3    3    0  502  0.16936278768E+02 -0.14106080453E+02  0.12559569459E+03  0.12758358023E+03  0.41800000000E+01 0. -1.
        -11    1    1    2    0    0 -0.23183325934E+02  0.32395946579E+02 -0.84246574662E+02  0.93190392736E+02  0.00000000000E+00 0.  1.
         11    1    1    2    0    0  0.15113592875E+02 -0.25948243701E+02 -0.17677586186E+01  0.30080841266E+02  0.00000000000E+00 0. -1.
</event>
<event>
 7    1  0.2648915E-009  0.9148653E+02  0.7561462E-02  0.1299291E+00
         -2   -1    0    0    0  501 -0.00000000000E+00  0.00000000000E+00  0.37808877961E+02  0.37808877961E+02  0.00000000000E+00 0.  1.
          2   -1    0    0  501    0  0.00000000000E+00 -0.00000000000E+00 -0.39635768386E+03  0.39635768386E+03  0.00000000000E+00 0. -1.
         25    2    1    2    0    0 -0.47526747960E+01  0.10632792723E+02 -0.30401084716E+03  0.32894511464E+03  0.12508656624E+03 0.  0.
          5    1    3    3  502    0  0.53148738499E+02  0.77722421550E+01 -0.22188699966E+03  0.22833420500E+03  0.41800000000E+01 0. -1.
         -5    1    3    3    0  502 -0.57901413295E+02  0.28605505678E+01 -0.82123847496E+02  0.10061090964E+03  0.41800000000E+01 0. -1.
        -11    1    1    2    0    0 -0.12448831742E+02 -0.37254041644E+02  0.31445363941E+01  0.39404633480E+02  0.00000000000E+00 0.  1.
         11    1    1    2    0    0  0.17201506538E+02  0.26621248921E+02 -0.57682495137E+02  0.65816813707E+02  0.00000000000E+00 0. -1.
</event>
<event>
 7    1  0.2648915E-009  0.1533809E+03  0.7561462E-02  0.1196379E+00
          2   -1    0    0  501    0  0.00000000000E+00  0.00000000000E+00  0.22111244821E+03  0.22111244821E+03  0.00000000000E+00 0. -1.
         -2   -1    0    0    0  501 -0.00000000000E+00 -0.00000000000E+00 -0.11658614175E+03  0.11658614175E+03  0.00000000000E+00 0.  1.
         25    2    1    2    0    0  0.48610128827E+02  0.10774577042E+03  0.58431026596E+02  0.18175295227E+03  0.12509138708E+03 0.  0.
          5    1    3    3  502    0 -0.25291161146E+02  0.85417469172E+02  0.82063758537E+01  0.89557824206E+02  0.41800000000E+01 0. -1.
         -5    1    3    3    0  502  0.73901289973E+02  0.22328301245E+02  0.50224650743E+02  0.92195128062E+02  0.41800000000E+01 0. -1.
        -11    1    1    2    0    0 -0.40255511363E+01  0.11911541128E+02 -0.10395658991E+02  0.16314398544E+02  0.00000000000E+00 0.  1.
         11    1    1    2    0    0 -0.44584577691E+02 -0.11965731154E+03  0.56490938854E+02  0.13963123915E+03  0.00000000000E+00 0. -1.
</event>
<event>
 7    1  0.2648915E-009  0.1177383E+03  0.7561462E-02  0.1246876E+00
         -1   -1    0    0    0  501 -0.00000000000E+00  0.00000000000E+00  0.12763628908E+03  0.12763628908E+03  0.00000000000E+00 0.  1.
          1   -1    0    0  501    0  0.00000000000E+00 -0.00000000000E+00 -0.14995877627E+03  0.14995877627E+03  0.00000000000E+00 0. -1.
         25    2    1    2    0    0  0.68250080447E+02  0.49806359898E+02 -0.14732547586E+02  0.15167148736E+03  0.12509374546E+03 0.  0.
          5    1    3    3  502    0 -0.36714813023E+02  0.76894035996E+01 -0.22895453077E+01  0.37812945412E+02  0.41800000000E+01 0.  1.
         -5    1    3    3    0  502  0.10496489347E+03  0.42116956298E+02 -0.12443002278E+02  0.11385854195E+03  0.41800000000E+01 0.  1.
        -11    1    1    2    0    0 -0.15026086665E+02 -0.92943420807E+01 -0.45660765753E+02  0.48959918345E+02  0.00000000000E+00 0. -1.
         11    1    1    2    0    0 -0.53223993782E+02 -0.40512017817E+02  0.38070826151E+02  0.76963659643E+02  0.00000000000E+00 0.  1.
</event>
<event>
 7    1  0.2648915E-009  0.1121082E+03  0.7561462E-02  0.1256715E+00
         -3   -1    0    0    0  501 -0.00000000000E+00  0.00000000000E+00  0.55256601428E+03  0.55256601428E+03  0.00000000000E+00 0.  1.
          3   -1    0    0  501    0  0.00000000000E+00 -0.00000000000E+00 -0.25745303218E+02  0.25745303218E+02  0.00000000000E+00 0. -1.
         25    2    1    2    0    0  0.19686216001E+01 -0.29389471678E+02  0.19976662191E+03  0.23753369234E+03  0.12509170736E+03 0.  0.
          5    1    3    3  502    0  0.53155294375E+02  0.20299000824E+02  0.88999053161E+02  0.10571583901E+03  0.41800000000E+01 0.  1.
         -5    1    3    3    0  502 -0.51186672775E+02 -0.49688472502E+02  0.11076756875E+03  0.13181785333E+03  0.41800000000E+01 0.  1.
        -11    1    1    2    0    0  0.11591089902E+02 -0.31373598136E+02  0.11840273982E+03  0.12303603059E+03  0.00000000000E+00 0.  1.
         11    1    1    2    0    0 -0.13559711502E+02  0.60763069814E+02  0.20865134933E+03  0.21774159457E+03  0.00000000000E+00 0. -1.
</event>
<event>
 7    1  0.2648915E-009  0.1618578E+03  0.7561462E-02  0.1186615E+00
         -1   -1    0    0    0  501 -0.00000000000E+00  0.00000000000E+00  0.19399874798E+03  0.19399874798E+03  0.00000000000E+00 0.  1.
          1   -1    0    0  501    0  0.00000000000E+00 -0.00000000000E+00 -0.16827182079E+03  0.16827182079E+03  0.00000000000E+00 0. -1.
         25    2    1    2    0    0  0.11937784622E+03  0.51927996886E+02  0.70251150395E+02  0.19372806770E+03  0.12509097911E+03 0.  0.
          5    1    3    3  502    0  0.81119460583E+02 -0.17948819336E+02 -0.59614789553E+01  0.83399871896E+02  0.41800000000E+01 0. -1.
         -5    1    3    3    0  502  0.38258385640E+02  0.69876816222E+02  0.76212629351E+02  0.11032819581E+03  0.41800000000E+01 0. -1.
        -11    1    1    2    0    0  0.11874803968E+02 -0.23688851192E+02  0.16966334064E+01  0.26552800323E+02  0.00000000000E+00 0.  1.
         11    1    1    2    0    0 -0.13125265019E+03 -0.28239145695E+02 -0.46220856611E+02  0.14198970074E+03  0.00000000000E+00 0. -1.
</event>
<event>
 7    1  0.2648915E-009  0.1165513E+03  0.7561462E-02  0.1248897E+00
         -2   -1    0    0    0  501 -0.00000000000E+00  0.00000000000E+00  0.37901063231E+02  0.37901063231E+02  0.00000000000E+00 0.  1.
          2   -1    0    0  501    0  0.00000000000E+00 -0.00000000000E+00 -0.40967161587E+03  0.40967161587E+03  0.00000000000E+00 0. -1.
         25    2    1    2    0    0 -0.57045438086E+02  0.11975764106E+02 -0.18682589015E+03  0.23226720084E+03  0.12508612403E+03 0.  0.
          5    1    3    3  502    0 -0.45966266115E+02  0.60756193254E+02 -0.15519083774E+03  0.17293316962E+03  0.41800000000E+01 0.  1.
         -5    1    3    3    0  502 -0.11079171970E+02 -0.48780429148E+02 -0.31635052416E+02  0.59334031219E+02  0.41800000000E+01 0.  1.
        -11    1    1    2    0    0  0.10319800133E+02 -0.47057601199E+02 -0.11143478411E+03  0.12140274797E+03  0.00000000000E+00 0. -1.
         11    1    1    2    0    0  0.46725637953E+02  0.35081837093E+02 -0.73509878377E+02  0.93902730285E+02  0.00000000000E+00 0.  1.
</event>
<event>
 7    1  0.2648915E-009  0.1634040E+03  0.7561462E-02  0.1184906E+00
          2   -1    0    0  501    0  0.00000000000E+00  0.00000000000E+00  0.33972137034E+03  0.33972137034E+03  0.00000000000E+00 0. -1.
         -2   -1    0    0    0  501 -0.00000000000E+00 -0.00000000000E+00 -0.98700059405E+02  0.98700059405E+02  0.00000000000E+00 0.  1.
         25    2    1    2    0    0 -0.82980677474E+02  0.12139312190E+03  0.13930807294E+03  0.23806608166E+03  0.12508651876E+03 0.  0.
          5    1    3    3  502    0 -0.11373838557E+02  0.10538590265E+03  0.12365945480E+03  0.16292539962E+03  0.41800000000E+01 0.  1.
         -5    1    3    3    0  502 -0.71606838917E+02  0.16007219249E+02  0.15648618135E+02  0.75140682039E+02  0.41800000000E+01 0.  1.
        -11    1    1    2    0    0  0.69309330432E+02 -0.96147551524E+02  0.28771490695E+02  0.12196693661E+03  0.00000000000E+00 0.  1.
         11    1    1    2    0    0  0.13671347043E+02 -0.25245570375E+02  0.72941747308E+02  0.78388411477E+02  0.00000000000E+00 0. -1.
</event>
<event>
 7    1  0.2648915E-009  0.1400521E+03  0.7561462E-02  0.1213259E+00
         -1   -1    0    0    0  501 -0.00000000000E+00  0.00000000000E+00  0.13154653768E+03  0.13154653768E+03  0.00000000000E+00 0.  1.
          1   -1    0    0  501    0  0.00000000000E+00 -0.00000000000E+00 -0.20017652302E+03  0.20017652302E+03  0.00000000000E+00 0. -1.
         25    2    1    2    0    0 -0.15611763618E+02  0.10287084896E+03  0.27767076875E+02  0.16506209243E+03  0.12509334542E+03 0.  0.
          5    1    3    3  502    0  0.49983162460E+02  0.68950662194E+02 -0.21124133905E+01  0.85290357232E+02  0.41800000000E+01 0. -1.
         -5    1    3    3    0  502 -0.65594926078E+02  0.33920186764E+02  0.29879490266E+02  0.79771735193E+02  0.41800000000E+01 0. -1.
        -11    1    1    2    0    0  0.14135896549E+02  0.34449097583E+01 -0.47410916514E+02  0.49593204970E+02  0.00000000000E+00 0. -1.
         11    1    1    2    0    0  0.14758670689E+01 -0.10631575872E+03 -0.48986145699E+02  0.11706776331E+03  0.00000000000E+00 0.  1.
</event>
<event>
 7    1  0.2648915E-009  0.1137234E+03  0.7561462E-02  0.1253826E+00
          2   -1    0    0  501    0  0.00000000000E+00  0.00000000000E+00  0.39806215497E+02  0.39806215497E+02  0.00000000000E+00 0. -1.
         -2   -1    0    0    0  501 -0.00000000000E+00 -0.00000000000E+00 -0.40167547321E+03  0.40167547321E+03  0.00000000000E+00 0.  1.
         25    2    1    2    0    0  0.15844548619E+01 -0.49797596503E+02 -0.13034500656E+03  0.18739941031E+03  0.12508559923E+03 0.  0.
          5    1    3    3  502    0  0.58528017895E+02 -0.12014181516E+02 -0.89447012319E+02  0.10764808335E+03  0.41800000000E+01 0. -1.
         -5    1    3    3    0  502 -0.56943563034E+02 -0.37783414987E+02 -0.40897994244E+02  0.79751326962E+02  0.41800000000E+01 0. -1.
        -11    1    1    2    0    0  0.30854172872E+02  0.57938342349E+02 -0.11054484682E+03  0.12856513779E+03  0.00000000000E+00 0.  1.
         11    1    1    2    0    0 -0.32438627734E+02 -0.81407458465E+01 -0.12097940433E+03  0.12551714060E+03  0.00000000000E+00 0. -1.
</event>
<event>
 7    1  0.2648915E-009  0.1433317E+03  0.7561462E-02  0.1208915E+00
          2   -1    0    0  501    0  0.00000000000E+00  0.00000000000E+00  0.64846830397E+03  0.64846830397E+03  0.00000000000E+00 0. -1.
         -2   -1    0    0    0  501 -0.00000000000E+00 -0.00000000000E+00 -0.38462015455E+02  0.38462015455E+02  0.00000000000E+00 0.  1.
         25    2    1    2    0    0 -0.86861083328E+02  0.53591820909E+02  0.21606908784E+03  0.26971853290E+03  0.12508119444E+03 0.  0.
          5    1    3    3  502    0 -0.11789558055E+03  0.53957698987E+02  0.16623062122E+03  0.21085751830E+03  0.41800000000E+01 0. -1.
         -5    1    3    3    0  502  0.31034497219E+02 -0.36587807848E+00  0.49838466618E+02  0.58861014596E+02  0.41800000000E+01 0. -1.
        -11    1    1    2    0    0  0.86268475344E+02 -0.15650246352E+02  0.18337143968E+03  0.20325418800E+03  0.00000000000E+00 0.  1.
         11    1    1    2    0    0  0.59260798454E+00 -0.37941574557E+02  0.21056576099E+03  0.21395759852E+03  0.00000000000E+00 0. -1.
</event>
<event>
 7    1  0.2648915E-009  0.2401737E+03  0.7561462E-02  0.1119677E+00
          2   -1    0    0  501    0  0.00000000000E+00  0.00000000000E+00  0.10947187668E+04  0.10947187668E+04  0.00000000000E+00 0.  1.
         -2   -1    0    0    0  501 -0.00000000000E+00 -0.00000000000E+00 -0.76211780428E+02  0.76211780428E+02  0.00000000000E+00 0. -1.
         25    2    1    2    0    0  0.14480573823E+03 -0.18804477726E+03  0.26942861434E+03  0.38022216452E+03  0.12509027173E+03 0.  0.
          5    1    3    3  502    0  0.94811175764E+02 -0.15101580401E+03  0.26266983346E+03  0.31750251325E+03  0.41800000000E+01 0.  1.
         -5    1    3    3    0  502  0.49994562463E+02 -0.37028973257E+02  0.67587808870E+01  0.62719651269E+02  0.41800000000E+01 0.  1.
        -11    1    1    2    0    0 -0.55751073639E+02  0.47466341147E+02  0.36270048345E+03  0.37001740020E+03  0.00000000000E+00 0.  1.
         11    1    1    2    0    0 -0.89054664588E+02  0.14057843612E+03  0.38637788858E+03  0.42069098251E+03  0.00000000000E+00 0. -1.
</event>
<event>
 7    1  0.2648915E-009  0.1117030E+03  0.7561462E-02  0.1257448E+00
          2   -1    0    0  501    0  0.00000000000E+00  0.00000000000E+00  0.44997860340E+03  0.44997860340E+03  0.00000000000E+00 0. -1.
         -2   -1    0    0    0  501 -0.00000000000E+00 -0.00000000000E+00 -0.37023257737E+02  0.37023257737E+02  0.00000000000E+00 0.  1.
         25    2    1    2    0    0 -0.25546975253E+02 -0.52199214339E+02  0.29832518468E+03  0.32866827959E+03  0.12509003268E+03 0.  0.
          5    1    3    3  502    0  0.35966052818E+02 -0.16868872207E+01  0.25188952553E+02  0.44140211537E+02  0.41800000000E+01 0.  1.
         -5    1    3    3    0  502 -0.61513028071E+02 -0.50512327118E+02  0.27313623212E+03  0.28452806806E+03  0.41800000000E+01 0.  1.
        -11    1    1    2    0    0  0.53200108091E+02  0.59014122150E+01  0.42921333760E+02  0.68609904961E+02  0.00000000000E+00 0.  1.
         11    1    1    2    0    0 -0.27653132838E+02  0.46297802124E+02  0.71708827224E+02  0.89723676581E+02  0.00000000000E+00 0. -1.
</event>
<event>
 7    1  0.2648915E-009  0.1111989E+03  0.7561462E-02  0.1258366E+00
         -1   -1    0    0    0  501 -0.00000000000E+00  0.00000000000E+00  0.74819038952E+02  0.74819038952E+02  0.00000000000E+00 0.  1.
          1   -1    0    0  501    0  0.00000000000E+00 -0.00000000000E+00 -0.18327257821E+03  0.18327257821E+03  0.00000000000E+00 0. -1.
         25    2    1    2    0    0 -0.15258557129E+01 -0.34698071766E+02 -0.28101925086E+02  0.13283259669E+03  0.12509394922E+03 0.  0.
          5    1    3    3  502    0 -0.27081063541E+02  0.41128120843E+02 -0.65013365170E+01  0.49846224562E+02  0.41800000000E+01 0. -1.
         -5    1    3    3    0  502  0.25555207828E+02 -0.75826192609E+02 -0.21600588569E+02  0.82986372130E+02  0.41800000000E+01 0. -1.
        -11    1    1    2    0    0 -0.11529175471E+02 -0.27225865473E+02 -0.11453954146E+02  0.31707455013E+02  0.00000000000E+00 0.  1.
         11    1    1    2    0    0  0.13055031184E+02  0.61923937239E+02 -0.68897660021E+02  0.93551565454E+02  0.00000000000E+00 0. -1.
</event>
<event>
 7    1  0.2648915E-009  0.9871843E+02  0.7561462E-02  0.1283014E+00
         -2   -1    0    0    0  501 -0.00000000000E+00  0.00000000000E+00  0.34121725770E+02  0.34121725770E+02  0.00000000000E+00 0.  1.
          2   -1    0    0  501    0  0.00000000000E+00 -0.00000000000E+00 -0.37478675995E+03  0.37478675995E+03  0.00000000000E+00 0. -1.
         25    2    1    2    0    0 -0.16413014602E+02 -0.12076495781E+02 -0.24430703844E+03  0.27522385604E+03  0.12508802143E+03 0.  0.
          5    1    3    3  502    0  0.28759946067E+01 -0.63316935228E+02 -0.81020451466E+02  0.10295188967E+03  0.41800000000E+01 0.  1.
         -5    1    3    3    0  502 -0.19289009209E+02  0.51240439447E+02 -0.16328658697E+03  0.17227196636E+03  0.41800000000E+01 0.  1.
        -11    1    1    2    0    0  0.11499214600E+02  0.44628440374E+02 -0.88589011866E+02  0.99859614710E+02  0.00000000000E+00 0.  1.
         11    1    1    2    0    0  0.49138000025E+01 -0.32551944593E+02 -0.77689838780E+01  0.33825014970E+02  0.00000000000E+00 0. -1.
</event>
<event>
 7    1  0.2648915E-009  0.1189475E+03  0.7561462E-02  0.1244844E+00
          2   -1    0    0  501    0  0.00000000000E+00  0.00000000000E+00  0.74585923929E+03  0.74585923929E+03  0.00000000000E+00 0. -1.
         -2   -1    0    0    0  501 -0.00000000000E+00 -0.00000000000E+00 -0.24466833367E+02  0.24466833367E+02  0.00000000000E+00 0.  1.
         25    2    1    2    0    0  0.71739981588E+02 -0.35731857721E+02  0.40016220253E+03  0.42684947221E+03  0.12508914014E+03 0.  0.
          5    1    3    3  502    0 -0.17482631281E+02  0.29199747326E+02  0.58766401935E+02  0.68038445285E+02  0.41800000000E+01 0. -1.
         -5    1    3    3    0  502  0.89222612869E+02 -0.64931605047E+02  0.34139580059E+03  0.35881102693E+03  0.41800000000E+01 0. -1.
        -11    1    1    2    0    0 -0.49039776889E+02 -0.20708930050E+01  0.55407457022E+02  0.74021446952E+02  0.00000000000E+00 0.  1.
         11    1    1    2    0    0 -0.22700204699E+02  0.37802750726E+02  0.26582274637E+03  0.26945515349E+03  0.00000000000E+00 0. -1.
</event>
<event>
 7    1  0.2648915E-009  0.1120979E+03  0.7561462E-02  0.1256734E+00
          1   -1    0    0  501    0  0.00000000000E+00  0.00000000000E+00  0.94851266335E+02  0.94851266335E+02  0.00000000000E+00 0. -1.
         -1   -1    0    0    0  501 -0.00000000000E+00 -0.00000000000E+00 -0.19816144160E+03  0.19816144160E+03  0.00000000000E+00 0.  1.
         25    2    1    2    0    0  0.23199041579E+02  0.69571439085E+02 -0.10144472429E+03  0.17696454575E+03  0.12508811974E+03 0.  0.
          5    1    3    3  502    0  0.36735216045E+02  0.82912005242E+02 -0.11973464085E+03  0.15025888769E+03  0.41800000000E+01 0. -1.
         -5    1    3    3    0  502 -0.13536174465E+02 -0.13340566157E+02  0.18289916558E+02  0.26705658057E+02  0.41800000000E+01 0. -1.
        -11    1    1    2    0    0  0.25119605227E+02 -0.59516898901E+02 -0.11892292630E+02  0.65686242437E+02  0.00000000000E+00 0.  1.
         11    1    1    2    0    0 -0.48318646806E+02 -0.10054540184E+02  0.10026841654E+02  0.50361919751E+02  0.00000000000E+00 0. -1.
</event>
<event>
 7    1  0.2648915E-009  0.1968149E+03  0.7561462E-02  0.1152454E+00
          1   -1    0    0  501    0  0.00000000000E+00  0.00000000000E+00  0.11917674083E+04  0.11917674083E+04  0.00000000000E+00 0. -1.
         -1   -1    0    0    0  501 -0.00000000000E+00 -0.00000000000E+00 -0.49556441261E+02  0.49556441261E+02  0.00000000000E+00 0.  1.
         25    2    1    2    0    0  0.17560609296E+03  0.81846320645E+01  0.91599430019E+03  0.94106153501E+03  0.12508703616E+03 0.  0.
          5    1    3    3  502    0  0.16880345064E+03 -0.32829011133E+02  0.78235279357E+03  0.80104039532E+03  0.41800000000E+01 0.  1.
         -5    1    3    3    0  502  0.68026423200E+01  0.41013643197E+02  0.13364150661E+03  0.14002113969E+03  0.41800000000E+01 0.  1.
        -11    1    1    2    0    0 -0.10681765648E+03  0.13585719442E+02  0.70673486643E+02  0.12879955443E+03  0.00000000000E+00 0.  1.
         11    1    1    2    0    0 -0.68788436489E+02 -0.21770351506E+02  0.15554318026E+03  0.17146276017E+03  0.00000000000E+00 0. -1.
</event>
<event>
 7    1  0.2648915E-009  0.1499895E+03  0.7561462E-02  0.1200486E+00
          1   -1    0    0  501    0  0.00000000000E+00  0.00000000000E+00  0.12129177401E+03  0.12129177401E+03  0.00000000000E+00 0. -1.
         -1   -1    0    0    0  501 -0.00000000000E+00 -0.00000000000E+00 -0.21111045354E+03  0.21111045354E+03  0.00000000000E+00 0.  1.
         25    2    1    2    0    0  0.26546143718E+02 -0.86238259529E+02 -0.56214211284E+02  0.16416264644E+03  0.12509037447E+03 0.  0.
          5    1    3    3  502    0 -0.18724364150E+02 -0.98841485091E+02 -0.15552748947E+02  0.10188032876E+03  0.41800000000E+01 0.  1.
         -5    1    3    3    0  502  0.45270507868E+02  0.12603225562E+02 -0.40661462337E+02  0.62282317688E+02  0.41800000000E+01 0.  1.
        -11    1    1    2    0    0 -0.50977029958E+02 -0.10749143601E+02 -0.43314660849E+02  0.67752206724E+02  0.00000000000E+00 0.  1.
         11    1    1    2    0    0  0.24430886241E+02  0.96987403131E+02  0.97101926057E+01  0.10048737438E+03  0.00000000000E+00 0. -1.
</event>
<event>
 7    1  0.2648915E-009  0.2653173E+03  0.7561462E-02  0.1103990E+00
          1   -1    0    0  501    0  0.00000000000E+00  0.00000000000E+00  0.50341967414E+03  0.50341967414E+03  0.00000000000E+00 0.  1.
         -1   -1    0    0    0  501 -0.00000000000E+00 -0.00000000000E+00 -0.16082233116E+03  0.16082233116E+03  0.00000000000E+00 0. -1.
         25    2    1    2    0    0  0.20216156584E+02  0.26030240817E+03  0.12505030671E+03  0.31535890926E+03  0.12509047028E+03 0.  0.
          5    1    3    3  502    0 -0.22442790210E+02  0.53805604218E+02  0.81038244381E+02  0.99916922141E+02  0.41800000000E+01 0.  1.
         -5    1    3    3    0  502  0.42658946794E+02  0.20649680395E+03  0.44012062331E+02  0.21544198712E+03  0.41800000000E+01 0.  1.
        -11    1    1    2    0    0 -0.89465057921E+01 -0.59437161249E+02  0.97702775414E+02  0.11471115215E+03  0.00000000000E+00 0.  1.
         11    1    1    2    0    0 -0.11269650792E+02 -0.20086524692E+03  0.11984426085E+03  0.23417194389E+03  0.00000000000E+00 0. -1.
</event>
<event>
 7    1  0.2648915E-009  0.3593990E+03  0.7561462E-02  0.1058822E+00
          2   -1    0    0  501    0  0.00000000000E+00  0.00000000000E+00  0.57553448185E+03  0.57553448185E+03  0.00000000000E+00 0. -1.
         -2   -1    0    0    0  501 -0.00000000000E+00 -0.00000000000E+00 -0.26062655058E+03  0.26062655058E+03  0.00000000000E+00 0.  1.
         25    2    1    2    0    0  0.10582122141E+03  0.33216600001E+03  0.29817904131E+03  0.47548996320E+03  0.12509029522E+03 0.  0.
          5    1    3    3  502    0  0.11175584261E+03  0.33507075017E+03  0.30375861181E+03  0.46588468812E+03  0.41800000000E+01 0.  1.
         -5    1    3    3    0  502 -0.59346212010E+01 -0.29047501606E+01 -0.55795704979E+01  0.96052750734E+01  0.41800000000E+01 0.  1.
        -11    1    1    2    0    0 -0.11425540993E+03 -0.24688458243E+03 -0.56505427202E+01  0.27209965890E+03  0.00000000000E+00 0.  1.
         11    1    1    2    0    0  0.84341885197E+01 -0.85281417577E+02  0.22379432675E+02  0.88571410324E+02  0.00000000000E+00 0. -1.
</event>
<event>
 7    1  0.2648915E-009  0.1794686E+03  0.7561462E-02  0.1168318E+00
          1   -1    0    0  501    0  0.00000000000E+00  0.00000000000E+00  0.16943070398E+04  0.16943070398E+04  0.00000000000E+00 0. -1.
         -1   -1    0    0    0  501 -0.00000000000E+00 -0.00000000000E+00 -0.33168617157E+02  0.33168617157E+02  0.00000000000E+00 0.  1.
         25    2    1    2    0    0 -0.17142109282E+03  0.11845530786E+01  0.12983054912E+04  0.13155345822E+04  0.12508994425E+03 0.  0.
          5    1    3    3  502    0 -0.59415014059E+02  0.36420863131E+02  0.82170446579E+03  0.82466497722E+03  0.41800000000E+01 0. -1.
         -5    1    3    3    0  502 -0.11200607876E+03 -0.35236310052E+02  0.47660102542E+03  0.49086960495E+03  0.41800000000E+01 0. -1.
        -11    1    1    2    0    0  0.21172530259E+02 -0.29109053549E+01  0.24790634808E+01  0.21514998566E+02  0.00000000000E+00 0.  1.
         11    1    1    2    0    0  0.15024856256E+03  0.17263522763E+01  0.36035386795E+03  0.39042607622E+03  0.00000000000E+00 0. -1.
</event>
<event>
 7    1  0.2648915E-009  0.1125383E+03  0.7561462E-02  0.1255940E+00
         -2   -1    0    0    0  501 -0.00000000000E+00  0.00000000000E+00  0.14644227747E+02  0.14644227747E+02  0.00000000000E+00 0.  1.
          2   -1    0    0  501    0  0.00000000000E+00 -0.00000000000E+00 -0.10111929755E+04  0.10111929755E+04  0.00000000000E+00 0. -1.
         25    2    1    2    0    0 -0.48940795013E+02 -0.26854039465E+02 -0.57592390287E+03  0.59199029859E+03  0.12509129018E+03 0.  0.
          5    1    3    3  502    0  0.27561849082E+02 -0.36495415771E+02 -0.35502633692E+03  0.35798427787E+03  0.41800000000E+01 0. -1.
         -5    1    3    3    0  502 -0.76502644094E+02  0.96413763061E+01 -0.22089756595E+03  0.23400602072E+03  0.41800000000E+01 0. -1.
        -11    1    1    2    0    0  0.66046790487E+02 -0.45154579207E+01 -0.20921804414E+03  0.21944192373E+03  0.00000000000E+00 0.  1.
         11    1    1    2    0    0 -0.17105995475E+02  0.31369497386E+02 -0.21140680073E+03  0.21440498092E+03  0.00000000000E+00 0. -1.
</event>
<event>
 7    1  0.2648915E-009  0.1043310E+03  0.7561462E-02  0.1271443E+00
          1   -1    0    0  501    0  0.00000000000E+00  0.00000000000E+00  0.45784586798E+03  0.45784586798E+03  0.00000000000E+00 0. -1.
         -1   -1    0    0    0  501 -0.00000000000E+00 -0.00000000000E+00 -0.43018392278E+02  0.43018392278E+02  0.00000000000E+00 0.  1.
         25    2    1    2    0    0  0.62944963548E+02  0.52972471992E+02  0.16072956658E+03  0.21965814595E+03  0.12509019259E+03 0.  0.
          5    1    3    3  502    0 -0.21477538973E+02  0.23918155167E+02 -0.35778812378E+01  0.32613439884E+02  0.41800000000E+01 0. -1.
         -5    1    3    3    0  502  0.84422502521E+02  0.29054316825E+02  0.16430744782E+03  0.18704470606E+03  0.41800000000E+01 0. -1.
        -11    1    1    2    0    0 -0.18194127695E+02 -0.91543912229E+00  0.22810837452E+00  0.18218571426E+02  0.00000000000E+00 0.  1.
         11    1    1    2    0    0 -0.44750835853E+02 -0.52057032870E+02  0.25386980075E+03  0.26298754289E+03  0.00000000000E+00 0. -1.
</event>
<event>
 7    1  0.2648915E-009  0.1913390E+03  0.7561462E-02  0.1157259E+00
          2   -1    0    0  501    0  0.00000000000E+00  0.00000000000E+00  0.31940010613E+03  0.31940010613E+03  0.00000000000E+00 0. -1.
         -2   -1    0    0    0  501 -0.00000000000E+00 -0.00000000000E+00 -0.14795948853E+03  0.14795948853E+03  0.00000000000E+00 0.  1.
         25    2    1    2    0    0  0.35802476600E+02  0.17270591937E+03  0.15845896635E+03  0.26807780523E+03  0.12508922305E+03 0.  0.
          5    1    3    3  502    0 -0.22380527148E+02  0.78717247703E+02  0.13030998903E+03  0.15393329309E+03  0.41800000000E+01 0.  1.
         -5    1    3    3    0  502  0.58183003748E+02  0.93988671668E+02  0.28148977320E+02  0.11414451214E+03  0.41800000000E+01 0.  1.
        -11    1    1    2    0    0  0.17790152162E+02 -0.14102257283E+02 -0.18067002942E+02  0.29013441191E+02  0.00000000000E+00 0.  1.
         11    1    1    2    0    0 -0.53592628762E+02 -0.15860366209E+03  0.31048654186E+02  0.17026834824E+03  0.00000000000E+00 0. -1.
</event>
<event>
 7    1  0.2648915E-009  0.9827050E+02  0.7561462E-02  0.1283975E+00
          2   -1    0    0  501    0  0.00000000000E+00  0.00000000000E+00  0.77080435379E+03  0.77080435379E+03  0.00000000000E+00 0. -1.
         -2   -1    0    0    0  501 -0.00000000000E+00 -0.00000000000E+00 -0.27684268787E+02  0.27684268787E+02  0.00000000000E+00 0.  1.
         25    2    1    2    0    0  0.16473125017E+02  0.67684316537E+02  0.60354564194E+03  0.62029927331E+03  0.12510521973E+03 0.  0.
          5    1    3    3  502    0  0.32013776206E+02 -0.17396661181E+01  0.44845388772E+03  0.44961791570E+03  0.41800000000E+01 0.  1.
         -5    1    3    3    0  502 -0.15540651189E+02  0.69423982655E+02  0.15509175422E+03  0.17068135761E+03  0.41800000000E+01 0.  1.
        -11    1    1    2    0    0  0.85868634643E+01  0.88979752989E+01 -0.44618895032E+01  0.13145974536E+02  0.00000000000E+00 0.  1.
         11    1    1    2    0    0 -0.25059988481E+02 -0.76582291836E+02  0.14403633256E+03  0.16504337473E+03  0.00000000000E+00 0. -1.
</event>
<event>
 7    1  0.2648915E-009  0.1152052E+03  0.7561462E-02  0.1251223E+00
         -2   -1    0    0    0  501 -0.00000000000E+00  0.00000000000E+00  0.30619468726E+02  0.30619468726E+02  0.00000000000E+00 0.  1.
          2   -1    0    0  501    0  0.00000000000E+00 -0.00000000000E+00 -0.46260769759E+03  0.46260769759E+03  0.00000000000E+00 0. -1.
         25    2    1    2    0    0 -0.17792707166E+01  0.46729044622E+02 -0.25582204563E+03  0.28857928180E+03  0.12508522470E+03 0.  0.
          5    1    3    3  502    0 -0.58115964630E+02  0.61247099965E+01 -0.77397312154E+02  0.97071075744E+02  0.41800000000E+01 0.  1.
         -5    1    3    3    0  502  0.56336693913E+02  0.40604334625E+02 -0.17842473348E+03  0.19150820606E+03  0.41800000000E+01 0.  1.
        -11    1    1    2    0    0 -0.24161710904E+02  0.19548695540E+02 -0.72708620457E+02  0.79072645459E+02  0.00000000000E+00 0.  1.
         11    1    1    2    0    0  0.25940981621E+02 -0.66277740162E+02 -0.10345756278E+03  0.12557523906E+03  0.00000000000E+00 0. -1.
</event>
<event>
 7    1  0.2648915E-009  0.1253533E+03  0.7561462E-02  0.1234518E+00
          2   -1    0    0  501    0  0.00000000000E+00  0.00000000000E+00  0.89307336162E+02  0.89307336162E+02  0.00000000000E+00 0. -1.
         -2   -1    0    0    0  501 -0.00000000000E+00 -0.00000000000E+00 -0.20766648694E+03  0.20766648694E+03  0.00000000000E+00 0.  1.
         25    2    1    2    0    0  0.39171111805E+02 -0.59014043336E+02 -0.11035271423E+03  0.18122549667E+03  0.12509166956E+03 0.  0.
          5    1    3    3  502    0  0.30896460763E+02  0.33226027927E+02 -0.14352458229E+02  0.47770552401E+02  0.41800000000E+01 0. -1.
         -5    1    3    3    0  502  0.82746510425E+01 -0.92240071264E+02 -0.96000256000E+02  0.13345494426E+03  0.41800000000E+01 0. -1.
        -11    1    1    2    0    0 -0.21084495816E+02  0.81154937595E+02 -0.17438554702E+02  0.85643347961E+02  0.00000000000E+00 0.  1.
         11    1    1    2    0    0 -0.18086615989E+02 -0.22140894259E+02  0.94321181491E+01  0.30104978480E+02  0.00000000000E+00 0. -1.
</event>
<event>
 7    1  0.2648915E-009  0.1814898E+03  0.7561462E-02  0.1166369E+00
         -2   -1    0    0    0  501 -0.00000000000E+00  0.00000000000E+00  0.14322064397E+03  0.14322064397E+03  0.00000000000E+00 0.  1.
          2   -1    0    0  501    0  0.00000000000E+00 -0.00000000000E+00 -0.30791584108E+03  0.30791584108E+03  0.00000000000E+00 0. -1.
         25    2    1    2    0    0  0.16031943470E+03  0.45855683253E+02 -0.14394455710E+02  0.20894805447E+03  0.12508806611E+03 0.  0.
          5    1    3    3  502    0 -0.12008835323E+00  0.71583245804E+01 -0.40907753000E+02  0.41739342203E+02  0.41800000000E+01 0.  1.
         -5    1    3    3    0  502  0.16043952305E+03  0.38697358673E+02  0.26513297290E+02  0.16720871227E+03  0.41800000000E+01 0.  1.
        -11    1    1    2    0    0 -0.95193052909E+02  0.19677320270E+02 -0.70121238329E+02  0.11985784213E+03  0.00000000000E+00 0.  1.
         11    1    1    2    0    0 -0.65126381791E+02 -0.65533003524E+02 -0.80179503073E+02  0.12233058844E+03  0.00000000000E+00 0. -1.
</event>
<event>
 7    1  0.2648915E-009  0.1140124E+03  0.7561462E-02  0.1253315E+00
         -3   -1    0    0    0  501 -0.00000000000E+00  0.00000000000E+00  0.21942964134E+03  0.21942964134E+03  0.00000000000E+00 0.  1.
          3   -1    0    0  501    0  0.00000000000E+00 -0.00000000000E+00 -0.85902221950E+02  0.85902221950E+02  0.00000000000E+00 0. -1.
         25    2    1    2    0    0  0.62499527444E+02 -0.22479095884E+02  0.13016465376E+03  0.19235852378E+03  0.12508982332E+03 0.  0.
          5    1    3    3  502    0 -0.36734676858E+02 -0.18128173710E+02  0.27933930432E+02  0.49757854006E+02  0.41800000000E+01 0.  1.
         -5    1    3    3    0  502  0.99234204302E+02 -0.43509221745E+01  0.10223072332E+03  0.14260066977E+03  0.41800000000E+01 0.  1.
        -11    1    1    2    0    0 -0.59752286523E+02 -0.48636664514E+01 -0.32184186896E+02  0.68042728357E+02  0.00000000000E+00 0. -1.
         11    1    1    2    0    0 -0.27472409214E+01  0.27342762336E+02  0.35546952531E+02  0.44930611158E+02  0.00000000000E+00 0.  1.
</event>
<event>
 7    1  0.2648915E-009  0.3997030E+03  0.7561462E-02  0.1043883E+00
         -2   -1    0    0    0  501 -0.00000000000E+00  0.00000000000E+00  0.21757681708E+03  0.21757681708E+03  0.00000000000E+00 0.  1.
          2   -1    0    0  501    0  0.00000000000E+00 -0.00000000000E+00 -0.90685662660E+03  0.90685662660E+03  0.00000000000E+00 0. -1.
         25    2    1    2    0    0 -0.37416135665E+03  0.12854838208E+03 -0.12754737338E+03  0.43409403544E+03  0.12509153372E+03 0.  0.
          5    1    3    3  502    0 -0.19702348796E+03  0.29106173495E+02 -0.10221060674E+02  0.19946770822E+03  0.41800000000E+01 0.  1.
         -5    1    3    3    0  502 -0.17713786869E+03  0.99442208590E+02 -0.11732631270E+03  0.23462632722E+03  0.41800000000E+01 0.  1.
        -11    1    1    2    0    0  0.30337042968E+03 -0.11767846138E+03 -0.41772755772E+03  0.52950746015E+03  0.00000000000E+00 0. -1.
         11    1    1    2    0    0  0.70790926966E+02 -0.10869920708E+02 -0.14400487843E+03  0.16083194809E+03  0.00000000000E+00 0.  1.
</event>
<event>
 7    1  0.2648915E-009  0.1542075E+03  0.7561462E-02  0.1195396E+00
          1   -1    0    0  501    0  0.00000000000E+00  0.00000000000E+00  0.32189431226E+02  0.32189431226E+02  0.00000000000E+00 0.  1.
         -1   -1    0    0    0  501 -0.00000000000E+00 -0.00000000000E+00 -0.93699589336E+03  0.93699589336E+03  0.00000000000E+00 0. -1.
         25    2    1    2    0    0 -0.61556656393E+02 -0.11491253027E+03 -0.59007465450E+03  0.61711474181E+03  0.12509354550E+03 0.  0.
          5    1    3    3  502    0 -0.77490881516E+02 -0.75757760194E+02 -0.22713839698E+03  0.25170101059E+03  0.41800000000E+01 0.  1.
         -5    1    3    3    0  502  0.15934225122E+02 -0.39154770079E+02 -0.36293625751E+03  0.36541373122E+03  0.41800000000E+01 0.  1.
        -11    1    1    2    0    0 -0.23163005759E+01  0.88234419198E+02 -0.16547355365E+03  0.18754246169E+03  0.00000000000E+00 0. -1.
         11    1    1    2    0    0  0.63872956969E+02  0.26678111076E+02 -0.14925825399E+03  0.16452812108E+03  0.00000000000E+00 0.  1.
</event>
<event>
 7    1  0.2648915E-009  0.1609192E+03  0.7561462E-02  0.1187663E+00
         -1   -1    0    0    0  501 -0.00000000000E+00  0.00000000000E+00  0.15112071404E+03  0.15112071404E+03  0.00000000000E+00 0.  1.
          1   -1    0    0  501    0  0.00000000000E+00 -0.00000000000E+00 -0.20551400129E+03  0.20551400129E+03  0.00000000000E+00 0. -1.
         25    2    1    2    0    0  0.18345183642E+02  0.13141024613E+03 -0.68766687157E+02  0.19488760026E+03  0.12508845240E+03 0.  0.
          5    1    3    3  502    0  0.57798298822E+02  0.12823772517E+03 -0.64686046257E+02  0.15487838611E+03  0.41800000000E+01 0.  1.
         -5    1    3    3    0  502 -0.39453115180E+02  0.31725209516E+01 -0.40806409007E+01  0.40009214148E+02  0.41800000000E+01 0.  1.
        -11    1    1    2    0    0  0.16788523883E+02 -0.39623523538E+02  0.41507363836E+02  0.59789124465E+02  0.00000000000E+00 0.  1.
         11    1    1    2    0    0 -0.35133707525E+02 -0.91786722588E+02 -0.27133963927E+02  0.10195799060E+03  0.00000000000E+00 0. -1.
</event>
<event>
 7    1  0.2648915E-009  0.1642022E+03  0.7561462E-02  0.1184033E+00
          3   -1    0    0  501    0  0.00000000000E+00  0.00000000000E+00  0.96676461005E+02  0.96676461005E+02  0.00000000000E+00 0. -1.
         -3   -1    0    0    0  501 -0.00000000000E+00 -0.00000000000E+00 -0.30190511417E+03  0.30190511417E+03  0.00000000000E+00 0.  1.
         25    2    1    2    0    0 -0.72016233847E+02 -0.10449559301E+03 -0.65025713552E+02  0.18968839353E+03  0.12509067241E+03 0.  0.
          5    1    3    3  502    0 -0.48594469238E+02  0.15686414028E+02 -0.39128080690E+02  0.64466775351E+02  0.41800000000E+01 0. -1.
         -5    1    3    3    0  502 -0.23421764608E+02 -0.12018200704E+03 -0.25897632862E+02  0.12522161818E+03  0.41800000000E+01 0. -1.
        -11    1    1    2    0    0 -0.84340432606E+01  0.64064432882E+02 -0.63809432887E+02  0.90813150873E+02  0.00000000000E+00 0.  1.
         11    1    1    2    0    0  0.80450277107E+02  0.40431160128E+02 -0.76393506724E+02  0.11808003077E+03  0.00000000000E+00 0. -1.
</event>
<event>
 7    1  0.2648915E-009  0.1118389E+03  0.7561462E-02  0.1257202E+00
          3   -1    0    0  501    0  0.00000000000E+00  0.00000000000E+00  0.50997334350E+03  0.50997334350E+03  0.00000000000E+00 0. -1.
         -3   -1    0    0    0  501 -0.00000000000E+00 -0.00000000000E+00 -0.31081526768E+02  0.31081526768E+02  0.00000000000E+00 0.  1.
         25    2    1    2    0    0 -0.33126690041E+02 -0.40958721394E+02  0.32963517712E+03  0.35648589385E+03  0.12509135888E+03 0.  0.
          5    1    3    3  502    0 -0.32956527718E+02 -0.74995216745E+02  0.30048183685E+03  0.31147587697E+03  0.41800000000E+01 0. -1.
         -5    1    3    3    0  502 -0.17016232277E+00  0.34036495351E+02  0.29153340269E+02  0.45010016883E+02  0.41800000000E+01 0. -1.
        -11    1    1    2    0    0 -0.18101190561E+02  0.51910630612E+02  0.62643889073E+02  0.83346406692E+02  0.00000000000E+00 0. -1.
         11    1    1    2    0    0  0.51227880602E+02 -0.10951909217E+02  0.86612750538E+02  0.10122256973E+03  0.00000000000E+00 0.  1.
</event>
<event>
 7    1  0.2648915E-009  0.1002426E+03  0.7561462E-02  0.1279787E+00
          1   -1    0    0  501    0  0.00000000000E+00  0.00000000000E+00  0.18827888165E+02  0.18827888165E+02  0.00000000000E+00 0. -1.
         -1   -1    0    0    0  501 -0.00000000000E+00 -0.00000000000E+00 -0.73343161690E+03  0.73343161690E+03  0.00000000000E+00 0.  1.
         25    2    1    2    0    0  0.24633910250E+02  0.36033347288E+02 -0.43725956442E+03  0.45688965251E+03  0.12508795403E+03 0.  0.
          5    1    3    3  502    0 -0.24624263218E+02 -0.14051349709E+02 -0.23141291078E+02  0.36834583213E+02  0.41800000000E+01 0.  1.
         -5    1    3    3    0  502  0.49258173468E+02  0.50084696997E+02 -0.41411827334E+03  0.42005506929E+03  0.41800000000E+01 0.  1.
        -11    1    1    2    0    0  0.28946574973E+02  0.10193562628E+02 -0.76679206980E+02  0.82592455496E+02  0.00000000000E+00 0.  1.
         11    1    1    2    0    0 -0.53580485222E+02 -0.46226909916E+02 -0.20066495733E+03  0.21277739706E+03  0.00000000000E+00 0. -1.
</event>
<event>
 7    1  0.2648915E-009  0.2941301E+03  0.7561462E-02  0.1088212E+00
          2   -1    0    0  501    0  0.00000000000E+00  0.00000000000E+00  0.11661471945E+04  0.11661471945E+04  0.00000000000E+00 0. -1.
         -2   -1    0    0    0  501 -0.00000000000E+00 -0.00000000000E+00 -0.11512117004E+03  0.11512117004E+03  0.00000000000E+00 0.  1.
         25    2    1    2    0    0  0.20813268022E+03 -0.18472355204E+03  0.90279351991E+03  0.95295570271E+03  0.12508568459E+03 0.  0.
          5    1    3    3  502    0 -0.10317037772E+02 -0.41997496691E+01  0.11717089759E+03  0.11777338752E+03  0.41800000000E+01 0.  1.
         -5    1    3    3    0  502  0.21844971799E+03 -0.18052380237E+03  0.78562262232E+03  0.83518231519E+03  0.41800000000E+01 0.  1.
        -11    1    1    2    0    0 -0.21526486224E+03  0.16281560413E+03  0.13681675664E+03  0.30259991203E+03  0.00000000000E+00 0. -1.
         11    1    1    2    0    0  0.71321820246E+01  0.21907947905E+02  0.11415747916E+02  0.25712749801E+02  0.00000000000E+00 0.  1.
</event>
<event>
 7    1  0.2648915E-009  0.1225249E+03  0.7561462E-02  0.1238989E+00
          1   -1    0    0  501    0  0.00000000000E+00  0.00000000000E+00  0.14985943997E+03  0.14985943997E+03  0.00000000000E+00 0. -1.
         -1   -1    0    0    0  501 -0.00000000000E+00 -0.00000000000E+00 -0.11705612407E+03  0.11705612407E+03  0.00000000000E+00 0.  1.
         25    2    1    2    0    0 -0.21626141190E+02  0.70637819456E+02  0.26139263559E+02  0.14760732836E+03  0.12508905135E+03 0.  0.
          5    1    3    3  502    0  0.26834262988E+02 -0.18344822728E+02 -0.17562746679E+02  0.37182424100E+02  0.41800000000E+01 0. -1.
         -5    1    3    3    0  502 -0.48460404178E+02  0.88982642184E+02  0.43702010238E+02  0.11042490426E+03  0.41800000000E+01 0. -1.
        -11    1    1    2    0    0 -0.31912373716E+02 -0.26254002852E+02  0.23795947038E+02  0.47685630512E+02  0.00000000000E+00 0. -1.
         11    1    1    2    0    0  0.53538514906E+02 -0.44383816604E+02 -0.17131894694E+02  0.71622605164E+02  0.00000000000E+00 0.  1.
</event>
<event>
 7    1  0.2667139E-009  0.7647006E+02  0.7561462E-02  0.1339378E+00
         -4   -1    0    0    0  501 -0.00000000000E+00  0.00000000000E+00  0.15936474991E+03  0.15936474991E+03  0.00000000000E+00 0.  1.
          4   -1    0    0  501    0  0.00000000000E+00 -0.00000000000E+00 -0.10820109128E+03  0.10820109128E+03  0.00000000000E+00 0. -1.
         25    2    1    2    0    0  0.71627124716E+02 -0.79951148291E+01  0.43184171924E+02  0.15068196231E+03  0.12508322911E+03 0.  0.
          5    1    3    3  502    0  0.53999314289E+02 -0.21066767790E+02  0.85178912982E+02  0.10311476260E+03  0.41800000000E+01 0.  1.
         -5    1    3    3    0  502  0.17627810427E+02  0.13071652961E+02 -0.41994741058E+02  0.47567199708E+02  0.41800000000E+01 0.  1.
        -11    1    1    2    0    0 -0.59247956138E+02  0.36263691446E+01  0.47000807279E+02  0.75713583620E+02  0.00000000000E+00 0.  1.
         11    1    1    2    0    0 -0.12379168579E+02  0.43687456845E+01 -0.39021320567E+02  0.41170295267E+02  0.00000000000E+00 0. -1.
</event>
<event>
 7    1  0.2648915E-009  0.1348496E+03  0.7561462E-02  0.1220432E+00
         -2   -1    0    0    0  501 -0.00000000000E+00  0.00000000000E+00  0.27280529531E+03  0.27280529531E+03  0.00000000000E+00 0.  1.
          2   -1    0    0  501    0  0.00000000000E+00 -0.00000000000E+00 -0.10033453088E+03  0.10033453088E+03  0.00000000000E+00 0. -1.
         25    2    1    2    0    0  0.87398765318E+02  0.88341917696E+02  0.10701720732E+03  0.20626050741E+03  0.12509146915E+03 0.  0.
          5    1    3    3  502    0  0.78047736691E+02  0.61454892418E+02  0.42235706286E+01  0.99516149210E+02  0.41800000000E+01 0. -1.
         -5    1    3    3    0  502  0.93510286276E+01  0.26887025278E+02  0.10279363669E+03  0.10674435820E+03  0.41800000000E+01 0. -1.
        -11    1    1    2    0    0 -0.70464804194E+02 -0.98981630227E+02  0.76942439553E+02  0.14381512701E+03  0.00000000000E+00 0.  1.
         11    1    1    2    0    0 -0.16933961124E+02  0.10639712531E+02 -0.11488882434E+02  0.23064191763E+02  0.00000000000E+00 0. -1.
</event>
<event>
 7    1  0.2648915E-009  0.1105294E+03  0.7561462E-02  0.1259593E+00
         -2   -1    0    0    0  501 -0.00000000000E+00  0.00000000000E+00  0.36618376633E+02  0.36618376633E+02  0.00000000000E+00 0.  1.
          2   -1    0    0  501    0  0.00000000000E+00 -0.00000000000E+00 -0.45606685187E+03  0.45606685187E+03  0.00000000000E+00 0. -1.
         25    2    1    2    0    0  0.71215166186E+01 -0.34623702627E+02 -0.34769931595E+03  0.37119839440E+03  0.12507564474E+03 0.  0.
          5    1    3    3  502    0 -0.57301659072E+02 -0.25232758118E+02 -0.13825821263E+03  0.15183207163E+03  0.41800000000E+01 0.  1.
         -5    1    3    3    0  502  0.64423175690E+02 -0.93909445082E+01 -0.20944110332E+03  0.21936632277E+03  0.41800000000E+01 0.  1.
        -11    1    1    2    0    0 -0.46753528325E+02  0.19207355137E+02 -0.19636590488E+02  0.54225552908E+02  0.00000000000E+00 0.  1.
         11    1    1    2    0    0  0.39632011706E+02  0.15416347489E+02 -0.52112568797E+02  0.67261281198E+02  0.00000000000E+00 0. -1.
</event>
<event>
 7    1  0.2648915E-009  0.1363731E+03  0.7561462E-02  0.1218294E+00
          1   -1    0    0  501    0  0.00000000000E+00  0.00000000000E+00  0.37614770557E+03  0.37614770557E+03  0.00000000000E+00 0. -1.
         -1   -1    0    0    0  501 -0.00000000000E+00 -0.00000000000E+00 -0.62223688869E+02  0.62223688869E+02  0.00000000000E+00 0.  1.
         25    2    1    2    0    0 -0.56429415643E+01  0.10562158814E+03  0.17534358564E+03  0.23996118628E+03  0.12509290638E+03 0.  0.
          5    1    3    3  502    0  0.45161213547E+02  0.85253658216E+02  0.15250041720E+03  0.18050365951E+03  0.41800000000E+01 0.  1.
         -5    1    3    3    0  502 -0.50804155112E+02  0.20367929922E+02  0.22843168435E+02  0.59457526774E+02  0.41800000000E+01 0.  1.
        -11    1    1    2    0    0  0.32547095493E+02 -0.62285790202E+02  0.12843220715E+03  0.14640240749E+03  0.00000000000E+00 0. -1.
         11    1    1    2    0    0 -0.26904153929E+02 -0.43335797936E+02  0.10148223913E+02  0.52007800665E+02  0.00000000000E+00 0.  1.
</event>
<event>
 7    1  0.2648915E-009  0.1120640E+03  0.7561462E-02  0.1256795E+00
          1   -1    0    0  501    0  0.00000000000E+00  0.00000000000E+00  0.67507802925E+02  0.67507802925E+02  0.00000000000E+00 0. -1.
         -1   -1    0    0    0  501 -0.00000000000E+00 -0.00000000000E+00 -0.28964103260E+03  0.28964103260E+03  0.00000000000E+00 0.  1.
         25    2    1    2    0    0 -0.86703589363E+02  0.11568399240E+02 -0.89287367119E+02  0.17683080233E+03  0.12508220680E+03 0.  0.
          5    1    3    3  502    0 -0.59504196290E+02 -0.28684696208E+02 -0.10627020445E+03  0.12519740384E+03  0.41800000000E+01 0.  1.
         -5    1    3    3    0  502 -0.27199393073E+02  0.40253095448E+02  0.16982837334E+02  0.51633398499E+02  0.41800000000E+01 0.  1.
        -11    1    1    2    0    0  0.14720593988E+02 -0.31257992485E+02 -0.84782945441E+02  0.91552748834E+02  0.00000000000E+00 0.  1.
         11    1    1    2    0    0  0.71982995375E+02  0.19689593245E+02 -0.48062917119E+02  0.88765284359E+02  0.00000000000E+00 0. -1.
</event>
<event>
 7    1  0.2648915E-009  0.1126299E+03  0.7561462E-02  0.1255776E+00
         -2   -1    0    0    0  501 -0.00000000000E+00  0.00000000000E+00  0.37881093563E+02  0.37881093563E+02  0.00000000000E+00 0.  1.
          2   -1    0    0  501    0  0.00000000000E+00 -0.00000000000E+00 -0.42169117878E+03  0.42169117878E+03  0.00000000000E+00 0. -1.
         25    2    1    2    0    0 -0.28493515237E+02 -0.54934164748E+02 -0.18019338944E+03  0.22791796453E+03  0.12508916056E+03 0.  0.
          5    1    3    3  502    0  0.36843916881E+02  0.30619007364E+01 -0.10889351540E+03  0.11507440873E+03  0.41800000000E+01 0.  1.
         -5    1    3    3    0  502 -0.65337432118E+02 -0.57996065484E+02 -0.71299874039E+02  0.11284355580E+03  0.41800000000E+01 0.  1.
        -11    1    1    2    0    0  0.76031688812E+01 -0.20737156640E+02 -0.95638638514E+02  0.98155932166E+02  0.00000000000E+00 0. -1.
         11    1    1    2    0    0  0.20890346356E+02  0.75671321387E+02 -0.10797805726E+03  0.13349837565E+03  0.00000000000E+00 0.  1.
</event>
<event>
 7    1  0.2648915E-009  0.8645140E+02  0.7561462E-02  0.1311680E+00
         -4   -1    0    0    0  501 -0.00000000000E+00  0.00000000000E+00  0.16830440482E+03  0.16830440482E+03  0.00000000000E+00 0.  1.
          4   -1    0    0  501    0  0.00000000000E+00 -0.00000000000E+00 -0.96954623772E+02  0.96954623772E+02  0.00000000000E+00 0. -1.
         25    2    1    2    0    0 -0.17609497765E+02 -0.36100528524E+02  0.96803060772E+02  0.16319058805E+03  0.12508794060E+03 0.  0.
          5    1    3    3  502    0  0.80771363739E+01  0.38848801847E+02  0.67892047169E+02  0.78748155570E+02  0.41800000000E+01 0. -1.
         -5    1    3    3    0  502 -0.25686634139E+02 -0.74949330371E+02  0.28911013603E+02  0.84442432485E+02  0.41800000000E+01 0. -1.
        -11    1    1    2    0    0 -0.10831407974E+02  0.65840815759E+01  0.30314310019E+02  0.32857676741E+02  0.00000000000E+00 0.  1.
         11    1    1    2    0    0  0.28440905739E+02  0.29516446948E+02 -0.55767589742E+02  0.69210763796E+02  0.00000000000E+00 0. -1.
</event>
<event>
 7    1  0.2648915E-009  0.1987351E+03  0.7561462E-02  0.1150811E+00
         -2   -1    0    0    0  501 -0.00000000000E+00  0.00000000000E+00  0.63781488699E+02  0.63781488699E+02  0.00000000000E+00 0.  1.
          2   -1    0    0  501    0  0.00000000000E+00 -0.00000000000E+00 -0.88838667407E+03  0.88838667407E+03  0.00000000000E+00 0. -1.
         25    2    1    2    0    0 -0.68804790424E+02  0.17843476594E+03 -0.24725510168E+03  0.33668260517E+03  0.12508807471E+03 0.  0.
          5    1    3    3  502    0  0.32456932113E+01 -0.58972827603E+01 -0.71574113505E+02  0.72011378215E+02  0.41800000000E+01 0.  1.
         -5    1    3    3    0  502 -0.72050483635E+02  0.18433204870E+03 -0.17568098818E+03  0.26467122696E+03  0.41800000000E+01 0.  1.
        -11    1    1    2    0    0  0.23411772452E+02 -0.76544999950E+02 -0.38411902266E+03  0.39237057952E+03  0.00000000000E+00 0. -1.
         11    1    1    2    0    0  0.45393017972E+02 -0.10188976599E+03 -0.19323106102E+03  0.22311497807E+03  0.00000000000E+00 0.  1.
</event>
<event>
 7    1  0.2648915E-009  0.1389536E+03  0.7561462E-02  0.1214744E+00
         -1   -1    0    0    0  501 -0.00000000000E+00  0.00000000000E+00  0.22716585407E+02  0.22716585407E+02  0.00000000000E+00 0.  1.
          1   -1    0    0  501    0  0.00000000000E+00 -0.00000000000E+00 -0.10693033476E+04  0.10693033476E+04  0.00000000000E+00 0. -1.
         25    2    1    2    0    0 -0.17984548572E+02  0.95576367437E+02 -0.76447026558E+03  0.78071816266E+03  0.12509107307E+03 0.  0.
          5    1    3    3  502    0 -0.60224940904E+02  0.15463893125E+02 -0.41623720323E+03  0.42087653445E+03  0.41800000000E+01 0.  1.
         -5    1    3    3    0  502  0.42240392332E+02  0.80112474311E+02 -0.34823306235E+03  0.35984162821E+03  0.41800000000E+01 0.  1.
        -11    1    1    2    0    0 -0.23071271230E+01 -0.10321722723E+03 -0.26245774701E+03  0.28203401887E+03  0.00000000000E+00 0. -1.
         11    1    1    2    0    0  0.20291675695E+02  0.76408597929E+01 -0.19658749629E+02  0.29267751500E+02  0.00000000000E+00 0.  1.
</event>
<event>
 7    1  0.2648915E-009  0.1559434E+03  0.7561462E-02  0.1193354E+00
         -2   -1    0    0    0  501 -0.00000000000E+00  0.00000000000E+00  0.55170802035E+02  0.55170802035E+02  0.00000000000E+00 0.  1.
          2   -1    0    0  501    0  0.00000000000E+00 -0.00000000000E+00 -0.64830434770E+03  0.64830434770E+03  0.00000000000E+00 0. -1.
         25    2    1    2    0    0 -0.11690232351E+03  0.35905082156E+02 -0.48467005645E+03  0.51527479834E+03  0.12509087101E+03 0.  0.
          5    1    3    3  502    0  0.13536844039E+01  0.41641767347E+02 -0.23770576906E+03  0.24136564439E+03  0.41800000000E+01 0. -1.
         -5    1    3    3    0  502 -0.11825600792E+03 -0.57366851910E+01 -0.24696428740E+03  0.27390915394E+03  0.41800000000E+01 0. -1.
        -11    1    1    2    0    0  0.45274013989E+02  0.29917485060E+02 -0.23867044019E+02  0.59282611659E+02  0.00000000000E+00 0.  1.
         11    1    1    2    0    0  0.71628309525E+02 -0.65822567216E+02 -0.84596445192E+02  0.12891773974E+03  0.00000000000E+00 0. -1.
</event>
<event>
 7    1  0.2648915E-009  0.2891376E+03  0.7561462E-02  0.1090800E+00
          1   -1    0    0  501    0  0.00000000000E+00  0.00000000000E+00  0.49584841641E+02  0.49584841641E+02  0.00000000000E+00 0.  1.
         -1   -1    0    0    0  501 -0.00000000000E+00 -0.00000000000E+00 -0.18644276141E+04  0.18644276141E+04  0.00000000000E+00 0. -1.
         25    2    1    2    0    0  0.13418732328E+03 -0.24974506761E+03 -0.90414026380E+03  0.95576958634E+03  0.12508816502E+03 0.  0.
          5    1    3    3  502    0  0.70685282485E+02 -0.72163167817E+02 -0.49522618990E+03  0.50544078141E+03  0.41800000000E+01 0. -1.
         -5    1    3    3    0  502  0.63502040796E+02 -0.17758189979E+03 -0.40891407390E+03  0.45032880493E+03  0.41800000000E+01 0. -1.
        -11    1    1    2    0    0 -0.29502940723E+02  0.11023555095E+03 -0.48396459871E+03  0.49723639550E+03  0.00000000000E+00 0. -1.
         11    1    1    2    0    0 -0.10468438256E+03  0.13950951665E+03 -0.42673790995E+03  0.46100647390E+03  0.00000000000E+00 0.  1.
</event>
<event>
 7    1  0.2648915E-009  0.1257097E+03  0.7561462E-02  0.1233964E+00
         -1   -1    0    0    0  501 -0.00000000000E+00  0.00000000000E+00  0.15403718497E+04  0.15403718497E+04  0.00000000000E+00 0.  1.
          1   -1    0    0  501    0  0.00000000000E+00 -0.00000000000E+00 -0.14372634200E+02  0.14372634200E+02  0.00000000000E+00 0. -1.
         25    2    1    2    0    0  0.82676405081E+02  0.61121153018E+02  0.75729476571E+03  0.77441236055E+03  0.12509180111E+03 0.  0.
          5    1    3    3  502    0  0.31602594978E+02  0.57662844546E+02  0.13726828117E+03  0.15226221155E+03  0.41800000000E+01 0. -1.
         -5    1    3    3    0  502  0.51073810103E+02  0.34583084728E+01  0.62002648454E+03  0.62215014900E+03  0.41800000000E+01 0. -1.
        -11    1    1    2    0    0 -0.25743316802E+02  0.21699388877E+02  0.20095958803E+03  0.20376049141E+03  0.00000000000E+00 0.  1.
         11    1    1    2    0    0 -0.56933088280E+02 -0.82820541895E+02  0.56774486177E+03  0.57657163194E+03  0.00000000000E+00 0. -1.
</event>
<event>
 7    1  0.2648915E-009  0.1273057E+03  0.7561462E-02  0.1231509E+00
         -1   -1    0    0    0  501 -0.00000000000E+00  0.00000000000E+00  0.31785639772E+02  0.31785639772E+02  0.00000000000E+00 0.  1.
          1   -1    0    0  501    0  0.00000000000E+00 -0.00000000000E+00 -0.67438982055E+03  0.67438982055E+03  0.00000000000E+00 0. -1.
         25    2    1    2    0    0 -0.90841509584E+02 -0.32413275319E+02 -0.30761043278E+03  0.34579636991E+03  0.12509256896E+03 0.  0.
          5    1    3    3  502    0 -0.91291961929E+02 -0.73117186652E+02 -0.22751427609E+03  0.25585262071E+03  0.41800000000E+01 0. -1.
         -5    1    3    3    0  502  0.45045234426E+00  0.40703911333E+02 -0.80096156683E+02  0.89943749202E+02  0.41800000000E+01 0. -1.
        -11    1    1    2    0    0  0.41187757297E+02  0.11401566352E+02 -0.34047344555E+02  0.54641090195E+02  0.00000000000E+00 0.  1.
         11    1    1    2    0    0  0.49653752287E+02  0.21011708967E+02 -0.30094640344E+03  0.30573800021E+03  0.00000000000E+00 0. -1.
</event>
<event>
 7    1  0.2648915E-009  0.1259889E+03  0.7561462E-02  0.1233532E+00
         -1   -1    0    0    0  501 -0.00000000000E+00  0.00000000000E+00  0.14761305220E+02  0.14761305220E+02  0.00000000000E+00 0.  1.
          1   -1    0    0  501    0  0.00000000000E+00 -0.00000000000E+00 -0.16368895102E+04  0.16368895102E+04  0.00000000000E+00 0. -1.
         25    2    1    2    0    0 -0.66593588113E+02 -0.18613883583E+02 -0.13351284597E+04  0.13427571143E+04  0.12508989336E+03 0.  0.
          5    1    3    3  502    0 -0.46954698503E+02 -0.71567148689E+02 -0.74262398622E+03  0.74755231107E+03  0.41800000000E+01 0.  1.
         -5    1    3    3    0  502 -0.19638889609E+02  0.52953265107E+02 -0.59250447351E+03  0.59520480324E+03  0.41800000000E+01 0.  1.
        -11    1    1    2    0    0  0.84070432258E+02 -0.61427126241E-01 -0.17688274704E+03  0.19584521325E+03  0.00000000000E+00 0.  1.
         11    1    1    2    0    0 -0.17476844146E+02  0.18675310709E+02 -0.11011699822E+03  0.11304848787E+03  0.00000000000E+00 0. -1.
</event>
<event>
 7    1  0.2648915E-009  0.1399783E+03  0.7561462E-02  0.1213358E+00
          2   -1    0    0  501    0  0.00000000000E+00  0.00000000000E+00  0.79665277971E+03  0.79665277971E+03  0.00000000000E+00 0. -1.
         -2   -1    0    0    0  501 -0.00000000000E+00 -0.00000000000E+00 -0.30910445974E+02  0.30910445974E+02  0.00000000000E+00 0.  1.
         25    2    1    2    0    0  0.33148315536E+02 -0.10769543775E+03  0.53212557615E+03  0.55812664503E+03  0.12510237793E+03 0.  0.
          5    1    3    3  502    0 -0.40315745515E+02 -0.26476304151E+02  0.26512082521E+03  0.26950487636E+03  0.41800000000E+01 0. -1.
         -5    1    3    3    0  502  0.73464061052E+02 -0.81219133598E+02  0.26700475094E+03  0.28862176868E+03  0.41800000000E+01 0. -1.
        -11    1    1    2    0    0 -0.10552778145E+01  0.78670021003E+02  0.19910998084E+03  0.21409079916E+03  0.00000000000E+00 0. -1.
         11    1    1    2    0    0 -0.32093037722E+02  0.29025416747E+02  0.34506776743E+02  0.55345781490E+02  0.00000000000E+00 0.  1.
</event>
<event>
 7    1  0.2648915E-009  0.2192241E+03  0.7561462E-02  0.1134463E+00
          2   -1    0    0  501    0  0.00000000000E+00  0.00000000000E+00  0.53484804664E+03  0.53484804664E+03  0.00000000000E+00 0. -1.
         -2   -1    0    0    0  501 -0.00000000000E+00 -0.00000000000E+00 -0.11385140626E+03  0.11385140626E+03  0.00000000000E+00 0.  1.
         25    2    1    2    0    0  0.87443040755E+02 -0.18335996187E+03  0.33275180991E+03  0.40943709138E+03  0.12509118195E+03 0.  0.
          5    1    3    3  502    0  0.66416779004E+02 -0.51014852771E+02  0.21582551737E+03  0.23154228574E+03  0.41800000000E+01 0. -1.
         -5    1    3    3    0  502  0.21026261750E+02 -0.13234510910E+03  0.11692629254E+03  0.17789480564E+03  0.41800000000E+01 0. -1.
        -11    1    1    2    0    0  0.16184873277E+02  0.43833494364E+02  0.31823644418E+02  0.56533792507E+02  0.00000000000E+00 0. -1.
         11    1    1    2    0    0 -0.10362791403E+03  0.13952646751E+03  0.56421186047E+02  0.18272856902E+03  0.00000000000E+00 0.  1.
</event>
<event>
 7    1  0.2648915E-009  0.1075409E+03  0.7561462E-02  0.1265193E+00
          2   -1    0    0  501    0  0.00000000000E+00  0.00000000000E+00  0.50401928578E+03  0.50401928578E+03  0.00000000000E+00 0. -1.
         -2   -1    0    0    0  501 -0.00000000000E+00 -0.00000000000E+00 -0.35148460727E+02  0.35148460727E+02  0.00000000000E+00 0.  1.
         25    2    1    2    0    0 -0.68852942595E+02 -0.68153197508E+01  0.32414023453E+03  0.35426167106E+03  0.12508902290E+03 0.  0.
          5    1    3    3  502    0 -0.89174810898E+02  0.32571845846E+02  0.25391350094E+03  0.27111364849E+03  0.41800000000E+01 0. -1.
         -5    1    3    3    0  502  0.20321868303E+02 -0.39387165597E+02  0.70226733594E+02  0.83148022565E+02  0.41800000000E+01 0. -1.
        -11    1    1    2    0    0  0.61488675085E+02  0.16218378734E+02  0.15601348073E+03  0.16847581174E+03  0.00000000000E+00 0. -1.
         11    1    1    2    0    0  0.73642675103E+01 -0.94030589827E+01 -0.11282890206E+02  0.16430263710E+02  0.00000000000E+00 0.  1.
</event>
<event>
 7    1  0.2648915E-009  0.6431562E+02  0.7561462E-02  0.1380565E+00
         -2   -1    0    0    0  501 -0.00000000000E+00  0.00000000000E+00  0.12362978282E+03  0.12362978282E+03  0.00000000000E+00 0.  1.
          2   -1    0    0  501    0  0.00000000000E+00 -0.00000000000E+00 -0.96672606459E+02  0.96672606459E+02  0.00000000000E+00 0. -1.
         25    2    1    2    0    0 -0.17857745060E+02  0.78113352030E+00  0.81152520155E+01  0.12661697219E+03  0.12508593487E+03 0.  0.
          5    1    3    3  502    0 -0.10423802662E+02  0.18210854303E+02 -0.55831664587E+02  0.59790785636E+02  0.41800000000E+01 0.  1.
         -5    1    3    3    0  502 -0.74339423984E+01 -0.17429720783E+02  0.63946916603E+02  0.66826186553E+02  0.41800000000E+01 0.  1.
        -11    1    1    2    0    0  0.18260858663E+02 -0.42423708411E+02 -0.36937226173E+01  0.46334367172E+02  0.00000000000E+00 0.  1.
         11    1    1    2    0    0 -0.40311360256E+00  0.41642574891E+02  0.22535646958E+02  0.47351049914E+02  0.00000000000E+00 0. -1.
</event>
<event>
 7    1  0.2648915E-009  0.1180915E+03  0.7561462E-02  0.1246279E+00
         -2   -1    0    0    0  501 -0.00000000000E+00  0.00000000000E+00  0.26095474028E+02  0.26095474028E+02  0.00000000000E+00 0.  1.
          2   -1    0    0  501    0  0.00000000000E+00 -0.00000000000E+00 -0.11857826937E+04  0.11857826937E+04  0.00000000000E+00 0. -1.
         25    2    1    2    0    0 -0.66709647739E+02 -0.41266903183E+02 -0.10008337678E+04  0.10116662267E+04  0.12508872505E+03 0.  0.
          5    1    3    3  502    0  0.25849486348E+02  0.11140105288E+02 -0.84337804138E+02  0.89009187712E+02  0.41800000000E+01 0. -1.
         -5    1    3    3    0  502 -0.92559134088E+02 -0.52407008471E+02 -0.91649596362E+03  0.92265703897E+03  0.41800000000E+01 0. -1.
        -11    1    1    2    0    0  0.28065222437E+02 -0.15914387069E+02 -0.64383511758E+01  0.32899495317E+02  0.00000000000E+00 0.  1.
         11    1    1    2    0    0  0.38644425302E+02  0.57181290253E+02 -0.15241510078E+03  0.16731244576E+03  0.00000000000E+00 0. -1.
</event>
<event>
 7    1  0.2648915E-009  0.9440775E+02  0.7561462E-02  0.1292516E+00
          2   -1    0    0  501    0  0.00000000000E+00  0.00000000000E+00  0.42414001797E+03  0.42414001797E+03  0.00000000000E+00 0. -1.
         -2   -1    0    0    0  501 -0.00000000000E+00 -0.00000000000E+00 -0.32040207436E+02  0.32040207436E+02  0.00000000000E+00 0.  1.
         25    2    1    2    0    0 -0.11414983901E+02 -0.27302758157E+02  0.16460745226E+03  0.20885190518E+03  0.12509101685E+03 0.  0.
          5    1    3    3  502    0 -0.52150177457E+02  0.27113145466E+02  0.60548566182E+02  0.84488845018E+02  0.41800000000E+01 0. -1.
         -5    1    3    3    0  502  0.40735193556E+02 -0.54415903623E+02  0.10405888608E+03  0.12436306016E+03  0.41800000000E+01 0. -1.
        -11    1    1    2    0    0 -0.90742083037E+00  0.42338094018E+02  0.22350806699E+03  0.22748449096E+03  0.00000000000E+00 0. -1.
         11    1    1    2    0    0  0.12322404732E+02 -0.15035335860E+02  0.39842912811E+01  0.19843829263E+02  0.00000000000E+00 0.  1.
</event>
<event>
 7    1  0.2648915E-009  0.1379586E+03  0.7561462E-02  0.1216103E+00
          1   -1    0    0  501    0  0.00000000000E+00  0.00000000000E+00  0.28291361026E+03  0.28291361026E+03  0.00000000000E+00 0. -1.
         -1   -1    0    0    0  501 -0.00000000000E+00 -0.00000000000E+00 -0.86695000216E+02  0.86695000216E+02  0.00000000000E+00 0.  1.
         25    2    1    2    0    0  0.80246834775E+02  0.78455314870E+02  0.11715901297E+03  0.20486198496E+03  0.12508959845E+03 0.  0.
          5    1    3    3  502    0  0.92322260013E+02  0.50392373698E+02  0.25714025039E+02  0.10835808463E+03  0.41800000000E+01 0. -1.
         -5    1    3    3    0  502 -0.12075425238E+02  0.28062941172E+02  0.91444987928E+02  0.96503900331E+02  0.41800000000E+01 0. -1.
        -11    1    1    2    0    0 -0.73458954821E+02 -0.13720532663E+02  0.62908814104E+02  0.97683109860E+02  0.00000000000E+00 0.  1.
         11    1    1    2    0    0 -0.67878799540E+01 -0.64734782207E+02  0.16150782976E+02  0.67063515658E+02  0.00000000000E+00 0. -1.
</event>
<event>
 7    1  0.2648915E-009  0.1935367E+03  0.7561462E-02  0.1155310E+00
         -1   -1    0    0    0  501 -0.00000000000E+00  0.00000000000E+00  0.11925735747E+04  0.11925735747E+04  0.00000000000E+00 0.  1.
          1   -1    0    0  501    0  0.00000000000E+00 -0.00000000000E+00 -0.40190972859E+02  0.40190972859E+02  0.00000000000E+00 0. -1.
         25    2    1    2    0    0  0.81387817047E+02  0.16156097216E+03  0.43599952444E+03  0.48833424502E+03  0.12509526393E+03 0.  0.
          5    1    3    3  502    0 -0.11567973725E+02  0.17963218524E+02  0.17433599919E+03  0.17569009149E+03  0.41800000000E+01 0. -1.
         -5    1    3    3    0  502  0.92955790772E+02  0.14359775363E+03  0.26166352525E+03  0.31264415353E+03  0.41800000000E+01 0. -1.
        -11    1    1    2    0    0 -0.66369163989E+01 -0.91503970678E+02  0.44488014781E+03  0.45424153402E+03  0.00000000000E+00 0.  1.
         11    1    1    2    0    0 -0.74750900648E+02 -0.70057001477E+02  0.27150292964E+03  0.29018876857E+03  0.00000000000E+00 0. -1.
</event>
<event>
 7    1  0.2648915E-009  0.1853351E+03  0.7561462E-02  0.1162737E+00
          2   -1    0    0  501    0  0.00000000000E+00  0.00000000000E+00  0.11048653417E+04  0.11048653417E+04  0.00000000000E+00 0. -1.
         -2   -1    0    0    0  501 -0.00000000000E+00 -0.00000000000E+00 -0.32244154509E+02  0.32244154509E+02  0.00000000000E+00 0.  1.
         25    2    1    2    0    0 -0.11534084126E+03 -0.10135498987E+03  0.51386813501E+03  0.55071199591E+03  0.12508756381E+03 0.  0.
          5    1    3    3  502    0 -0.10245609681E+03 -0.70945307507E+01  0.26168928338E+03  0.28115180522E+03  0.41800000000E+01 0.  1.
         -5    1    3    3    0  502 -0.12884744442E+02 -0.94260459124E+02  0.25217885163E+03  0.26956019069E+03  0.41800000000E+01 0.  1.
        -11    1    1    2    0    0  0.21940395538E+02 -0.12610190228E+02  0.14495868430E+03  0.14715100410E+03  0.00000000000E+00 0.  1.
         11    1    1    2    0    0  0.93400445719E+02  0.11396518010E+03  0.41379436786E+03  0.43924649618E+03  0.00000000000E+00 0. -1.
</event>
<event>
 7    1  0.2648915E-009  0.1479361E+03  0.7561462E-02  0.1203032E+00
         -1   -1    0    0    0  501 -0.00000000000E+00  0.00000000000E+00  0.83641339821E+02  0.83641339821E+02  0.00000000000E+00 0.  1.
          1   -1    0    0  501    0  0.00000000000E+00 -0.00000000000E+00 -0.41259439721E+03  0.41259439721E+03  0.00000000000E+00 0. -1.
         25    2    1    2    0    0  0.92108553893E+02  0.70160506989E+02 -0.30583418461E+03  0.35012580314E+03  0.12508815734E+03 0.  0.
          5    1    3    3  502    0  0.51170250226E+02  0.92045118855E+02 -0.27430112716E+03  0.29385247859E+03  0.41800000000E+01 0.  1.
         -5    1    3    3    0  502  0.40938303667E+02 -0.21884611866E+02 -0.31533057450E+02  0.56273324549E+02  0.41800000000E+01 0.  1.
        -11    1    1    2    0    0 -0.30918321964E+02 -0.76343396625E+02 -0.18611709660E+02  0.84443191424E+02  0.00000000000E+00 0.  1.
         11    1    1    2    0    0 -0.61190231929E+02  0.61828896360E+01 -0.45071631241E+01  0.61666742473E+02  0.00000000000E+00 0. -1.
</event>
<event>
 7    1  0.2648915E-009  0.1468417E+03  0.7561462E-02  0.1204408E+00
          1   -1    0    0  501    0  0.00000000000E+00  0.00000000000E+00  0.94898386093E+03  0.94898386093E+03  0.00000000000E+00 0. -1.
         -1   -1    0    0    0  501 -0.00000000000E+00 -0.00000000000E+00 -0.27485232170E+02  0.27485232170E+02  0.00000000000E+00 0.  1.
         25    2    1    2    0    0 -0.10007620335E+03 -0.42004249425E+02  0.63550914226E+03  0.65673365285E+03  0.12509043704E+03 0.  0.
          5    1    3    3  502    0 -0.85352331446E+01 -0.65201799401E+02  0.18417207367E+03  0.19560406430E+03  0.41800000000E+01 0.  1.
         -5    1    3    3    0  502 -0.91540970204E+02  0.23197549976E+02  0.45133706860E+03  0.46112958856E+03  0.41800000000E+01 0.  1.
        -11    1    1    2    0    0  0.15095558190E+02  0.45776613055E+02  0.52688397664E+02  0.71410373394E+02  0.00000000000E+00 0.  1.
         11    1    1    2    0    0  0.84980645159E+02 -0.37723636297E+01  0.23330108883E+03  0.24832506686E+03  0.00000000000E+00 0. -1.
</event>
<event>
 7    1  0.2648915E-009  0.1342067E+03  0.7561462E-02  0.1221344E+00
          1   -1    0    0  501    0  0.00000000000E+00  0.00000000000E+00  0.92569264771E+03  0.92569264771E+03  0.00000000000E+00 0. -1.
         -1   -1    0    0    0  501 -0.00000000000E+00 -0.00000000000E+00 -0.23919984868E+02  0.23919984868E+02  0.00000000000E+00 0.  1.
         25    2    1    2    0    0 -0.98657542733E+02 -0.16013238553E+02  0.53409729324E+03  0.55758106715E+03  0.12508794205E+03 0.  0.
          5    1    3    3  502    0 -0.67939983723E+02 -0.67351592457E+02  0.26194140478E+03  0.27889576965E+03  0.41800000000E+01 0. -1.
         -5    1    3    3    0  502 -0.30717559010E+02  0.51338353904E+02  0.27215588847E+03  0.27868529750E+03  0.41800000000E+01 0. -1.
        -11    1    1    2    0    0  0.79502923537E+02  0.33943891196E+02  0.34970204565E+03  0.36022829336E+03  0.00000000000E+00 0. -1.
         11    1    1    2    0    0  0.19154619196E+02 -0.17930652644E+02  0.17973323944E+02  0.31803272070E+02  0.00000000000E+00 0.  1.
</event>
<event>
 7    1  0.2648915E-009  0.1146302E+03  0.7561462E-02  0.1252228E+00
          1   -1    0    0  501    0  0.00000000000E+00  0.00000000000E+00  0.36737009601E+03  0.36737009601E+03  0.00000000000E+00 0. -1.
         -1   -1    0    0    0  501 -0.00000000000E+00 -0.00000000000E+00 -0.62438879386E+02  0.62438879386E+02  0.00000000000E+00 0.  1.
         25    2    1    2    0    0 -0.14885040731E+02  0.94711332007E+02  0.10146464259E+03  0.18744219152E+03  0.12509076951E+03 0.  0.
          5    1    3    3  502    0  0.23515743285E+02 -0.61579006185E+01  0.71079148348E+02  0.75237142770E+02  0.41800000000E+01 0.  1.
         -5    1    3    3    0  502 -0.38400784016E+02  0.10086923263E+03  0.30385494246E+02  0.11220504875E+03  0.41800000000E+01 0.  1.
        -11    1    1    2    0    0  0.15268729253E+02 -0.61431824539E+02  0.38528372999E+02  0.74104242019E+02  0.00000000000E+00 0.  1.
         11    1    1    2    0    0 -0.38368852234E+00 -0.33279507468E+02  0.16493820103E+03  0.16826254186E+03  0.00000000000E+00 0. -1.
</event>
<event>
 7    1  0.2648915E-009  0.1548932E+03  0.7561462E-02  0.1194586E+00
          1   -1    0    0  501    0  0.00000000000E+00  0.00000000000E+00  0.27807317873E+02  0.27807317873E+02  0.00000000000E+00 0. -1.
         -1   -1    0    0    0  501 -0.00000000000E+00 -0.00000000000E+00 -0.12352291929E+04  0.12352291929E+04  0.00000000000E+00 0.  1.
         25    2    1    2    0    0  0.13110752770E+03 -0.72135364582E+02 -0.66264605489E+03  0.69075306748E+03  0.12508921424E+03 0.  0.
          5    1    3    3  502    0  0.55033005357E+01 -0.47032474984E+01 -0.31335395781E+03  0.31346544009E+03  0.41800000000E+01 0.  1.
         -5    1    3    3    0  502  0.12560422716E+03 -0.67432117084E+02 -0.34929209708E+03  0.37728762739E+03  0.41800000000E+01 0.  1.
        -11    1    1    2    0    0 -0.10142653531E+03  0.27301421677E+02 -0.22870440976E+03  0.25167124734E+03  0.00000000000E+00 0. -1.
         11    1    1    2    0    0 -0.29680992386E+02  0.44833942905E+02 -0.31607141033E+03  0.32061219592E+03  0.00000000000E+00 0.  1.
</event>
<event>
 7    1  0.2648915E-009  0.1134784E+03  0.7561462E-02  0.1254261E+00
          1   -1    0    0  501    0  0.00000000000E+00  0.00000000000E+00  0.34883933287E+03  0.34883933287E+03  0.00000000000E+00 0. -1.
         -1   -1    0    0    0  501 -0.00000000000E+00 -0.00000000000E+00 -0.73662628845E+02  0.73662628845E+02  0.00000000000E+00 0.  1.
         25    2    1    2    0    0 -0.35942539125E+02 -0.10461644720E+03  0.19769742220E+03  0.25877955939E+03  0.12508446136E+03 0.  0.
          5    1    3    3  502    0 -0.21037535674E+01 -0.36449070591E+02 -0.95434114968E+01  0.37967217820E+02  0.41800000000E+01 0.  1.
         -5    1    3    3    0  502 -0.33838785558E+02 -0.68167376607E+02  0.20724083369E+03  0.22081234157E+03  0.41800000000E+01 0.  1.
        -11    1    1    2    0    0 -0.28470210131E+01  0.27697458859E+02 -0.19510645463E+02  0.33998824131E+02  0.00000000000E+00 0.  1.
         11    1    1    2    0    0  0.38789560138E+02  0.76918988338E+02  0.96989927296E+02  0.12972357819E+03  0.00000000000E+00 0. -1.
</event>
<event>
 7    1  0.2648915E-009  0.1577895E+03  0.7561462E-02  0.1191215E+00
         -2   -1    0    0    0  501 -0.00000000000E+00  0.00000000000E+00  0.41168225283E+02  0.41168225283E+02  0.00000000000E+00 0.  1.
          2   -1    0    0  501    0  0.00000000000E+00 -0.00000000000E+00 -0.85783178439E+03  0.85783178439E+03  0.00000000000E+00 0. -1.
         25    2    1    2    0    0 -0.31236995588E+02 -0.14218108780E+03 -0.53603000057E+03  0.56935649771E+03  0.12508976118E+03 0.  0.
          5    1    3    3  502    0  0.85404155073E+01 -0.48073322738E+02 -0.37777647829E+03  0.38094162677E+03  0.41800000000E+01 0. -1.
         -5    1    3    3    0  502 -0.39777411095E+02 -0.94107765057E+02 -0.15825352228E+03  0.18841487094E+03  0.41800000000E+01 0. -1.
        -11    1    1    2    0    0  0.61288212850E+01  0.13885746648E+03 -0.26667796806E+03  0.30072595015E+03  0.00000000000E+00 0.  1.
         11    1    1    2    0    0  0.25108174303E+02  0.33236213146E+01 -0.13955590479E+02  0.28917561811E+02  0.00000000000E+00 0. -1.
</event>
<event>
 7    1  0.2648915E-009  0.1117363E+03  0.7561462E-02  0.1257388E+00
         -3   -1    0    0    0  501 -0.00000000000E+00  0.00000000000E+00  0.85366967670E+03  0.85366967670E+03  0.00000000000E+00 0.  1.
          3   -1    0    0  501    0  0.00000000000E+00 -0.00000000000E+00 -0.26873049624E+02  0.26873049624E+02  0.00000000000E+00 0. -1.
         25    2    1    2    0    0  0.87012698866E+02 -0.24731459911E+01  0.61371671807E+03  0.63235542489E+03  0.12509135514E+03 0.  0.
          5    1    3    3  502    0  0.42661336936E+02 -0.28624622242E+02  0.74056753952E+02  0.90228786280E+02  0.41800000000E+01 0.  1.
         -5    1    3    3    0  502  0.44351361930E+02  0.26151476250E+02  0.53965996412E+03  0.54212663861E+03  0.41800000000E+01 0.  1.
        -11    1    1    2    0    0 -0.51177376835E+02  0.42516934591E+02  0.76327078880E+02  0.10125530404E+03  0.00000000000E+00 0.  1.
         11    1    1    2    0    0 -0.35835322031E+02 -0.40043788600E+02  0.13675283012E+03  0.14693199739E+03  0.00000000000E+00 0. -1.
</event>
<event>
 7    1  0.2648915E-009  0.1754709E+03  0.7561462E-02  0.1172260E+00
          2   -1    0    0  501    0  0.00000000000E+00  0.00000000000E+00  0.13312376665E+04  0.13312376665E+04  0.00000000000E+00 0. -1.
         -2   -1    0    0    0  501 -0.00000000000E+00 -0.00000000000E+00 -0.25711940592E+02  0.25711940592E+02  0.00000000000E+00 0.  1.
         25    2    1    2    0    0  0.50137658184E+02 -0.13680243358E+03  0.81043514628E+03  0.83287528669E+03  0.12508967285E+03 0.  0.
          5    1    3    3  502    0  0.69124390152E+02 -0.14310525423E+03  0.57557510262E+03  0.59712768003E+03  0.41800000000E+01 0.  1.
         -5    1    3    3    0  502 -0.18986731968E+02  0.63028206452E+01  0.23486004366E+03  0.23574760667E+03  0.41800000000E+01 0.  1.
        -11    1    1    2    0    0  0.25867214457E+02  0.22643358189E+02  0.11314389720E+03  0.11825132527E+03  0.00000000000E+00 0. -1.
         11    1    1    2    0    0 -0.76004872641E+02  0.11415907540E+03  0.38194668241E+03  0.40582299512E+03  0.00000000000E+00 0.  1.
</event>
<event>
 7    1  0.2648915E-009  0.1075328E+03  0.7561462E-02  0.1265208E+00
          2   -1    0    0  501    0  0.00000000000E+00  0.00000000000E+00  0.19337508242E+03  0.19337508242E+03  0.00000000000E+00 0. -1.
         -2   -1    0    0    0  501 -0.00000000000E+00 -0.00000000000E+00 -0.89228489544E+02  0.89228489544E+02  0.00000000000E+00 0.  1.
         25    2    1    2    0    0  0.67781855051E+02 -0.21410371975E+02  0.33130041328E+02  0.14764260622E+03  0.12509178882E+03 0.  0.
          5    1    3    3  502    0  0.10069839085E+03  0.56091557723E+01  0.26293942781E+02  0.10430950280E+03  0.41800000000E+01 0. -1.
         -5    1    3    3    0  502 -0.32916535797E+02 -0.27019527747E+02  0.68360985478E+01  0.43333103419E+02  0.41800000000E+01 0. -1.
        -11    1    1    2    0    0 -0.33799092597E+02  0.75422020261E+01 -0.17743584699E+02  0.38911415674E+02  0.00000000000E+00 0.  1.
         11    1    1    2    0    0 -0.33982762453E+02  0.13868169949E+02  0.88760136246E+02  0.96049550068E+02  0.00000000000E+00 0. -1.
</event>
<event>
 7    1  0.2648915E-009  0.1315104E+03  0.7561462E-02  0.1225232E+00
          2   -1    0    0  501    0  0.00000000000E+00  0.00000000000E+00  0.29291059695E+03  0.29291059695E+03  0.00000000000E+00 0. -1.
         -2   -1    0    0    0  501 -0.00000000000E+00 -0.00000000000E+00 -0.63791613915E+02  0.63791613915E+02  0.00000000000E+00 0.  1.
         25    2    1    2    0    0 -0.44252969885E+01  0.78900983979E+02  0.93797608267E+02  0.17519112241E+03  0.12509592131E+03 0.  0.
          5    1    3    3  502    0 -0.12015774990E+02  0.11010884613E+03  0.52328845958E+02  0.12257290632E+03  0.41800000000E+01 0. -1.
         -5    1    3    3    0  502  0.75904780012E+01 -0.31207862153E+02  0.41468762309E+02  0.52618216084E+02  0.41800000000E+01 0. -1.
        -11    1    1    2    0    0 -0.41112217183E+02 -0.21112015104E+02  0.64835975944E+02  0.79621827158E+02  0.00000000000E+00 0.  1.
         11    1    1    2    0    0  0.45537514171E+02 -0.57788968875E+02  0.70485398821E+02  0.10188926130E+03  0.00000000000E+00 0. -1.
</event>
<event>
 7    1  0.2648915E-009  0.9762924E+02  0.7561462E-02  0.1285362E+00
         -2   -1    0    0    0  501 -0.00000000000E+00  0.00000000000E+00  0.90181227759E+02  0.90181227759E+02  0.00000000000E+00 0.  1.
          2   -1    0    0  501    0  0.00000000000E+00 -0.00000000000E+00 -0.15518105649E+03  0.15518105649E+03  0.00000000000E+00 0. -1.
         25    2    1    2    0    0 -0.14327917313E+02 -0.95385488921E+01 -0.84225408928E+02  0.15178251870E+03  0.12509092830E+03 0.  0.
          5    1    3    3  502    0  0.40004418604E+02  0.36847549490E+02 -0.32677014101E+02  0.63587381310E+02  0.41800000000E+01 0. -1.
         -5    1    3    3    0  502 -0.54332335918E+02 -0.46386098382E+02 -0.51548394827E+02  0.88195137387E+02  0.41800000000E+01 0. -1.
        -11    1    1    2    0    0  0.30579117745E+02 -0.19217971312E+02  0.40520056563E+02  0.54279718563E+02  0.00000000000E+00 0.  1.
         11    1    1    2    0    0 -0.16251200431E+02  0.28756520204E+02 -0.21294476364E+02  0.39300046989E+02  0.00000000000E+00 0. -1.
</event>
<event>
 7    1  0.2648915E-009  0.7513616E+02  0.7561462E-02  0.1343450E+00
          1   -1    0    0  501    0  0.00000000000E+00  0.00000000000E+00  0.27724635522E+02  0.27724635522E+02  0.00000000000E+00 0. -1.
         -1   -1    0    0    0  501 -0.00000000000E+00 -0.00000000000E+00 -0.55855797183E+03  0.55855797183E+03  0.00000000000E+00 0.  1.
         25    2    1    2    0    0  0.84254694632E+01 -0.24999473580E+01 -0.46174982439E+03  0.47847412487E+03  0.12508936635E+03 0.  0.
          5    1    3    3  502    0 -0.39522847599E+02  0.37870753188E+02 -0.29945895274E+03  0.30444931631E+03  0.41800000000E+01 0.  1.
         -5    1    3    3    0  502  0.47948317062E+02 -0.40370700546E+02 -0.16229087165E+03  0.17402480856E+03  0.41800000000E+01 0.  1.
        -11    1    1    2    0    0 -0.16464206259E+02  0.11804789400E+02 -0.85178103139E+02  0.87554168347E+02  0.00000000000E+00 0.  1.
         11    1    1    2    0    0  0.80387367959E+01 -0.93048420423E+01  0.16094591218E+02  0.20254314138E+02  0.00000000000E+00 0. -1.
</event>
<event>
 7    1  0.2648915E-009  0.1356180E+03  0.7561462E-02  0.1219350E+00
          2   -1    0    0  501    0  0.00000000000E+00  0.00000000000E+00  0.10445202673E+04  0.10445202673E+04  0.00000000000E+00 0. -1.
         -2   -1    0    0    0  501 -0.00000000000E+00 -0.00000000000E+00 -0.22175708133E+02  0.22175708133E+02  0.00000000000E+00 0.  1.
         25    2    1    2    0    0 -0.10401856176E+03 -0.87401215965E+01  0.62078233816E+03  0.64180562110E+03  0.12508993957E+03 0.  0.
          5    1    3    3  502    0 -0.57469384312E+02  0.56850459469E+02  0.26860860597E+03  0.28054012275E+03  0.41800000000E+01 0. -1.
         -5    1    3    3    0  502 -0.46549177449E+02 -0.65590581065E+02  0.35217373220E+03  0.36126549835E+03  0.41800000000E+01 0. -1.
        -11    1    1    2    0    0  0.69487024991E+02 -0.10415767359E+02  0.36285239880E+03  0.36959274637E+03  0.00000000000E+00 0. -1.
         11    1    1    2    0    0  0.34531536770E+02  0.19155888955E+02  0.38709822247E+02  0.55297608011E+02  0.00000000000E+00 0.  1.
</event>
<event>
 7    1  0.2648915E-009  0.1315815E+03  0.7561462E-02  0.1225128E+00
         -2   -1    0    0    0  501 -0.00000000000E+00  0.00000000000E+00  0.87545579477E+02  0.87545579477E+02  0.00000000000E+00 0.  1.
          2   -1    0    0  501    0  0.00000000000E+00 -0.00000000000E+00 -0.24742715473E+03  0.24742715473E+03  0.00000000000E+00 0. -1.
         25    2    1    2    0    0 -0.45198503926E+01  0.89722838321E+02 -0.92745095332E+02  0.17978019166E+03  0.12509455560E+03 0.  0.
          5    1    3    3  502    0  0.56673619045E+02  0.68572545824E+02 -0.56344890160E+02  0.10538648957E+03  0.41800000000E+01 0. -1.
         -5    1    3    3    0  502 -0.61193469438E+02  0.21150292496E+02 -0.36400205171E+02  0.74393702092E+02  0.41800000000E+01 0. -1.
        -11    1    1    2    0    0  0.18541342448E+02 -0.92994857035E+02 -0.88316134495E+02  0.12958226895E+03  0.00000000000E+00 0. -1.
         11    1    1    2    0    0 -0.14021492055E+02  0.32720187139E+01  0.21179654571E+02  0.25610273596E+02  0.00000000000E+00 0.  1.
</event>
<event>
 7    1  0.2648915E-009  0.1061428E+03  0.7561462E-02  0.1267884E+00
         -1   -1    0    0    0  501 -0.00000000000E+00  0.00000000000E+00  0.32307027476E+02  0.32307027476E+02  0.00000000000E+00 0.  1.
          1   -1    0    0  501    0  0.00000000000E+00 -0.00000000000E+00 -0.47748643766E+03  0.47748643766E+03  0.00000000000E+00 0. -1.
         25    2    1    2    0    0 -0.23676516233E+02 -0.34426129064E+02 -0.27532904864E+03  0.30528685294E+03  0.12509293253E+03 0.  0.
          5    1    3    3  502    0  0.48358247463E+02 -0.34786208506E+02 -0.12256439499E+03  0.13633819611E+03  0.41800000000E+01 0.  1.
         -5    1    3    3    0  502 -0.72034763696E+02  0.36007944275E+00 -0.15276465366E+03  0.16894865683E+03  0.41800000000E+01 0.  1.
        -11    1    1    2    0    0  0.95707484044E+01  0.54801223201E+02 -0.17087642203E+03  0.17970399243E+03  0.00000000000E+00 0. -1.
         11    1    1    2    0    0  0.14105767829E+02 -0.20375094137E+02  0.10260604891E+01  0.24802619766E+02  0.00000000000E+00 0.  1.
</event>
<event>
 7    1  0.2648915E-009  0.1477328E+03  0.7561462E-02  0.1203287E+00
          1   -1    0    0  501    0  0.00000000000E+00  0.00000000000E+00  0.10163972980E+03  0.10163972980E+03  0.00000000000E+00 0. -1.
         -1   -1    0    0    0  501 -0.00000000000E+00 -0.00000000000E+00 -0.30941809096E+03  0.30941809096E+03  0.00000000000E+00 0.  1.
         25    2    1    2    0    0 -0.11181150499E+03  0.60986379764E+02 -0.44077762866E+02  0.18387923342E+03  0.12509025598E+03 0.  0.
          5    1    3    3  502    0 -0.66913509327E+02  0.88638510208E+02  0.56464509255E+01  0.11128143614E+03  0.41800000000E+01 0.  1.
         -5    1    3    3    0  502 -0.44897995658E+02 -0.27652130444E+02 -0.49724213792E+02  0.72597797277E+02  0.41800000000E+01 0.  1.
        -11    1    1    2    0    0  0.93326436573E+02 -0.63349740777E+02 -0.17286577631E+03  0.20641121588E+03  0.00000000000E+00 0.  1.
         11    1    1    2    0    0  0.18485068412E+02  0.23633610128E+01  0.91651780182E+01  0.20767371466E+02  0.00000000000E+00 0. -1.
</event>
<event>
 7    1  0.2648915E-009  0.1417057E+03  0.7561462E-02  0.1211052E+00
         -1   -1    0    0    0  501 -0.00000000000E+00  0.00000000000E+00  0.25080189080E+02  0.25080189080E+02  0.00000000000E+00 0.  1.
          1   -1    0    0  501    0  0.00000000000E+00 -0.00000000000E+00 -0.93407568436E+03  0.93407568436E+03  0.00000000000E+00 0. -1.
         25    2    1    2    0    0 -0.10301852715E+03  0.21075503923E+02 -0.42450405724E+03  0.45487199403E+03  0.12509133677E+03 0.  0.
          5    1    3    3  502    0 -0.12918899401E+03  0.20393197116E+00 -0.32269329017E+03  0.34761799390E+03  0.41800000000E+01 0. -1.
         -5    1    3    3    0  502  0.26170466867E+02  0.20871571952E+02 -0.10181076707E+03  0.10725400013E+03  0.41800000000E+01 0. -1.
        -11    1    1    2    0    0  0.39806130279E+02  0.20486685520E+02 -0.71051424763E+02  0.83979385876E+02  0.00000000000E+00 0.  1.
         11    1    1    2    0    0  0.63212396868E+02 -0.41562189443E+02 -0.41344001328E+03  0.42030449354E+03  0.00000000000E+00 0. -1.
</event>
<event>
 7    1  0.2648915E-009  0.3548408E+03  0.7561462E-02  0.1060646E+00
          2   -1    0    0  501    0  0.00000000000E+00  0.00000000000E+00  0.55663701667E+03  0.55663701667E+03  0.00000000000E+00 0. -1.
         -2   -1    0    0    0  501 -0.00000000000E+00 -0.00000000000E+00 -0.24663618216E+03  0.24663618216E+03  0.00000000000E+00 0.  1.
         25    2    1    2    0    0  0.72205319890E+01 -0.35228087259E+03  0.12245429705E+03  0.39344232155E+03  0.12509139160E+03 0.  0.
          5    1    3    3  502    0  0.39167815422E+01 -0.32498067391E+03  0.67669258625E+02  0.33200057312E+03  0.41800000000E+01 0.  1.
         -5    1    3    3    0  502  0.33037504468E+01 -0.27300198678E+02  0.54785038426E+02  0.61441748431E+02  0.41800000000E+01 0.  1.
        -11    1    1    2    0    0 -0.26810676159E+02  0.92239275756E+02  0.89316297732E+02  0.13116515310E+03  0.00000000000E+00 0.  1.
         11    1    1    2    0    0  0.19590144170E+02  0.26004159683E+03  0.98230239733E+02  0.27866572417E+03  0.00000000000E+00 0. -1.
</event>
<event>
 7    1  0.2648915E-009  0.1026470E+03  0.7561462E-02  0.1274826E+00
          2   -1    0    0  501    0  0.00000000000E+00  0.00000000000E+00  0.37154995004E+03  0.37154995004E+03  0.00000000000E+00 0. -1.
         -2   -1    0    0    0  501 -0.00000000000E+00 -0.00000000000E+00 -0.43983108528E+02  0.43983108528E+02  0.00000000000E+00 0.  1.
         25    2    1    2    0    0 -0.48680473041E+01 -0.63448881416E+02  0.21436652372E+03  0.25622086892E+03  0.12508664494E+03 0.  0.
          5    1    3    3  502    0  0.19057691513E+02  0.25276955223E+02  0.12103144421E+03  0.12517269255E+03  0.41800000000E+01 0. -1.
         -5    1    3    3    0  502 -0.23925738817E+02 -0.88725836639E+02  0.93335079507E+02  0.13104817638E+03  0.41800000000E+01 0. -1.
        -11    1    1    2    0    0 -0.18433722827E+02  0.52470676627E+02  0.12035113147E+03  0.13257966997E+03  0.00000000000E+00 0. -1.
         11    1    1    2    0    0  0.23301770131E+02  0.10978204788E+02 -0.71508136815E+01  0.26732519671E+02  0.00000000000E+00 0.  1.
</event>
<event>
 7    1  0.2648915E-009  0.8048094E+02  0.7561462E-02  0.1327692E+00
          1   -1    0    0  501    0  0.00000000000E+00  0.00000000000E+00  0.23132418296E+03  0.23132418296E+03  0.00000000000E+00 0. -1.
         -1   -1    0    0    0  501 -0.00000000000E+00 -0.00000000000E+00 -0.47258181513E+02  0.47258181513E+02  0.00000000000E+00 0.  1.
         25    2    1    2    0    0 -0.14034457272E+02  0.28878570071E+02  0.81618825957E+02  0.15277379607E+03  0.12508901717E+03 0.  0.
          5    1    3    3  502    0  0.30533216848E+02 -0.37316027048E+02  0.22489413667E+02  0.53366743697E+02  0.41800000000E+01 0.  1.
         -5    1    3    3    0  502 -0.44567674120E+02  0.66194597119E+02  0.59129412289E+02  0.99407052375E+02  0.41800000000E+01 0.  1.
        -11    1    1    2    0    0  0.74700655344E+01 -0.88609113748E+01 -0.75371652011E+01  0.13824850406E+02  0.00000000000E+00 0.  1.
         11    1    1    2    0    0  0.65643917375E+01 -0.20017658697E+02  0.10998434069E+03  0.11198371799E+03  0.00000000000E+00 0. -1.
</event>
<event>
 7    1  0.2648915E-009  0.3869679E+03  0.7561462E-02  0.1048388E+00
         -2   -1    0    0    0  501 -0.00000000000E+00  0.00000000000E+00  0.73559280411E+02  0.73559280411E+02  0.00000000000E+00 0.  1.
          2   -1    0    0  501    0  0.00000000000E+00 -0.00000000000E+00 -0.23855107080E+04  0.23855107080E+04  0.00000000000E+00 0. -1.
         25    2    1    2    0    0 -0.34032630279E+03  0.16499162796E+03 -0.74774890694E+03  0.84724229516E+03  0.12508736631E+03 0.  0.
          5    1    3    3  502    0 -0.26098485416E+02 -0.70096119748E+01 -0.14028147312E+02  0.30733156656E+02  0.41800000000E+01 0. -1.
         -5    1    3    3    0  502 -0.31422781737E+03  0.17200123994E+03 -0.73372075963E+03  0.81650913851E+03  0.41800000000E+01 0. -1.
        -11    1    1    2    0    0  0.17639254083E+03 -0.13397143892E+03 -0.84842460425E+03  0.87686200967E+03  0.00000000000E+00 0.  1.
         11    1    1    2    0    0  0.16393376196E+03 -0.31020189046E+02 -0.71577791641E+03  0.73496568359E+03  0.00000000000E+00 0. -1.
</event>
<event>
 7    1  0.2648915E-009  0.1382408E+03  0.7561462E-02  0.1215716E+00
         -2   -1    0    0    0  501 -0.00000000000E+00  0.00000000000E+00  0.40165923662E+03  0.40165923662E+03  0.00000000000E+00 0.  1.
          2   -1    0    0  501    0  0.00000000000E+00 -0.00000000000E+00 -0.59294218207E+02  0.59294218207E+02  0.00000000000E+00 0. -1.
         25    2    1    2    0    0 -0.27492442280E+02  0.87488606386E+02  0.89584310779E+02  0.17911802479E+03  0.12509127642E+03 0.  0.
          5    1    3    3  502    0 -0.38428274688E+02 -0.20172174454E+02  0.42967349611E+02  0.61215312220E+02  0.41800000000E+01 0.  1.
         -5    1    3    3    0  502  0.10935832408E+02  0.10766078084E+03  0.46616961168E+02  0.11790271256E+03  0.41800000000E+01 0.  1.
        -11    1    1    2    0    0  0.53323734854E+01 -0.99320353288E+02  0.19862491172E+03  0.22213694502E+03  0.00000000000E+00 0. -1.
         11    1    1    2    0    0  0.22160068795E+02  0.11831746901E+02  0.54155795914E+02  0.59698485029E+02  0.00000000000E+00 0.  1.
</event>
<event>
 7    1  0.2648915E-009  0.1051990E+03  0.7561462E-02  0.1269728E+00
         -2   -1    0    0    0  501 -0.00000000000E+00  0.00000000000E+00  0.29984371036E+03  0.29984371036E+03  0.00000000000E+00 0.  1.
          2   -1    0    0  501    0  0.00000000000E+00 -0.00000000000E+00 -0.42936807238E+02  0.42936807238E+02  0.00000000000E+00 0. -1.
         25    2    1    2    0    0  0.24794071530E+02 -0.20120290909E+02  0.17332198841E+03  0.21611840386E+03  0.12508829174E+03 0.  0.
          5    1    3    3  502    0  0.71559412173E+02 -0.76874822117E+01  0.13919910475E+03  0.15676003961E+03  0.41800000000E+01 0. -1.
         -5    1    3    3    0  502 -0.46765340643E+02 -0.12432808697E+02  0.34122883658E+02  0.59358364252E+02  0.41800000000E+01 0. -1.
        -11    1    1    2    0    0  0.20340661168E+02  0.36446829966E+02  0.60245531372E+02  0.73291458995E+02  0.00000000000E+00 0.  1.
         11    1    1    2    0    0 -0.45134732698E+02 -0.16326539057E+02  0.23339383340E+02  0.53370654746E+02  0.00000000000E+00 0. -1.
</event>
<event>
 7    1  0.2648915E-009  0.7481803E+02  0.7561462E-02  0.1344435E+00
         -1   -1    0    0    0  501 -0.00000000000E+00  0.00000000000E+00  0.40532174723E+03  0.40532174723E+03  0.00000000000E+00 0.  1.
          1   -1    0    0  501    0  0.00000000000E+00 -0.00000000000E+00 -0.30333707471E+02  0.30333707471E+02  0.00000000000E+00 0. -1.
         25    2    1    2    0    0  0.11403373875E+02  0.91881095443E+01  0.24396960957E+03  0.27456237353E+03  0.12509543666E+03 0.  0.
          5    1    3    3  502    0  0.97280442071E+01 -0.28134769106E+02  0.23365310388E+03  0.23557895795E+03  0.41800000000E+01 0.  1.
         -5    1    3    3    0  502  0.16753296675E+01  0.37322878650E+02  0.10316505683E+02  0.38983415573E+02  0.41800000000E+01 0.  1.
        -11    1    1    2    0    0 -0.37798592185E+02 -0.30089565055E+02  0.11302547361E+03  0.12291815644E+03  0.00000000000E+00 0.  1.
         11    1    1    2    0    0  0.26395218311E+02  0.20901455511E+02  0.17992956578E+02  0.38174924735E+02  0.00000000000E+00 0. -1.
</event>
<event>
 7    1  0.2648915E-009  0.1807075E+03  0.7561462E-02  0.1167120E+00
          2   -1    0    0  501    0  0.00000000000E+00  0.00000000000E+00  0.45225380697E+03  0.45225380697E+03  0.00000000000E+00 0.  1.
         -2   -1    0    0    0  501 -0.00000000000E+00 -0.00000000000E+00 -0.11018150958E+03  0.11018150958E+03  0.00000000000E+00 0. -1.
         25    2    1    2    0    0  0.89745650427E+01  0.17863491731E+03  0.81068557246E+02  0.23283148363E+03  0.12508961705E+03 0.  0.
          5    1    3    3  502    0 -0.10611976181E+02  0.82541217330E+02 -0.26279313734E+02  0.87371284339E+02  0.41800000000E+01 0. -1.
         -5    1    3    3    0  502  0.19586541224E+02  0.96093699984E+02  0.10734787098E+03  0.14546019929E+03  0.41800000000E+01 0. -1.
        -11    1    1    2    0    0  0.60531855341E+01 -0.70064675517E+02  0.18018832660E+03  0.19342578125E+03  0.00000000000E+00 0.  1.
         11    1    1    2    0    0 -0.15027750577E+02 -0.10857024180E+03  0.80815413541E+02  0.13617805167E+03  0.00000000000E+00 0. -1.
</event>
<event>
 7    1  0.2648915E-009  0.1536060E+03  0.7561462E-02  0.1196111E+00
          1   -1    0    0  501    0  0.00000000000E+00  0.00000000000E+00  0.98487024383E+03  0.98487024383E+03  0.00000000000E+00 0. -1.
         -1   -1    0    0    0  501 -0.00000000000E+00 -0.00000000000E+00 -0.36388246664E+02  0.36388246664E+02  0.00000000000E+00 0.  1.
         25    2    1    2    0    0 -0.98202073816E+02 -0.11743307865E+03  0.53640365979E+03  0.57167291021E+03  0.12508738855E+03 0.  0.
          5    1    3    3  502    0 -0.67936038475E+02 -0.69541071424E+02  0.48625768705E+03  0.49589845387E+03  0.41800000000E+01 0.  1.
         -5    1    3    3    0  502 -0.30266035342E+02 -0.47892007228E+02  0.50145972734E+02  0.75774456337E+02  0.41800000000E+01 0.  1.
        -11    1    1    2    0    0  0.37780608945E+02  0.46769034812E+02  0.28982357126E+03  0.29599395177E+03  0.00000000000E+00 0. -1.
         11    1    1    2    0    0  0.60421464872E+02  0.70664043840E+02  0.12225476613E+03  0.15359162852E+03  0.00000000000E+00 0.  1.
</event>
<event>
 7    1  0.2648915E-009  0.1131001E+03  0.7561462E-02  0.1254934E+00
         -2   -1    0    0    0  501 -0.00000000000E+00  0.00000000000E+00  0.16013330604E+03  0.16013330604E+03  0.00000000000E+00 0.  1.
          2   -1    0    0  501    0  0.00000000000E+00 -0.00000000000E+00 -0.12137576850E+03  0.12137576850E+03  0.00000000000E+00 0. -1.
         25    2    1    2    0    0  0.75157576128E+02  0.37588539757E+02 -0.37080507110E+01  0.15074270431E+03  0.12509218078E+03 0.  0.
          5    1    3    3  502    0  0.39542716902E+02 -0.15569523126E+02  0.50955272727E+02  0.66482694959E+02  0.41800000000E+01 0. -1.
         -5    1    3    3    0  502  0.35614859226E+02  0.53158062883E+02 -0.54663323438E+02  0.84260009355E+02  0.41800000000E+01 0. -1.
        -11    1    1    2    0    0 -0.33109066446E+01 -0.46821062165E+02  0.33737948729E+02  0.57805044326E+02  0.00000000000E+00 0.  1.
         11    1    1    2    0    0 -0.71846669484E+02  0.92325224079E+01  0.87276395243E+01  0.72961325903E+02  0.00000000000E+00 0. -1.
</event>
<event>
 7    1  0.2648915E-009  0.1403826E+03  0.7561462E-02  0.1212815E+00
          1   -1    0    0  501    0  0.00000000000E+00  0.00000000000E+00  0.39486332215E+03  0.39486332215E+03  0.00000000000E+00 0. -1.
         -1   -1    0    0    0  501 -0.00000000000E+00 -0.00000000000E+00 -0.11112553246E+03  0.11112553246E+03  0.00000000000E+00 0.  1.
         25    2    1    2    0    0 -0.12171895041E+03  0.25598287112E+01  0.30499111523E+03  0.35141027042E+03  0.12509013623E+03 0.  0.
          5    1    3    3  502    0 -0.78991565557E+02  0.19579413648E+02  0.57712223907E+02  0.99855866409E+02  0.41800000000E+01 0.  1.
         -5    1    3    3    0  502 -0.42727384851E+02 -0.17019584937E+02  0.24727889132E+03  0.25155440401E+03  0.41800000000E+01 0.  1.
        -11    1    1    2    0    0 -0.77955610637E+01  0.20148396903E+02 -0.22123726897E+01  0.21716888888E+02  0.00000000000E+00 0.  1.
         11    1    1    2    0    0  0.12951451147E+03 -0.22708225614E+02 -0.19040952848E+02  0.13286169530E+03  0.00000000000E+00 0. -1.
</event>
<event>
 7    1  0.2648915E-009  0.9869018E+02  0.7561462E-02  0.1283075E+00
          2   -1    0    0  501    0  0.00000000000E+00  0.00000000000E+00  0.44928322195E+03  0.44928322195E+03  0.00000000000E+00 0. -1.
         -2   -1    0    0    0  501 -0.00000000000E+00 -0.00000000000E+00 -0.33564407903E+02  0.33564407903E+02  0.00000000000E+00 0.  1.
         25    2    1    2    0    0 -0.54246249913E+02  0.67200650640E+01  0.26168845896E+03  0.29515614508E+03  0.12509390681E+03 0.  0.
          5    1    3    3  502    0  0.38737111008E+02  0.16045612996E+01  0.11424463150E+03  0.12071638917E+03  0.41800000000E+01 0.  1.
         -5    1    3    3    0  502 -0.92983360922E+02  0.51155037644E+01  0.14744382746E+03  0.17443975591E+03  0.41800000000E+01 0.  1.
        -11    1    1    2    0    0  0.50208408208E+02 -0.17882028691E+02  0.16384105244E+03  0.17229202439E+03  0.00000000000E+00 0. -1.
         11    1    1    2    0    0  0.40378417054E+01  0.11161963627E+02 -0.98106973509E+01  0.15399460385E+02  0.00000000000E+00 0.  1.
</event>
<event>
 7    1  0.2648915E-009  0.2038180E+03  0.7561462E-02  0.1146557E+00
         -3   -1    0    0    0  501 -0.00000000000E+00  0.00000000000E+00  0.52714349017E+03  0.52714349017E+03  0.00000000000E+00 0.  1.
          3   -1    0    0  501    0  0.00000000000E+00 -0.00000000000E+00 -0.11682235491E+03  0.11682235491E+03  0.00000000000E+00 0. -1.
         25    2    1    2    0    0 -0.15194508810E+03 -0.12963921728E+03  0.79494884853E+02  0.24871869882E+03  0.12509163829E+03 0.  0.
          5    1    3    3  502    0 -0.11495805163E+03 -0.72240225461E+02 -0.98468991394E+01  0.13619264897E+03  0.41800000000E+01 0.  1.
         -5    1    3    3    0  502 -0.36987036464E+02 -0.57398991823E+02  0.89341783993E+02  0.11252604985E+03  0.41800000000E+01 0.  1.
        -11    1    1    2    0    0  0.63298971101E+02  0.30077968347E+02  0.55678191840E+02  0.89507010725E+02  0.00000000000E+00 0. -1.
         11    1    1    2    0    0  0.88646116996E+02  0.99561248937E+02  0.27514805856E+03  0.30574013553E+03  0.00000000000E+00 0.  1.
</event>
<event>
 7    1  0.2648915E-009  0.1514495E+03  0.7561462E-02  0.1198703E+00
          2   -1    0    0  501    0  0.00000000000E+00  0.00000000000E+00  0.20668289815E+03  0.20668289815E+03  0.00000000000E+00 0.  1.
         -2   -1    0    0    0  501 -0.00000000000E+00 -0.00000000000E+00 -0.16551760335E+03  0.16551760335E+03  0.00000000000E+00 0. -1.
         25    2    1    2    0    0  0.27333532599E+02 -0.13510963540E+03  0.86197471615E+02  0.20513379589E+03  0.12509250384E+03 0.  0.
          5    1    3    3  502    0 -0.32176011608E+02 -0.66196958783E+02 -0.78832659147E+01  0.74141428073E+02  0.41800000000E+01 0.  1.
         -5    1    3    3    0  502  0.59509544208E+02 -0.68912676622E+02  0.94080737530E+02  0.13099236781E+03  0.41800000000E+01 0.  1.
        -11    1    1    2    0    0 -0.11767340945E+01  0.17864610220E+02 -0.43378662432E+02  0.46928001830E+02  0.00000000000E+00 0. -1.
         11    1    1    2    0    0 -0.26156798505E+02  0.11724502518E+03 -0.16535143812E+01  0.12013870379E+03  0.00000000000E+00 0.  1.
</event>
<event>
 7    1  0.2648915E-009  0.2533726E+03  0.7561462E-02  0.1111192E+00
         -2   -1    0    0    0  501 -0.00000000000E+00  0.00000000000E+00  0.41625407696E+03  0.41625407696E+03  0.00000000000E+00 0.  1.
          2   -1    0    0  501    0  0.00000000000E+00 -0.00000000000E+00 -0.17474220796E+03  0.17474220796E+03  0.00000000000E+00 0. -1.
         25    2    1    2    0    0  0.20044715608E+02  0.24510140966E+03  0.10423779362E+03  0.29493950782E+03  0.12508918422E+03 0.  0.
          5    1    3    3  502    0  0.77624294529E+01  0.97163148896E+02 -0.22019766926E+02  0.10001637541E+03  0.41800000000E+01 0.  1.
         -5    1    3    3    0  502  0.12282286155E+02  0.14793826077E+03  0.12625756055E+03  0.19492313241E+03  0.41800000000E+01 0.  1.
        -11    1    1    2    0    0  0.22211437219E+02 -0.18971962832E+03  0.85581805642E+02  0.20931108611E+03  0.00000000000E+00 0.  1.
         11    1    1    2    0    0 -0.42256152827E+02 -0.55381781341E+02  0.51692269731E+02  0.86745690994E+02  0.00000000000E+00 0. -1.
</event>
<event>
 7    1  0.2648915E-009  0.8599291E+02  0.7561462E-02  0.1312856E+00
         -2   -1    0    0    0  501 -0.00000000000E+00  0.00000000000E+00  0.33917977013E+02  0.33917977013E+02  0.00000000000E+00 0.  1.
          2   -1    0    0  501    0  0.00000000000E+00 -0.00000000000E+00 -0.42495362788E+03  0.42495362788E+03  0.00000000000E+00 0. -1.
         25    2    1    2    0    0 -0.22168675080E+02 -0.34823610727E+02 -0.16037150606E+03  0.20753524252E+03  0.12509085863E+03 0.  0.
          5    1    3    3  502    0 -0.10842812663E+02 -0.69320732286E+02 -0.15552012508E+03  0.17066608396E+03  0.41800000000E+01 0. -1.
         -5    1    3    3    0  502 -0.11325862417E+02  0.34497121559E+02 -0.48513809836E+01  0.36869158558E+02  0.41800000000E+01 0. -1.
        -11    1    1    2    0    0  0.38596287269E+02  0.23319594211E+02 -0.22638147095E+03  0.23082904335E+03  0.00000000000E+00 0. -1.
         11    1    1    2    0    0 -0.16427612189E+02  0.11504016516E+02 -0.42826738616E+01  0.20507319026E+02  0.00000000000E+00 0.  1.
</event>
<event>
 7    1  0.2648915E-009  0.1792007E+03  0.7561462E-02  0.1168579E+00
          2   -1    0    0  501    0  0.00000000000E+00  0.00000000000E+00  0.92516783537E+03  0.92516783537E+03  0.00000000000E+00 0. -1.
         -2   -1    0    0    0  501 -0.00000000000E+00 -0.00000000000E+00 -0.46297460397E+02  0.46297460397E+02  0.00000000000E+00 0.  1.
         25    2    1    2    0    0  0.72776205435E+02 -0.12547317539E+03  0.22087063095E+03  0.29235183782E+03  0.12508344272E+03 0.  0.
          5    1    3    3  502    0 -0.22466996903E+02 -0.84872503145E+02  0.99277348625E+02  0.13259552062E+03  0.41800000000E+01 0. -1.
         -5    1    3    3    0  502  0.95243202338E+02 -0.40600672245E+02  0.12159328232E+03  0.15975631720E+03  0.41800000000E+01 0. -1.
        -11    1    1    2    0    0 -0.36948366324E+02  0.57732446960E+00  0.11533416719E+03  0.12110939352E+03  0.00000000000E+00 0. -1.
         11    1    1    2    0    0 -0.35827839111E+02  0.12489585092E+03  0.54266557684E+03  0.55800406443E+03  0.00000000000E+00 0.  1.
</event>
<event>
 7    1  0.2648915E-009  0.1103255E+03  0.7561462E-02  0.1259968E+00
         -1   -1    0    0    0  501 -0.00000000000E+00  0.00000000000E+00  0.32669921609E+03  0.32669921609E+03  0.00000000000E+00 0.  1.
          1   -1    0    0  501    0  0.00000000000E+00 -0.00000000000E+00 -0.61404040560E+02  0.61404040560E+02  0.00000000000E+00 0. -1.
         25    2    1    2    0    0  0.64513307197E+02 -0.21438504479E+02  0.22733272056E+03  0.26823359657E+03  0.12509004841E+03 0.  0.
          5    1    3    3  502    0  0.48809583593E+02  0.42695686605E+02  0.60602572872E+02  0.88856296029E+02  0.41800000000E+01 0. -1.
         -5    1    3    3    0  502  0.15703723604E+02 -0.64134191084E+02  0.16673014769E+03  0.17937730054E+03  0.41800000000E+01 0. -1.
        -11    1    1    2    0    0 -0.71015646943E+02  0.31370609530E+02  0.57773901158E+02  0.96773761465E+02  0.00000000000E+00 0.  1.
         11    1    1    2    0    0  0.65023397467E+01 -0.99321050507E+01 -0.19811446187E+02  0.23095898617E+02  0.00000000000E+00 0. -1.
</event>
<event>
 7    1  0.2648915E-009  0.7608344E+02  0.7561462E-02  0.1340548E+00
          1   -1    0    0  501    0  0.00000000000E+00  0.00000000000E+00  0.41610702892E+03  0.41610702892E+03  0.00000000000E+00 0. -1.
         -1   -1    0    0    0  501 -0.00000000000E+00 -0.00000000000E+00 -0.34270552702E+02  0.34270552702E+02  0.00000000000E+00 0.  1.
         25    2    1    2    0    0 -0.37871271920E+02 -0.28493192380E+02  0.18224950426E+03  0.22607256726E+03  0.12509128113E+03 0.  0.
          5    1    3    3  502    0 -0.47250000476E+02  0.11092705042E+02  0.17847388334E+03  0.18500272994E+03  0.41800000000E+01 0.  1.
         -5    1    3    3    0  502  0.93787285564E+01 -0.39585897422E+02  0.37756209188E+01  0.41069837318E+02  0.41800000000E+01 0.  1.
        -11    1    1    2    0    0  0.25314123199E+02  0.38788920035E+02  0.20256739353E+03  0.20779541398E+03  0.00000000000E+00 0. -1.
         11    1    1    2    0    0  0.12557148721E+02 -0.10295727655E+02 -0.29804215741E+01  0.16509600380E+02  0.00000000000E+00 0.  1.
</event>
<event>
 7    1  0.2648915E-009  0.1071374E+03  0.7561462E-02  0.1265965E+00
         -2   -1    0    0    0  501 -0.00000000000E+00  0.00000000000E+00  0.74391161943E+03  0.74391161943E+03  0.00000000000E+00 0.  1.
          2   -1    0    0  501    0  0.00000000000E+00 -0.00000000000E+00 -0.23559815995E+02  0.23559815995E+02  0.00000000000E+00 0. -1.
         25    2    1    2    0    0 -0.66212475822E+02  0.22486596503E+02  0.47466689488E+03  0.49582845804E+03  0.12508980664E+03 0.  0.
          5    1    3    3  502    0 -0.15655160051E+02  0.47684172415E+02  0.64816216964E+02  0.82082146150E+02  0.41800000000E+01 0. -1.
         -5    1    3    3    0  502 -0.50557315771E+02 -0.25197575912E+02  0.40985067792E+03  0.41374631189E+03  0.41800000000E+01 0. -1.
        -11    1    1    2    0    0 -0.68639839344E+01 -0.32762862454E+02  0.13145025224E+03  0.13564545052E+03  0.00000000000E+00 0.  1.
         11    1    1    2    0    0  0.73076459757E+02  0.10276265950E+02  0.11423465631E+03  0.13599752687E+03  0.00000000000E+00 0. -1.
</event>
<event>
 7    1  0.2648915E-009  0.9412860E+02  0.7561462E-02  0.1293151E+00
          2   -1    0    0  501    0  0.00000000000E+00  0.00000000000E+00  0.41411830986E+03  0.41411830986E+03  0.00000000000E+00 0. -1.
         -2   -1    0    0    0  501 -0.00000000000E+00 -0.00000000000E+00 -0.35168641634E+02  0.35168641634E+02  0.00000000000E+00 0.  1.
         25    2    1    2    0    0  0.12763201682E+02  0.41437097827E+02  0.14754611619E+03  0.19823715109E+03  0.12509268274E+03 0.  0.
          5    1    3    3  502    0  0.17431583455E+01  0.64934714688E+02  0.15727011567E+03  0.17020845295E+03  0.41800000000E+01 0.  1.
         -5    1    3    3    0  502  0.11020043337E+02 -0.23497616862E+02 -0.97239994807E+01  0.28028698136E+02  0.41800000000E+01 0.  1.
        -11    1    1    2    0    0 -0.43796368303E+02 -0.48189111062E+02  0.14345243792E+03  0.15754019883E+03  0.00000000000E+00 0.  1.
         11    1    1    2    0    0  0.31033166620E+02  0.67520132357E+01  0.87951114116E+02  0.93509601579E+02  0.00000000000E+00 0. -1.
</event>
<event>
 7    1  0.2648915E-009  0.8699786E+02  0.7561462E-02  0.1310289E+00
         -1   -1    0    0    0  501 -0.00000000000E+00  0.00000000000E+00  0.27570863928E+02  0.27570863928E+02  0.00000000000E+00 0.  1.
          1   -1    0    0  501    0  0.00000000000E+00 -0.00000000000E+00 -0.56403667268E+03  0.56403667268E+03  0.00000000000E+00 0. -1.
         25    2    1    2    0    0  0.67689381497E+01  0.50831902642E+02 -0.39223673327E+03  0.41488104041E+03  0.12508765695E+03 0.  0.
          5    1    3    3  502    0  0.33510056875E+02  0.63333019965E+01 -0.33779511831E+03  0.33953799343E+03  0.41800000000E+01 0. -1.
         -5    1    3    3    0  502 -0.26741118725E+02  0.44498600646E+02 -0.54441614954E+02  0.75343046984E+02  0.41800000000E+01 0. -1.
        -11    1    1    2    0    0  0.31937334400E+02 -0.17184390375E+02 -0.18024721745E+02  0.40499224624E+02  0.00000000000E+00 0.  1.
         11    1    1    2    0    0 -0.38706272550E+02 -0.33647512267E+02 -0.12620435374E+03  0.13622727157E+03  0.00000000000E+00 0. -1.
</event>
<event>
 7    1  0.2648915E-009  0.1519911E+03  0.7561462E-02  0.1198048E+00
          4   -1    0    0  501    0  0.00000000000E+00  0.00000000000E+00  0.30617598070E+03  0.30617598070E+03  0.00000000000E+00 0. -1.
         -4   -1    0    0    0  501 -0.00000000000E+00 -0.00000000000E+00 -0.89576781774E+02  0.89576781774E+02  0.00000000000E+00 0.  1.
         25    2    1    2    0    0  0.11610782827E+03  0.15331498653E+01  0.17000030801E+03  0.24089646930E+03  0.12509047071E+03 0.  0.
          5    1    3    3  502    0  0.48689643465E+02  0.52566691081E+02  0.31081771304E+02  0.78214367602E+02  0.41800000000E+01 0. -1.
         -5    1    3    3    0  502  0.67418184808E+02 -0.51033541216E+02  0.13891853671E+03  0.16268210170E+03  0.41800000000E+01 0. -1.
        -11    1    1    2    0    0 -0.44543617029E+02 -0.45406897243E+02  0.23295219206E+02  0.67739112580E+02  0.00000000000E+00 0. -1.
         11    1    1    2    0    0 -0.71564211244E+02  0.43873747377E+02  0.23303671711E+02  0.87117180597E+02  0.00000000000E+00 0.  1.
</event>
<event>
 7    1  0.4414449E-009  0.6771568E+02  0.7561462E-02  0.1368038E+00
         -1   -1    0    0    0  501 -0.00000000000E+00  0.00000000000E+00  0.77120928273E+02  0.77120928273E+02  0.00000000000E+00 0.  1.
          1   -1    0    0  501    0  0.00000000000E+00 -0.00000000000E+00 -0.29726282759E+03  0.29726282759E+03  0.00000000000E+00 0. -1.
         25    2    1    2    0    0  0.26844607629E+02  0.59893391187E+02 -0.17367287720E+02  0.14232221311E+03  0.12508452501E+03 0.  0.
          5    1    3    3  502    0  0.59436687388E+01  0.21935004756E+02 -0.70176346482E+02  0.73882769557E+02  0.41800000000E+01 0. -1.
         -5    1    3    3    0  502  0.20900938890E+02  0.37958386430E+02  0.52809058763E+02  0.68439443556E+02  0.41800000000E+01 0. -1.
        -11    1    1    2    0    0  0.19442423432E+00 -0.23251811158E+02  0.98679277098E+00  0.23273553293E+02  0.00000000000E+00 0.  1.
         11    1    1    2    0    0 -0.27039031863E+02 -0.36641580029E+02 -0.20376140437E+03  0.20878798946E+03  0.00000000000E+00 0. -1.
</event>
<event>
 7    1  0.2648915E-009  0.1802839E+03  0.7561462E-02  0.1167529E+00
          1   -1    0    0  501    0  0.00000000000E+00  0.00000000000E+00  0.40627678094E+03  0.40627678094E+03  0.00000000000E+00 0. -1.
         -1   -1    0    0    0  501 -0.00000000000E+00 -0.00000000000E+00 -0.95878267681E+02  0.95878267681E+02  0.00000000000E+00 0.  1.
         25    2    1    2    0    0 -0.13706485349E+03 -0.74889919583E+02  0.10091938162E+03  0.22411746885E+03  0.12509454081E+03 0.  0.
          5    1    3    3  502    0 -0.15589025445E+03 -0.80969277690E+02  0.74514852225E+02  0.19086050132E+03  0.41800000000E+01 0. -1.
         -5    1    3    3    0  502  0.18825400966E+02  0.60793581072E+01  0.26404529392E+02  0.33256967525E+02  0.41800000000E+01 0. -1.
        -11    1    1    2    0    0  0.11041188409E+03  0.81428912460E+02  0.11301776335E+03  0.17774832422E+03  0.00000000000E+00 0.  1.
         11    1    1    2    0    0  0.26652969402E+02 -0.65389928767E+01  0.96461368290E+02  0.10028925555E+03  0.00000000000E+00 0. -1.
</event>
<event>
 7    1  0.2648915E-009  0.1423136E+03  0.7561462E-02  0.1210249E+00
          1   -1    0    0  501    0  0.00000000000E+00  0.00000000000E+00  0.46532082732E+03  0.46532082732E+03  0.00000000000E+00 0. -1.
         -1   -1    0    0    0  501 -0.00000000000E+00 -0.00000000000E+00 -0.47995088837E+02  0.47995088837E+02  0.00000000000E+00 0.  1.
         25    2    1    2    0    0  0.93204717269E+02 -0.14930630684E+01  0.15205102755E+03  0.21783793281E+03  0.12507798141E+03 0.  0.
          5    1    3    3  502    0 -0.80508125245E+01 -0.44587239587E+02  0.37794036524E+02  0.59149802308E+02  0.41800000000E+01 0. -1.
         -5    1    3    3    0  502  0.10125552979E+03  0.43094176519E+02  0.11425699103E+03  0.15868813050E+03  0.41800000000E+01 0. -1.
        -11    1    1    2    0    0 -0.24643251365E+01  0.32891367218E+02  0.86008804222E+02  0.92116390178E+02  0.00000000000E+00 0.  1.
         11    1    1    2    0    0 -0.90740392132E+02 -0.31398304149E+02  0.17926590671E+03  0.20336159317E+03  0.00000000000E+00 0. -1.
</event>
<event>
 7    1  0.2648915E-009  0.1061942E+03  0.7561462E-02  0.1267784E+00
          2   -1    0    0  501    0  0.00000000000E+00  0.00000000000E+00  0.51583114609E+03  0.51583114609E+03  0.00000000000E+00 0.  1.
         -2   -1    0    0    0  501 -0.00000000000E+00 -0.00000000000E+00 -0.25935599813E+02  0.25935599813E+02  0.00000000000E+00 0. -1.
         25    2    1    2    0    0  0.13046027675E+02  0.27772873380E+02  0.33907285652E+03  0.36271200459E+03  0.12509222563E+03 0.  0.
          5    1    3    3  502    0  0.97217291494E+01  0.77123674021E+02  0.23151052360E+03  0.24424816898E+03  0.41800000000E+01 0.  1.
         -5    1    3    3    0  502  0.33242985254E+01 -0.49350800641E+02  0.10756233292E+03  0.11846383561E+03  0.41800000000E+01 0.  1.
        -11    1    1    2    0    0 -0.40781293594E+02 -0.37608769378E+02  0.52339767330E+02  0.76269159465E+02  0.00000000000E+00 0. -1.
         11    1    1    2    0    0  0.27735265919E+02  0.98358959980E+01  0.98482922427E+02  0.10278558185E+03  0.00000000000E+00 0.  1.
</event>
<event>
 7    1  0.2648915E-009  0.9724560E+02  0.7561462E-02  0.1286197E+00
          1   -1    0    0  501    0  0.00000000000E+00  0.00000000000E+00  0.13480881203E+03  0.13480881203E+03  0.00000000000E+00 0. -1.
         -1   -1    0    0    0  501 -0.00000000000E+00 -0.00000000000E+00 -0.13796389055E+03  0.13796389055E+03  0.00000000000E+00 0.  1.
         25    2    1    2    0    0  0.75422565487E+02  0.37681480515E+02 -0.52954261638E+01  0.15094512062E+03  0.12509168854E+03 0.  0.
          5    1    3    3  502    0 -0.10428777117E+02 -0.54101842831E+00 -0.46795981188E+02  0.48128872296E+02  0.41800000000E+01 0. -1.
         -5    1    3    3    0  502  0.85851342604E+02  0.38222498943E+02  0.41500555025E+02  0.10281624833E+03  0.41800000000E+01 0. -1.
        -11    1    1    2    0    0 -0.57547758271E+02 -0.41431289204E+02 -0.36010602586E+02  0.79530243969E+02  0.00000000000E+00 0.  1.
         11    1    1    2    0    0 -0.17874807216E+02  0.37498086893E+01  0.38150950229E+02  0.42297337996E+02  0.00000000000E+00 0. -1.
</event>
<event>
 7    1  0.2648915E-009  0.1103071E+03  0.7561462E-02  0.1260002E+00
          1   -1    0    0  501    0  0.00000000000E+00  0.00000000000E+00  0.15382308975E+02  0.15382308975E+02  0.00000000000E+00 0. -1.
         -1   -1    0    0    0  501 -0.00000000000E+00 -0.00000000000E+00 -0.86393834243E+03  0.86393834243E+03  0.00000000000E+00 0.  1.
         25    2    1    2    0    0 -0.23818713643E+02  0.31188717245E+02 -0.51932097384E+03  0.53561362460E+03  0.12509042243E+03 0.  0.
          5    1    3    3  502    0 -0.35481116307E+02 -0.41125454136E+02 -0.16446431945E+03  0.17325183221E+03  0.41800000000E+01 0.  1.
         -5    1    3    3    0  502  0.11662402664E+02  0.72314171381E+02 -0.35485665440E+03  0.36236179240E+03  0.41800000000E+01 0.  1.
        -11    1    1    2    0    0  0.54128509261E+02 -0.82389462343E+01 -0.13310278600E+03  0.14392403341E+03  0.00000000000E+00 0.  1.
         11    1    1    2    0    0 -0.30309795618E+02 -0.22949771010E+02 -0.19613227361E+03  0.19978299339E+03  0.00000000000E+00 0. -1.
</event>
<event>
 7    1  0.2648915E-009  0.1022366E+03  0.7561462E-02  0.1275662E+00
         -2   -1    0    0    0  501 -0.00000000000E+00  0.00000000000E+00  0.92197814607E+01  0.92197814607E+01  0.00000000000E+00 0.  1.
          2   -1    0    0  501    0  0.00000000000E+00 -0.00000000000E+00 -0.24490397993E+04  0.24490397993E+04  0.00000000000E+00 0. -1.
         25    2    1    2    0    0  0.25587364304E+02 -0.47207051073E+01 -0.21414667260E+04  0.21452749324E+04  0.12509116136E+03 0.  0.
          5    1    3    3  502    0  0.68797389296E+02 -0.11365265809E+02 -0.78632755171E+03  0.78942430987E+03  0.41800000000E+01 0.  1.
         -5    1    3    3    0  502 -0.43210024991E+02  0.66445607016E+01 -0.13551391743E+04  0.13558506225E+04  0.41800000000E+01 0.  1.
        -11    1    1    2    0    0 -0.45509473448E+02  0.32924439542E+02 -0.22507454130E+03  0.23197775763E+03  0.00000000000E+00 0.  1.
         11    1    1    2    0    0  0.19922109144E+02 -0.28203734435E+02 -0.73278750501E+02  0.81006890718E+02  0.00000000000E+00 0. -1.
</event>
<event>
 7    1  0.2648915E-009  0.1035646E+03  0.7561462E-02  0.1272974E+00
          1   -1    0    0  501    0  0.00000000000E+00  0.00000000000E+00  0.16407647700E+03  0.16407647700E+03  0.00000000000E+00 0. -1.
         -1   -1    0    0    0  501 -0.00000000000E+00 -0.00000000000E+00 -0.91245216755E+02  0.91245216755E+02  0.00000000000E+00 0.  1.
         25    2    1    2    0    0  0.39989372486E+02  0.40474440030E+02  0.45156380652E+02  0.14465397235E+03  0.12509333634E+03 0.  0.
          5    1    3    3  502    0  0.32575869857E+01  0.81785777414E+02  0.25444033687E+02  0.85816062077E+02  0.41800000000E+01 0. -1.
         -5    1    3    3    0  502  0.36731785500E+02 -0.41311337384E+02  0.19712346964E+02  0.58837910274E+02  0.41800000000E+01 0. -1.
        -11    1    1    2    0    0 -0.43819938673E+02 -0.18730016671E+02  0.56784779753E+02  0.74131718996E+02  0.00000000000E+00 0. -1.
         11    1    1    2    0    0  0.38305661870E+01 -0.21744423359E+02 -0.29109900161E+02  0.36536002407E+02  0.00000000000E+00 0.  1.
</event>
<event>
 7    1  0.2648915E-009  0.1549253E+03  0.7561462E-02  0.1194548E+00
          2   -1    0    0  501    0  0.00000000000E+00  0.00000000000E+00  0.35410501357E+03  0.35410501357E+03  0.00000000000E+00 0. -1.
         -2   -1    0    0    0  501 -0.00000000000E+00 -0.00000000000E+00 -0.10357253100E+03  0.10357253100E+03  0.00000000000E+00 0.  1.
         25    2    1    2    0    0 -0.78797290066E+02  0.96550899350E+02  0.17909597903E+02  0.17747954389E+03  0.12508855150E+03 0.  0.
          5    1    3    3  502    0 -0.47980873322E+02 -0.21486648962E+02  0.17000837338E+02  0.55410659251E+02  0.41800000000E+01 0. -1.
         -5    1    3    3    0  502 -0.30816416743E+02  0.11803754831E+03  0.90876056510E+00  0.12206888464E+03  0.41800000000E+01 0. -1.
        -11    1    1    2    0    0 -0.36024760867E+01 -0.26938855372E+02  0.12463755324E+03  0.12756645108E+03  0.00000000000E+00 0. -1.
         11    1    1    2    0    0  0.82399766152E+02 -0.69612043978E+02  0.10798533142E+03  0.15263154959E+03  0.00000000000E+00 0.  1.
</event>
<event>
 7    1  0.2648915E-009  0.8122903E+02  0.7561462E-02  0.1325599E+00
          3   -1    0    0  501    0  0.00000000000E+00  0.00000000000E+00  0.16071809514E+03  0.16071809514E+03  0.00000000000E+00 0. -1.
         -3   -1    0    0    0  501 -0.00000000000E+00 -0.00000000000E+00 -0.86231505637E+02  0.86231505637E+02  0.00000000000E+00 0.  1.
         25    2    1    2    0    0  0.34905165186E+02 -0.27510241132E+02  0.43649010055E+02  0.13974290065E+03  0.12509060029E+03 0.  0.
          5    1    3    3  502    0  0.18590585463E+01 -0.26097351350E+02 -0.40971229334E+02  0.48791821849E+02  0.41800000000E+01 0. -1.
         -5    1    3    3    0  502  0.33046106640E+02 -0.14128897819E+01  0.84620239390E+02  0.90951078806E+02  0.41800000000E+01 0. -1.
        -11    1    1    2    0    0  0.31357436361E+02  0.13585208418E+01  0.78593976879E+01  0.32355904037E+02  0.00000000000E+00 0.  1.
         11    1    1    2    0    0 -0.66262601547E+02  0.26151720290E+02  0.22978181764E+02  0.74850796089E+02  0.00000000000E+00 0. -1.
</event>
<event>
 7    1  0.2648915E-009  0.7028487E+02  0.7561462E-02  0.1359127E+00
          1   -1    0    0  501    0  0.00000000000E+00  0.00000000000E+00  0.74476101341E+02  0.74476101341E+02  0.00000000000E+00 0. -1.
         -1   -1    0    0    0  501 -0.00000000000E+00 -0.00000000000E+00 -0.20438822473E+03  0.20438822473E+03  0.00000000000E+00 0.  1.
         25    2    1    2    0    0  0.66977001929E+01  0.33931041594E+02 -0.12742032716E+03  0.18187259155E+03  0.12508207310E+03 0.  0.
          5    1    3    3  502    0 -0.11788814857E+02 -0.37890536331E+00  0.23132838450E+02  0.26300576795E+02  0.41800000000E+01 0.  1.
         -5    1    3    3    0  502  0.18486515049E+02  0.34309946957E+02 -0.15055316561E+03  0.15557201475E+03  0.41800000000E+01 0.  1.
        -11    1    1    2    0    0  0.34373046799E+02  0.18012196895E+01  0.17976828861E+02  0.38831908458E+02  0.00000000000E+00 0. -1.
         11    1    1    2    0    0 -0.41070746992E+02 -0.35732261283E+02 -0.20468625090E+02  0.58159826066E+02  0.00000000000E+00 0.  1.
</event>
<event>
 7    1  0.2648915E-009  0.1113684E+03  0.7561462E-02  0.1258057E+00
          2   -1    0    0  501    0  0.00000000000E+00  0.00000000000E+00  0.67265788853E+02  0.67265788853E+02  0.00000000000E+00 0. -1.
         -2   -1    0    0    0  501 -0.00000000000E+00 -0.00000000000E+00 -0.21722412417E+03  0.21722412417E+03  0.00000000000E+00 0.  1.
         25    2    1    2    0    0  0.34013499573E+02 -0.38226048315E+02 -0.10861556109E+03  0.17338673269E+03  0.12508984787E+03 0.  0.
          5    1    3    3  502    0  0.23798909720E+02  0.37175572770E+02 -0.80983395276E+02  0.92326561861E+02  0.41800000000E+01 0. -1.
         -5    1    3    3    0  502  0.10214589853E+02 -0.75401621085E+02 -0.27632165812E+02  0.81060170833E+02  0.41800000000E+01 0. -1.
        -11    1    1    2    0    0  0.64625069188E+00  0.60817617752E+02 -0.17219953027E+02  0.63211763552E+02  0.00000000000E+00 0. -1.
         11    1    1    2    0    0 -0.34659750265E+02 -0.22591569438E+02 -0.24122821200E+02  0.47891416775E+02  0.00000000000E+00 0.  1.
</event>
<event>
 7    1  0.2648915E-009  0.2295135E+03  0.7561462E-02  0.1126983E+00
         -2   -1    0    0    0  501 -0.00000000000E+00  0.00000000000E+00  0.69940106126E+02  0.69940106126E+02  0.00000000000E+00 0. -1.
          2   -1    0    0  501    0  0.00000000000E+00 -0.00000000000E+00 -0.98016144123E+03  0.98016144123E+03  0.00000000000E+00 0.  1.
         25    2    1    2    0    0  0.20376157204E+03 -0.10021141029E+03 -0.60894926467E+03  0.66183675171E+03  0.12509026334E+03 0.  0.
          5    1    3    3  502    0  0.17670033043E+02 -0.96699000325E+00 -0.86530067964E+00  0.18204018311E+02  0.41800000000E+01 0.  1.
         -5    1    3    3    0  502  0.18609153899E+03 -0.99244420290E+02 -0.60808396399E+03  0.64363273340E+03  0.41800000000E+01 0.  1.
        -11    1    1    2    0    0 -0.14914126559E+03  0.54875448033E+02 -0.13893261784E+03  0.21108459014E+03  0.00000000000E+00 0.  1.
         11    1    1    2    0    0 -0.54620306448E+02  0.45335962260E+02 -0.16233945260E+03  0.17718020550E+03  0.00000000000E+00 0. -1.
</event>
<event>
 7    1  0.2648915E-009  0.1130080E+03  0.7561462E-02  0.1255099E+00
         -2   -1    0    0    0  501 -0.00000000000E+00  0.00000000000E+00  0.46634898215E+03  0.46634898215E+03  0.00000000000E+00 0.  1.
          2   -1    0    0  501    0  0.00000000000E+00 -0.00000000000E+00 -0.28091773556E+02  0.28091773556E+02  0.00000000000E+00 0. -1.
         25    2    1    2    0    0  0.34127007003E+02  0.12558644577E+02  0.23140553241E+03  0.26555440325E+03  0.12509295942E+03 0.  0.
          5    1    3    3  502    0  0.28830555243E+02 -0.54861238906E+02  0.10034167699E+03  0.11801220696E+03  0.41800000000E+01 0. -1.
         -5    1    3    3    0  502  0.52964517598E+01  0.67419883483E+02  0.13106385542E+03  0.14754219629E+03  0.41800000000E+01 0. -1.
        -11    1    1    2    0    0  0.21715920495E+02 -0.30542585469E+02  0.59907298157E+02  0.70663392945E+02  0.00000000000E+00 0. -1.
         11    1    1    2    0    0 -0.55842927498E+02  0.17983940892E+02  0.14694437803E+03  0.15822295951E+03  0.00000000000E+00 0.  1.
</event>
<event>
 7    1  0.2648915E-009  0.2603443E+03  0.7561462E-02  0.1106937E+00
          2   -1    0    0  501    0  0.00000000000E+00  0.00000000000E+00  0.88513869971E+03  0.88513869971E+03  0.00000000000E+00 0. -1.
         -2   -1    0    0    0  501 -0.00000000000E+00 -0.00000000000E+00 -0.10867268673E+03  0.10867268673E+03  0.00000000000E+00 0.  1.
         25    2    1    2    0    0  0.21525876844E+03 -0.12193062901E+03  0.63894321832E+03  0.69649115030E+03  0.12509224806E+03 0.  0.
          5    1    3    3  502    0  0.75950313534E+02  0.15410526808E+02  0.23828581897E+03  0.25060634147E+03  0.41800000000E+01 0. -1.
         -5    1    3    3    0  502  0.13930845490E+03 -0.13734115582E+03  0.40065739935E+03  0.44588480883E+03  0.41800000000E+01 0. -1.
        -11    1    1    2    0    0 -0.25735604135E+02  0.13591652247E+02  0.58165052823E+02  0.65040200652E+02  0.00000000000E+00 0. -1.
         11    1    1    2    0    0 -0.18952316430E+03  0.10833897676E+03  0.79357741836E+02  0.23228003548E+03  0.00000000000E+00 0.  1.
</event>
<event>
 7    1  0.2648915E-009  0.8280449E+02  0.7561462E-02  0.1321276E+00
         -3   -1    0    0    0  501 -0.00000000000E+00  0.00000000000E+00  0.90087339403E+03  0.90087339403E+03  0.00000000000E+00 0.  1.
          3   -1    0    0  501    0  0.00000000000E+00 -0.00000000000E+00 -0.18939272439E+02  0.18939272439E+02  0.00000000000E+00 0. -1.
         25    2    1    2    0    0  0.65752430999E+02  0.26378253161E+02  0.49035528340E+03  0.51099398511E+03  0.12508938579E+03 0.  0.
          5    1    3    3  502    0  0.28900566627E+02  0.29417711356E+02  0.35371378623E+02  0.54490837014E+02  0.41800000000E+01 0.  1.
         -5    1    3    3    0  502  0.36851864372E+02 -0.30394581951E+01  0.45498390478E+03  0.45650314810E+03  0.41800000000E+01 0.  1.
        -11    1    1    2    0    0 -0.47537690234E+02 -0.41630027726E+02  0.37390943379E+03  0.37921122858E+03  0.00000000000E+00 0.  1.
         11    1    1    2    0    0 -0.18214740765E+02  0.15251774566E+02  0.17669404403E+02  0.29607452786E+02  0.00000000000E+00 0. -1.
</event>
<event>
 7    1  0.2648915E-009  0.1201897E+03  0.7561462E-02  0.1242784E+00
          1   -1    0    0  501    0  0.00000000000E+00  0.00000000000E+00  0.18447918620E+03  0.18447918620E+03  0.00000000000E+00 0.  1.
         -1   -1    0    0    0  501 -0.00000000000E+00 -0.00000000000E+00 -0.86808802279E+02  0.86808802279E+02  0.00000000000E+00 0. -1.
         25    2    1    2    0    0  0.42504821336E+01  0.64750994893E+02  0.61481433941E+02  0.15374298397E+03  0.12508469316E+03 0.  0.
          5    1    3    3  502    0  0.40904921866E+02  0.83650579313E+02  0.20468161453E+02  0.95430865476E+02  0.41800000000E+01 0.  1.
         -5    1    3    3    0  502 -0.36654439732E+02 -0.18899584420E+02  0.41013272487E+02  0.58312118496E+02  0.41800000000E+01 0.  1.
        -11    1    1    2    0    0 -0.29971078297E+02  0.58864257133E+01  0.28847383556E+02  0.42012939435E+02  0.00000000000E+00 0.  1.
         11    1    1    2    0    0  0.25720596164E+02 -0.70637420606E+02  0.73415664292E+01  0.75532065075E+02  0.00000000000E+00 0. -1.
</event>
<event>
 7    1  0.2648915E-009  0.1292431E+03  0.7561462E-02  0.1228583E+00
         -1   -1    0    0    0  501 -0.00000000000E+00  0.00000000000E+00  0.42468513208E+03  0.42468513208E+03  0.00000000000E+00 0.  1.
          1   -1    0    0  501    0  0.00000000000E+00 -0.00000000000E+00 -0.58442120410E+02  0.58442120410E+02  0.00000000000E+00 0. -1.
         25    2    1    2    0    0 -0.84481640256E+02 -0.74659836306E+02  0.16686679013E+03  0.23706377985E+03  0.12507386365E+03 0.  0.
          5    1    3    3  502    0 -0.27647138653E+02 -0.41080669326E+02 -0.77908055663E+01  0.50300643330E+02  0.41800000000E+01 0. -1.
         -5    1    3    3    0  502 -0.56834501603E+02 -0.33579166980E+02  0.17465759570E+03  0.18676313652E+03  0.41800000000E+01 0. -1.
        -11    1    1    2    0    0  0.96832608528E+02  0.83171015112E+02  0.16544010055E+03  0.20896028020E+03  0.00000000000E+00 0. -1.
         11    1    1    2    0    0 -0.12350968272E+02 -0.85111788064E+01  0.33936120990E+02  0.37103192447E+02  0.00000000000E+00 0.  1.
</event>
<event>
 7    1  0.2648915E-009  0.1302327E+03  0.7561462E-02  0.1227111E+00
         -2   -1    0    0    0  501 -0.00000000000E+00  0.00000000000E+00  0.22153887774E+02  0.22153887774E+02  0.00000000000E+00 0.  1.
          2   -1    0    0  501    0  0.00000000000E+00 -0.00000000000E+00 -0.15623841597E+04  0.15623841597E+04  0.00000000000E+00 0. -1.
         25    2    1    2    0    0 -0.29320021055E+01  0.88687495359E+02 -0.13203752675E+04  0.13292522207E+04  0.12508617402E+03 0.  0.
          5    1    3    3  502    0  0.33813301402E+02 -0.87210132372E+01 -0.63795397830E+03  0.63892264496E+03  0.41800000000E+01 0. -1.
         -5    1    3    3    0  502 -0.36745303507E+02  0.97408508597E+02 -0.68242128918E+03  0.69032957578E+03  0.41800000000E+01 0. -1.
        -11    1    1    2    0    0  0.34518293430E+02 -0.94288649504E+01 -0.11309511980E+03  0.11862091804E+03  0.00000000000E+00 0. -1.
         11    1    1    2    0    0 -0.31586291325E+02 -0.79258630409E+02 -0.10675988466E+03  0.13666490868E+03  0.00000000000E+00 0.  1.
</event>
<event>
 7    1  0.2648915E-009  0.1077879E+03  0.7561462E-02  0.1264722E+00
          2   -1    0    0  501    0  0.00000000000E+00  0.00000000000E+00  0.63622430365E+03  0.63622430365E+03  0.00000000000E+00 0. -1.
         -2   -1    0    0    0  501 -0.00000000000E+00 -0.00000000000E+00 -0.19246064272E+02  0.19246064272E+02  0.00000000000E+00 0.  1.
         25    2    1    2    0    0 -0.57077712114E+01  0.82944688411E+01  0.31713604189E+03  0.34106299746E+03  0.12508925734E+03 0.  0.
          5    1    3    3  502    0  0.54495683625E+02  0.22378249551E+02  0.20008923374E+03  0.20862343935E+03  0.41800000000E+01 0.  1.
         -5    1    3    3    0  502 -0.60203454836E+02 -0.14083780710E+02  0.11704680815E+03  0.13243955811E+03  0.41800000000E+01 0.  1.
        -11    1    1    2    0    0 -0.33487559189E+02 -0.33961220782E+02  0.14664902131E+03  0.15420997565E+03  0.00000000000E+00 0. -1.
         11    1    1    2    0    0  0.39195330400E+02  0.25666751941E+02  0.15319317617E+03  0.16019739481E+03  0.00000000000E+00 0.  1.
</event>
<event>
 7    1  0.2648915E-009  0.1293876E+03  0.7561462E-02  0.1228367E+00
          2   -1    0    0  501    0  0.00000000000E+00  0.00000000000E+00  0.52692198526E+03  0.52692198526E+03  0.00000000000E+00 0.  1.
         -2   -1    0    0    0  501 -0.00000000000E+00 -0.00000000000E+00 -0.48462534951E+02  0.48462534951E+02  0.00000000000E+00 0. -1.
         25    2    1    2    0    0  0.96906451402E+02 -0.50567843169E+02  0.18237513882E+03  0.24669149900E+03  0.12509211540E+03 0.  0.
          5    1    3    3  502    0 -0.67841239986E+01 -0.27930770223E+02  0.12010844121E+03  0.12357047509E+03  0.41800000000E+01 0. -1.
         -5    1    3    3    0  502  0.10369057540E+03 -0.22637072946E+02  0.62266697608E+02  0.12312102391E+03  0.41800000000E+01 0. -1.
        -11    1    1    2    0    0  0.59215067180E+01  0.12562843781E+02  0.10246948206E+01  0.13926208570E+02  0.00000000000E+00 0. -1.
         11    1    1    2    0    0 -0.10282795812E+03  0.38004999388E+02  0.29505961667E+03  0.31476681264E+03  0.00000000000E+00 0.  1.
</event>
<event>
 7    1  0.2648915E-009  0.1223472E+03  0.7561462E-02  0.1239274E+00
          1   -1    0    0  501    0  0.00000000000E+00  0.00000000000E+00  0.78176057179E+02  0.78176057179E+02  0.00000000000E+00 0. -1.
         -1   -1    0    0    0  501 -0.00000000000E+00 -0.00000000000E+00 -0.22884626547E+03  0.22884626547E+03  0.00000000000E+00 0.  1.
         25    2    1    2    0    0  0.10736557677E+02  0.74049574604E+02 -0.11250995876E+03  0.18413548392E+03  0.12509505365E+03 0.  0.
          5    1    3    3  502    0 -0.37004232833E+02  0.86396288343E+02 -0.88363363260E+02  0.12907047785E+03  0.41800000000E+01 0. -1.
         -5    1    3    3    0  502  0.47740790510E+02 -0.12346713739E+02 -0.24146595500E+02  0.55065006064E+02  0.41800000000E+01 0. -1.
        -11    1    1    2    0    0  0.22379476149E+02 -0.27972200238E+01  0.15828734831E+02  0.27553842543E+02  0.00000000000E+00 0. -1.
         11    1    1    2    0    0 -0.33116033826E+02 -0.71252354580E+02 -0.53988984363E+02  0.95332996188E+02  0.00000000000E+00 0.  1.
</event>
<event>
 7    1  0.2648915E-009  0.1556330E+03  0.7561462E-02  0.1193717E+00
         -1   -1    0    0    0  501 -0.00000000000E+00  0.00000000000E+00  0.35281675714E+03  0.35281675714E+03  0.00000000000E+00 0.  1.
          1   -1    0    0  501    0  0.00000000000E+00 -0.00000000000E+00 -0.96059320984E+02  0.96059320984E+02  0.00000000000E+00 0. -1.
         25    2    1    2    0    0  0.48950367375E+02 -0.12144916348E+03  0.21836949077E+03  0.28368839215E+03  0.12509129291E+03 0.  0.
          5    1    3    3  502    0 -0.16753450522E+02  0.15682661673E+02  0.58663831201E+02  0.63131145029E+02  0.41800000000E+01 0. -1.
         -5    1    3    3    0  502  0.65703817897E+02 -0.13713182516E+03  0.15970565957E+03  0.22055724712E+03  0.41800000000E+01 0. -1.
        -11    1    1    2    0    0  0.12564476099E+01  0.40824172264E+02  0.55265546005E+02  0.68720246485E+02  0.00000000000E+00 0.  1.
         11    1    1    2    0    0 -0.50206814985E+02  0.80624991219E+02 -0.16877600617E+02  0.96467439495E+02  0.00000000000E+00 0. -1.
</event>
<event>
 7    1  0.2648915E-009  0.1147906E+03  0.7561462E-02  0.1251947E+00
         -1   -1    0    0    0  501 -0.00000000000E+00  0.00000000000E+00  0.23790745744E+03  0.23790745744E+03  0.00000000000E+00 0.  1.
          1   -1    0    0  501    0  0.00000000000E+00 -0.00000000000E+00 -0.92952781335E+02  0.92952781335E+02  0.00000000000E+00 0. -1.
         25    2    1    2    0    0  0.81831206998E+02 -0.44800254955E-01  0.29449102940E+02  0.15235181105E+03  0.12508987257E+03 0.  0.
          5    1    3    3  502    0  0.44024209064E+02  0.42482479460E+02  0.61551291928E+02  0.86884555490E+02  0.41800000000E+01 0.  1.
         -5    1    3    3    0  502  0.37806997934E+02 -0.42527279715E+02 -0.32102188987E+02  0.65467255560E+02  0.41800000000E+01 0.  1.
        -11    1    1    2    0    0 -0.21866178079E+02  0.35387248864E+02  0.98401051901E+02  0.10683236467E+03  0.00000000000E+00 0.  1.
         11    1    1    2    0    0 -0.59965028920E+02 -0.35342448609E+02  0.17104521261E+02  0.71676063051E+02  0.00000000000E+00 0. -1.
</event>
<event>
 7    1  0.2648915E-009  0.1952878E+03  0.7561462E-02  0.1153777E+00
         -2   -1    0    0    0  501 -0.00000000000E+00  0.00000000000E+00  0.89071001229E+02  0.89071001229E+02  0.00000000000E+00 0.  1.
          2   -1    0    0  501    0  0.00000000000E+00 -0.00000000000E+00 -0.48373275555E+03  0.48373275555E+03  0.00000000000E+00 0. -1.
         25    2    1    2    0    0 -0.89409422996E+02  0.14152512448E+03 -0.28224677562E+03  0.35118939313E+03  0.12508933495E+03 0.  0.
          5    1    3    3  502    0 -0.11547537670E+03  0.78052271907E+02 -0.20303422204E+03  0.24630689697E+03  0.41800000000E+01 0. -1.
         -5    1    3    3    0  502  0.26065953705E+02  0.63472852576E+02 -0.79212553579E+02  0.10488249616E+03  0.41800000000E+01 0. -1.
        -11    1    1    2    0    0  0.22048314557E+02  0.36493824873E+01  0.52704543572E+01  0.22961355719E+02  0.00000000000E+00 0.  1.
         11    1    1    2    0    0  0.67361108440E+02 -0.14517450697E+03 -0.11768543306E+03  0.19865300793E+03  0.00000000000E+00 0. -1.
</event>
<event>
 7    1  0.2648915E-009  0.1553824E+03  0.7561462E-02  0.1194011E+00
         -1   -1    0    0    0  501 -0.00000000000E+00  0.00000000000E+00  0.30208137145E+02  0.30208137145E+02  0.00000000000E+00 0.  1.
          1   -1    0    0  501    0  0.00000000000E+00 -0.00000000000E+00 -0.12429651176E+04  0.12429651176E+04  0.00000000000E+00 0. -1.
         25    2    1    2    0    0 -0.14430865205E+03 -0.41401137873E+02 -0.81508463551E+03  0.83818088680E+03  0.12508075260E+03 0.  0.
          5    1    3    3  502    0 -0.73418069829E+02 -0.46343498859E+02 -0.67957629998E+03  0.68511265698E+03  0.41800000000E+01 0.  1.
         -5    1    3    3    0  502 -0.70890582225E+02  0.49423609855E+01 -0.13550833554E+03  0.15306822982E+03  0.41800000000E+01 0.  1.
        -11    1    1    2    0    0  0.11600007791E+03  0.21303025505E+02 -0.37600556655E+03  0.39406855121E+03  0.00000000000E+00 0. -1.
         11    1    1    2    0    0  0.28308574146E+02  0.20098112368E+02 -0.21666778393E+02  0.40923816744E+02  0.00000000000E+00 0.  1.
</event>
<event>
 7    1  0.2648915E-009  0.1129410E+03  0.7561462E-02  0.1255219E+00
         -2   -1    0    0    0  501 -0.00000000000E+00  0.00000000000E+00  0.76574987024E+02  0.76574987024E+02  0.00000000000E+00 0.  1.
          2   -1    0    0  501    0  0.00000000000E+00 -0.00000000000E+00 -0.23530558895E+03  0.23530558895E+03  0.00000000000E+00 0. -1.
         25    2    1    2    0    0  0.65132050811E+02 -0.63602815945E+01 -0.12564232896E+03  0.18898808037E+03  0.12509141646E+03 0.  0.
          5    1    3    3  502    0 -0.23246209775E+02  0.34337309694E+02 -0.53358959103E+02  0.67705893557E+02  0.41800000000E+01 0.  1.
         -5    1    3    3    0  502  0.88378260586E+02 -0.40697591288E+02 -0.72283369857E+02  0.12128218682E+03  0.41800000000E+01 0.  1.
        -11    1    1    2    0    0 -0.25731756087E+02 -0.25440417824E+02  0.26386773158E+02  0.44783924885E+02  0.00000000000E+00 0.  1.
         11    1    1    2    0    0 -0.39400294723E+02  0.31800699419E+02 -0.59475046122E+02  0.78108570714E+02  0.00000000000E+00 0. -1.
</event>
<event>
 7    1  0.2648915E-009  0.8800933E+02  0.7561462E-02  0.1307745E+00
         -1   -1    0    0    0  501 -0.00000000000E+00  0.00000000000E+00  0.12244605420E+03  0.12244605420E+03  0.00000000000E+00 0.  1.
          1   -1    0    0  501    0  0.00000000000E+00 -0.00000000000E+00 -0.15758595013E+03  0.15758595013E+03  0.00000000000E+00 0. -1.
         25    2    1    2    0    0  0.16561332930E+02  0.30812195549E+02  0.59102729611E+02  0.14270587820E+03  0.12509262921E+03 0.  0.
          5    1    3    3  502    0  0.11488382404E+02 -0.46274869453E+02  0.41530068612E+02  0.63368489583E+02  0.41800000000E+01 0. -1.
         -5    1    3    3    0  502  0.50729505264E+01  0.77087065002E+02  0.17572660999E+02  0.79337388615E+02  0.41800000000E+01 0. -1.
        -11    1    1    2    0    0  0.75044563559E+01 -0.24902363147E+02 -0.10653516651E+03  0.10966396974E+03  0.00000000000E+00 0. -1.
         11    1    1    2    0    0 -0.24065789286E+02 -0.59098324019E+01  0.12292540972E+02  0.27662156397E+02  0.00000000000E+00 0.  1.
</event>
<event>
 7    1  0.2648915E-009  0.1884906E+03  0.7561462E-02  0.1159830E+00
          1   -1    0    0  501    0  0.00000000000E+00  0.00000000000E+00  0.51999641325E+03  0.51999641325E+03  0.00000000000E+00 0. -1.
         -1   -1    0    0    0  501 -0.00000000000E+00 -0.00000000000E+00 -0.71682526720E+02  0.71682526720E+02  0.00000000000E+00 0.  1.
         25    2    1    2    0    0 -0.14173298624E+03 -0.69710722066E+02  0.27531632980E+03  0.34117001149E+03  0.12510024430E+03 0.  0.
          5    1    3    3  502    0  0.26746349662E+01 -0.55948037439E+02  0.83750962202E+02  0.10084162154E+03  0.41800000000E+01 0.  1.
         -5    1    3    3    0  502 -0.14440762121E+03 -0.13762684628E+02  0.19156536760E+03  0.24032838995E+03  0.41800000000E+01 0.  1.
        -11    1    1    2    0    0  0.72099513962E+02 -0.65809973079E+01  0.42045587086E+02  0.83722642293E+02  0.00000000000E+00 0. -1.
         11    1    1    2    0    0  0.69633472282E+02  0.76291719374E+02  0.13095196965E+03  0.16678628619E+03  0.00000000000E+00 0.  1.
</event>
<event>
 7    1  0.2648915E-009  0.1427852E+03  0.7561462E-02  0.1209630E+00
         -1   -1    0    0    0  501 -0.00000000000E+00  0.00000000000E+00  0.11811121167E+03  0.11811121167E+03  0.00000000000E+00 0.  1.
          1   -1    0    0  501    0  0.00000000000E+00 -0.00000000000E+00 -0.22100547088E+03  0.22100547088E+03  0.00000000000E+00 0. -1.
         25    2    1    2    0    0 -0.11571827992E+03 -0.20308858807E+02 -0.28162012382E+02  0.17390747584E+03  0.12509013214E+03 0.  0.
          5    1    3    3  502    0  0.14085471350E+02 -0.19599378632E+02  0.23679976747E+02  0.34069779052E+02  0.41800000000E+01 0.  1.
         -5    1    3    3    0  502 -0.12980375127E+03 -0.70948017525E+00 -0.51841989129E+02  0.13983769679E+03  0.41800000000E+01 0.  1.
        -11    1    1    2    0    0  0.88494269807E+02  0.40486598842E+02 -0.85617155821E+02  0.12961750594E+03  0.00000000000E+00 0. -1.
         11    1    1    2    0    0  0.27224010114E+02 -0.20177740035E+02  0.10884908995E+02  0.35591700766E+02  0.00000000000E+00 0.  1.
</event>
<event>
 7    1  0.2648915E-009  0.1593282E+03  0.7561462E-02  0.1189457E+00
          2   -1    0    0  501    0  0.00000000000E+00  0.00000000000E+00  0.83437802201E+03  0.83437802201E+03  0.00000000000E+00 0. -1.
         -2   -1    0    0    0  501 -0.00000000000E+00 -0.00000000000E+00 -0.36595475488E+02  0.36595475488E+02  0.00000000000E+00 0.  1.
         25    2    1    2    0    0  0.12963486955E+03 -0.35580848726E+02  0.51275693823E+03  0.54464709884E+03  0.12509831479E+03 0.  0.
          5    1    3    3  502    0  0.44848206440E+02  0.46652736147E+02  0.20310713599E+03  0.21320839688E+03  0.41800000000E+01 0.  1.
         -5    1    3    3    0  502  0.84786663112E+02 -0.82233584872E+02  0.30964980225E+03  0.33143870196E+03  0.41800000000E+01 0.  1.
        -11    1    1    2    0    0 -0.75187645272E+02  0.29754479533E+02  0.24636568653E+03  0.25929628334E+03  0.00000000000E+00 0. -1.
         11    1    1    2    0    0 -0.54447224281E+02  0.58263691928E+01  0.38659921756E+02  0.67030115322E+02  0.00000000000E+00 0.  1.
</event>
<event>
 7    1  0.2648915E-009  0.8473619E+02  0.7561462E-02  0.1316124E+00
         -1   -1    0    0    0  501 -0.00000000000E+00  0.00000000000E+00  0.79222750146E+02  0.79222750146E+02  0.00000000000E+00 0.  1.
          1   -1    0    0  501    0  0.00000000000E+00 -0.00000000000E+00 -0.20900197252E+03  0.20900197252E+03  0.00000000000E+00 0. -1.
         25    2    1    2    0    0 -0.42394770360E+02  0.52388663416E+02 -0.81061650130E+02  0.16358767144E+03  0.12509215210E+03 0.  0.
          5    1    3    3  502    0 -0.10000905646E+02  0.18685363100E+02 -0.10754826184E+03  0.10969622570E+03  0.41800000000E+01 0.  1.
         -5    1    3    3    0  502 -0.32393864714E+02  0.33703300315E+02  0.26486611714E+02  0.53891445734E+02  0.41800000000E+01 0.  1.
        -11    1    1    2    0    0  0.55171114776E+02 -0.92434413491E+01 -0.55885389745E+02  0.79072560984E+02  0.00000000000E+00 0.  1.
         11    1    1    2    0    0 -0.12776344416E+02 -0.43145222066E+02  0.71678174976E+01  0.45564490247E+02  0.00000000000E+00 0. -1.
</event>
<event>
 7    1  0.2648915E-009  0.1252949E+03  0.7561462E-02  0.1234609E+00
          2   -1    0    0  501    0  0.00000000000E+00  0.00000000000E+00  0.21684527186E+04  0.21684527186E+04  0.00000000000E+00 0. -1.
         -2   -1    0    0    0  501 -0.00000000000E+00 -0.00000000000E+00 -0.82156472491E+01  0.82156472491E+01  0.00000000000E+00 0.  1.
         25    2    1    2    0    0 -0.45189195774E+02 -0.45065210504E+02  0.15645127641E+04  0.15708024753E+04  0.12508913123E+03 0.  0.
          5    1    3    3  502    0 -0.32356693707E+02 -0.88829089269E+02  0.10536418232E+04  0.10578828512E+04  0.41800000000E+01 0.  1.
         -5    1    3    3    0  502 -0.12832502067E+02  0.43763878765E+02  0.51087094083E+03  0.51291962409E+03  0.41800000000E+01 0.  1.
        -11    1    1    2    0    0  0.71694065195E+02  0.21912621827E+02  0.42316641591E+03  0.42975576498E+03  0.00000000000E+00 0.  1.
         11    1    1    2    0    0 -0.26504869421E+02  0.23152588677E+02  0.17255789137E+03  0.17611012560E+03  0.00000000000E+00 0. -1.
</event>
<event>
 7    1  0.2648915E-009  0.1055328E+03  0.7561462E-02  0.1269073E+00
          2   -1    0    0  501    0  0.00000000000E+00  0.00000000000E+00  0.95601651007E+03  0.95601651007E+03  0.00000000000E+00 0.  1.
         -2   -1    0    0    0  501 -0.00000000000E+00 -0.00000000000E+00 -0.12384892719E+02  0.12384892719E+02  0.00000000000E+00 0. -1.
         25    2    1    2    0    0 -0.49381166361E+01 -0.66540581206E+01  0.56670389536E+03  0.58040482642E+03  0.12509115088E+03 0.  0.
          5    1    3    3  502    0 -0.49549054590E+02 -0.42865007634E+02  0.35407418890E+03  0.36010904090E+03  0.41800000000E+01 0. -1.
         -5    1    3    3    0  502  0.44610937954E+02  0.36210949514E+02  0.21262970645E+03  0.22029578551E+03  0.41800000000E+01 0. -1.
        -11    1    1    2    0    0  0.36766495310E+02  0.30713357977E+02  0.26190409496E+03  0.26624958308E+03  0.00000000000E+00 0.  1.
         11    1    1    2    0    0 -0.31828378674E+02 -0.24059299856E+02  0.11502362704E+03  0.12174699329E+03  0.00000000000E+00 0. -1.
</event>
<event>
 7    1  0.2648915E-009  0.1044715E+03  0.7561462E-02  0.1271165E+00
         -2   -1    0    0    0  501 -0.00000000000E+00  0.00000000000E+00  0.18605606367E+03  0.18605606367E+03  0.00000000000E+00 0.  1.
          2   -1    0    0  501    0  0.00000000000E+00 -0.00000000000E+00 -0.99632721240E+02  0.99632721240E+02  0.00000000000E+00 0. -1.
         25    2    1    2    0    0 -0.73337146855E+02 -0.27736544476E+02  0.71739751960E+02  0.16414142252E+03  0.12509261197E+03 0.  0.
          5    1    3    3  502    0 -0.73730236477E+02  0.11424955418E+02 -0.80507044826E+01  0.75159587677E+02  0.41800000000E+01 0.  1.
         -5    1    3    3    0  502  0.39308962192E+00 -0.39161499893E+02  0.79790456442E+02  0.88981834846E+02  0.41800000000E+01 0.  1.
        -11    1    1    2    0    0  0.21431011618E+02  0.36366174936E+02  0.44280233383E+02  0.61176188235E+02  0.00000000000E+00 0.  1.
         11    1    1    2    0    0  0.51906135237E+02 -0.86296304608E+01 -0.29596642911E+02  0.60371174154E+02  0.00000000000E+00 0. -1.
</event>
<event>
 7    1  0.2648915E-009  0.1597244E+03  0.7561462E-02  0.1189008E+00
         -3   -1    0    0    0  501 -0.00000000000E+00  0.00000000000E+00  0.35505349869E+03  0.35505349869E+03  0.00000000000E+00 0.  1.
          3   -1    0    0  501    0  0.00000000000E+00 -0.00000000000E+00 -0.83587924866E+02  0.83587924866E+02  0.00000000000E+00 0. -1.
         25    2    1    2    0    0  0.12387184636E+03  0.41877404743E+02  0.18535377108E+03  0.25904119444E+03  0.12509343953E+03 0.  0.
          5    1    3    3  502    0  0.69077474290E+02 -0.27023202651E+02  0.29381636213E+02  0.79891826130E+02  0.41800000000E+01 0. -1.
         -5    1    3    3    0  502  0.54794372072E+02  0.68900607394E+02  0.15597213487E+03  0.17914936831E+03  0.41800000000E+01 0. -1.
        -11    1    1    2    0    0 -0.14821146433E+01  0.19880463873E+02  0.16346691035E+02  0.25780686868E+02  0.00000000000E+00 0.  1.
         11    1    1    2    0    0 -0.12238973172E+03 -0.61757868615E+02  0.69765111708E+02  0.15381954225E+03  0.00000000000E+00 0. -1.
</event>
<event>
 7    1  0.2648915E-009  0.9897794E+02  0.7561462E-02  0.1282460E+00
          1   -1    0    0  501    0  0.00000000000E+00  0.00000000000E+00  0.29117658511E+03  0.29117658511E+03  0.00000000000E+00 0. -1.
         -1   -1    0    0    0  501 -0.00000000000E+00 -0.00000000000E+00 -0.45270222538E+02  0.45270222538E+02  0.00000000000E+00 0.  1.
         25    2    1    2    0    0 -0.22115561837E+02  0.14175101187E+02  0.98889302852E+02  0.16160760487E+03  0.12509153515E+03 0.  0.
          5    1    3    3  502    0  0.95273010831E+01  0.63642286559E+02  0.72685094669E+02  0.97168438762E+02  0.41800000000E+01 0.  1.
         -5    1    3    3    0  502 -0.31642862921E+02 -0.49467185372E+02  0.26204208183E+02  0.64439166110E+02  0.41800000000E+01 0.  1.
        -11    1    1    2    0    0  0.18843253742E+00 -0.40407815193E+02  0.13098648782E+03  0.13707766786E+03  0.00000000000E+00 0. -1.
         11    1    1    2    0    0  0.21927129300E+02  0.26232714006E+02  0.16030571900E+02  0.37761534912E+02  0.00000000000E+00 0.  1.
</event>
<event>
 7    1  0.2648915E-009  0.3241965E+03  0.7561462E-02  0.1073734E+00
          2   -1    0    0  501    0  0.00000000000E+00  0.00000000000E+00  0.38533410800E+03  0.38533410800E+03  0.00000000000E+00 0.  1.
         -2   -1    0    0    0  501 -0.00000000000E+00 -0.00000000000E+00 -0.30393267722E+03  0.30393267722E+03  0.00000000000E+00 0. -1.
         25    2    1    2    0    0 -0.30474881575E+03  0.54686385721E+02 -0.65408630993E+02  0.34027604081E+03  0.12508818274E+03 0.  0.
          5    1    3    3  502    0 -0.47864949492E+02  0.57398166641E+02  0.11509591237E+01  0.74862540904E+02  0.41800000000E+01 0. -1.
         -5    1    3    3    0  502 -0.25688386626E+03 -0.27117809195E+01 -0.66559590117E+02  0.26541349991E+03  0.41800000000E+01 0. -1.
        -11    1    1    2    0    0  0.66564018854E+02 -0.40680812942E+02  0.36714325818E+02  0.86218552921E+02  0.00000000000E+00 0.  1.
         11    1    1    2    0    0  0.23818479689E+03 -0.14005572779E+02  0.11009573596E+03  0.26277219148E+03  0.00000000000E+00 0. -1.
</event>
<event>
 7    1  0.2648915E-009  0.8327287E+02  0.7561462E-02  0.1320012E+00
         -1   -1    0    0    0  501 -0.00000000000E+00  0.00000000000E+00  0.62119121475E+03  0.62119121475E+03  0.00000000000E+00 0.  1.
          1   -1    0    0  501    0  0.00000000000E+00 -0.00000000000E+00 -0.33183586923E+02  0.33183586923E+02  0.00000000000E+00 0. -1.
         25    2    1    2    0    0 -0.59595253630E+02  0.14510333201E+02  0.15822035732E+03  0.21081246450E+03  0.12508425039E+03 0.  0.
          5    1    3    3  502    0 -0.14459109378E+02  0.20094014425E+02  0.16297164406E+03  0.16489410064E+03  0.41800000000E+01 0.  1.
         -5    1    3    3    0  502 -0.45136144252E+02 -0.55836812232E+01 -0.47512867395E+01  0.45918363860E+02  0.41800000000E+01 0.  1.
        -11    1    1    2    0    0  0.75510241734E+02 -0.20206460271E+01  0.40286859979E+03  0.40988899511E+03  0.00000000000E+00 0. -1.
         11    1    1    2    0    0 -0.15914988103E+02 -0.12489687174E+02  0.26918670716E+02  0.33673342055E+02  0.00000000000E+00 0.  1.
</event>
<event>
 7    1  0.2648915E-009  0.9731882E+02  0.7561462E-02  0.1286037E+00
         -1   -1    0    0    0  501 -0.00000000000E+00  0.00000000000E+00  0.70236065689E+03  0.70236065689E+03  0.00000000000E+00 0.  1.
          1   -1    0    0  501    0  0.00000000000E+00 -0.00000000000E+00 -0.18605790874E+02  0.18605790874E+02  0.00000000000E+00 0. -1.
         25    2    1    2    0    0 -0.77014291519E+01 -0.33755220432E+02  0.36459362571E+03  0.38700843886E+03  0.12509313697E+03 0.  0.
          5    1    3    3  502    0 -0.12945732503E+02 -0.66820067124E+02  0.10479234668E+03  0.12502568409E+03  0.41800000000E+01 0. -1.
         -5    1    3    3    0  502  0.52443033508E+01  0.33064846692E+02  0.25980127903E+03  0.26198275476E+03  0.41800000000E+01 0. -1.
        -11    1    1    2    0    0 -0.37235187098E+02  0.29625304497E+02  0.10781969817E+03  0.11785247192E+03  0.00000000000E+00 0.  1.
         11    1    1    2    0    0  0.44936616250E+02  0.41299159354E+01  0.21134154214E+03  0.21610553699E+03  0.00000000000E+00 0. -1.
</event>
<event>
 7    1  0.2648915E-009  0.4898091E+02  0.7561462E-02  0.1450917E+00
         -2   -1    0    0    0  501 -0.00000000000E+00  0.00000000000E+00  0.44937620939E+02  0.44937620939E+02  0.00000000000E+00 0.  1.
          2   -1    0    0  501    0  0.00000000000E+00 -0.00000000000E+00 -0.35304234162E+03  0.35304234162E+03  0.00000000000E+00 0. -1.
         25    2    1    2    0    0  0.23515727857E+02 -0.95335867535E+01 -0.26466668777E+03  0.29384365042E+03  0.12510698039E+03 0.  0.
          5    1    3    3  502    0 -0.21475266881E-01  0.12824972922E+02  0.10277365587E+02  0.16958096446E+02  0.41800000000E+01 0.  1.
         -5    1    3    3    0  502  0.23537203124E+02 -0.22358559676E+02 -0.27494405336E+03  0.27688555398E+03  0.41800000000E+01 0.  1.
        -11    1    1    2    0    0  0.11313440457E+02 -0.68766352995E+01  0.23466980147E+02  0.26944038399E+02  0.00000000000E+00 0.  1.
         11    1    1    2    0    0 -0.34829168315E+02  0.16410222053E+02 -0.66905013053E+02  0.77192273739E+02  0.00000000000E+00 0. -1.
</event>
<event>
 7    1  0.2648915E-009  0.1890526E+03  0.7561462E-02  0.1159319E+00
         -3   -1    0    0    0  501 -0.00000000000E+00  0.00000000000E+00  0.31178473461E+02  0.31178473461E+02  0.00000000000E+00 0.  1.
          3   -1    0    0  501    0  0.00000000000E+00 -0.00000000000E+00 -0.13509945044E+04  0.13509945044E+04  0.00000000000E+00 0. -1.
         25    2    1    2    0    0  0.88692810930E+02  0.14800170761E+03 -0.75776713659E+03  0.78716587213E+03  0.12509259287E+03 0.  0.
          5    1    3    3  502    0 -0.15969495119E+02  0.77093035884E+02 -0.40001825761E+03  0.40771367377E+03  0.41800000000E+01 0.  1.
         -5    1    3    3    0  502  0.10466230605E+03  0.70908671730E+02 -0.35774887898E+03  0.37945219837E+03  0.41800000000E+01 0.  1.
        -11    1    1    2    0    0 -0.64207208853E+02 -0.11457525957E+03 -0.51858053698E+03  0.53495404392E+03  0.00000000000E+00 0. -1.
         11    1    1    2    0    0 -0.24485602077E+02 -0.33426448049E+02 -0.43468357320E+02  0.60053061757E+02  0.00000000000E+00 0.  1.
</event>
<event>
 7    1  0.2648915E-009  0.8952773E+02  0.7561462E-02  0.1303999E+00
         -2   -1    0    0    0  501 -0.00000000000E+00  0.00000000000E+00  0.91089987597E+02  0.91089987597E+02  0.00000000000E+00 0.  1.
          2   -1    0    0  501    0  0.00000000000E+00 -0.00000000000E+00 -0.15006231534E+03  0.15006231534E+03  0.00000000000E+00 0. -1.
         25    2    1    2    0    0  0.27072917532E+02  0.31096299442E+02 -0.50385522668E+02  0.14101345911E+03  0.12508465954E+03 0.  0.
          5    1    3    3  502    0  0.47699489933E+02  0.43017109904E+02 -0.80062204681E+02  0.10272848730E+03  0.41800000000E+01 0. -1.
         -5    1    3    3    0  502 -0.20626572401E+02 -0.11920810462E+02  0.29676682013E+02  0.38284971809E+02  0.41800000000E+01 0. -1.
        -11    1    1    2    0    0  0.27530192888E+02  0.26589003727E+00 -0.22611839436E+02  0.35626921010E+02  0.00000000000E+00 0. -1.
         11    1    1    2    0    0 -0.54603110420E+02 -0.31362189479E+02  0.14025034365E+02  0.64511922816E+02  0.00000000000E+00 0.  1.
</event>
<event>
 7    1  0.2648915E-009  0.9222149E+02  0.7561462E-02  0.1297559E+00
          2   -1    0    0  501    0  0.00000000000E+00  0.00000000000E+00  0.13115494885E+03  0.13115494885E+03  0.00000000000E+00 0. -1.
         -2   -1    0    0    0  501 -0.00000000000E+00 -0.00000000000E+00 -0.93347384968E+02  0.93347384968E+02  0.00000000000E+00 0.  1.
         25    2    1    2    0    0 -0.11180001873E+02 -0.20471041449E+01  0.36596424615E+02  0.13083413141E+03  0.12509631717E+03 0.  0.
          5    1    3    3  502    0 -0.44709439220E+02  0.21705153682E+02 -0.25686607391E+02  0.56100996881E+02  0.41800000000E+01 0.  1.
         -5    1    3    3    0  502  0.33529437348E+02 -0.23752257827E+02  0.62283032006E+02  0.74733134529E+02  0.41800000000E+01 0.  1.
        -11    1    1    2    0    0 -0.28484794922E+02  0.32531540879E+02  0.48449359213E+01  0.43510436654E+02  0.00000000000E+00 0.  1.
         11    1    1    2    0    0  0.39664796795E+02 -0.30484436734E+02 -0.36337966491E+01  0.50157765758E+02  0.00000000000E+00 0. -1.
</event>
<event>
 7    1  0.2648915E-009  0.9371904E+02  0.7561462E-02  0.1294087E+00
         -1   -1    0    0    0  501 -0.00000000000E+00  0.00000000000E+00  0.11700771014E+03  0.11700771014E+03  0.00000000000E+00 0.  1.
          1   -1    0    0  501    0  0.00000000000E+00 -0.00000000000E+00 -0.22101910135E+03  0.22101910135E+03  0.00000000000E+00 0. -1.
         25    2    1    2    0    0 -0.55618324498E+01  0.61549109650E+02 -0.15915803880E+03  0.21165966974E+03  0.12509719262E+03 0.  0.
          5    1    3    3  502    0 -0.30573310607E+02  0.58968667586E+02 -0.19015139481E+02  0.69217620646E+02  0.41800000000E+01 0.  1.
         -5    1    3    3    0  502  0.25011478157E+02  0.25804420639E+01 -0.14014289932E+03  0.14244204910E+03  0.41800000000E+01 0.  1.
        -11    1    1    2    0    0  0.56560547314E+01 -0.78369625614E+02  0.69004981461E+02  0.10457282936E+03  0.00000000000E+00 0.  1.
         11    1    1    2    0    0 -0.94222281645E-01  0.16820515963E+02 -0.13858333870E+02  0.21794312395E+02  0.00000000000E+00 0. -1.
</event>
<event>
 7    1  0.2648915E-009  0.1678612E+03  0.7561462E-02  0.1180097E+00
          2   -1    0    0  501    0  0.00000000000E+00  0.00000000000E+00  0.19612181347E+04  0.19612181347E+04  0.00000000000E+00 0.  1.
         -2   -1    0    0    0  501 -0.00000000000E+00 -0.00000000000E+00 -0.16241926401E+02  0.16241926401E+02  0.00000000000E+00 0. -1.
         25    2    1    2    0    0 -0.32911329436E+02  0.13041296231E+03  0.12589808549E+04  0.12723094683E+04  0.12509154132E+03 0.  0.
          5    1    3    3  502    0 -0.71705500720E+02  0.10716642062E+03  0.10790447037E+04  0.10867296193E+04  0.41800000000E+01 0. -1.
         -5    1    3    3    0  502  0.38794171284E+02  0.23246541695E+02  0.17993615125E+03  0.18557984900E+03  0.41800000000E+01 0. -1.
        -11    1    1    2    0    0 -0.11285080333E+02 -0.11336044400E+03  0.43156403335E+03  0.44634679139E+03  0.00000000000E+00 0.  1.
         11    1    1    2    0    0  0.44196409770E+02 -0.17052518315E+02  0.25443132003E+03  0.25880380142E+03  0.00000000000E+00 0. -1.
</event>
<event>
 7    1  0.2648915E-009  0.1650181E+03  0.7561462E-02  0.1183145E+00
         -1   -1    0    0    0  501 -0.00000000000E+00  0.00000000000E+00  0.70906559191E+02  0.70906559191E+02  0.00000000000E+00 0.  1.
          1   -1    0    0  501    0  0.00000000000E+00 -0.00000000000E+00 -0.39080958263E+03  0.39080958263E+03  0.00000000000E+00 0. -1.
         25    2    1    2    0    0 -0.92620071953E+02 -0.83830857929E+02 -0.14627378169E+03  0.22946013751E+03  0.12509934064E+03 0.  0.
          5    1    3    3  502    0 -0.12352603374E+03 -0.74080486270E+02 -0.12056657385E+03  0.18788392850E+03  0.41800000000E+01 0. -1.
         -5    1    3    3    0  502  0.30905961787E+02 -0.97503716588E+01 -0.25707207837E+02  0.41576209017E+02  0.41800000000E+01 0. -1.
        -11    1    1    2    0    0  0.26166068106E+01  0.60135562945E+02 -0.55559389884E+02  0.81914457613E+02  0.00000000000E+00 0.  1.
         11    1    1    2    0    0  0.90003465142E+02  0.23695294984E+02 -0.11806985186E+03  0.15034154669E+03  0.00000000000E+00 0. -1.
</event>
<event>
 7    1  0.2648915E-009  0.1965714E+03  0.7561462E-02  0.1152664E+00
          2   -1    0    0  501    0  0.00000000000E+00  0.00000000000E+00  0.55464367016E+03  0.55464367016E+03  0.00000000000E+00 0.  1.
         -2   -1    0    0    0  501 -0.00000000000E+00 -0.00000000000E+00 -0.94927410323E+02  0.94927410323E+02  0.00000000000E+00 0. -1.
         25    2    1    2    0    0 -0.96438465321E+02 -0.13755570906E+03  0.79308775665E+02  0.22396326495E+03  0.12509081286E+03 0.  0.
          5    1    3    3  502    0  0.29436738558E+02 -0.17107188098E+02  0.56422960220E+01  0.34763276111E+02  0.41800000000E+01 0.  1.
         -5    1    3    3    0  502 -0.12587520388E+03 -0.12044852097E+03  0.73666479643E+02  0.18919998884E+03  0.41800000000E+01 0.  1.
        -11    1    1    2    0    0  0.68052742438E+02  0.14041954090E+03  0.35342562371E+03  0.38633986944E+03  0.00000000000E+00 0.  1.
         11    1    1    2    0    0  0.28385722883E+02 -0.28638318374E+01  0.26981860455E+02  0.39267946088E+02  0.00000000000E+00 0. -1.
</event>
<event>
 7    1  0.2648915E-009  0.9083607E+02  0.7561462E-02  0.1300840E+00
          2   -1    0    0  501    0  0.00000000000E+00  0.00000000000E+00  0.88590418974E+03  0.88590418974E+03  0.00000000000E+00 0.  1.
         -2   -1    0    0    0  501 -0.00000000000E+00 -0.00000000000E+00 -0.20973998221E+02  0.20973998221E+02  0.00000000000E+00 0. -1.
         25    2    1    2    0    0 -0.30118396187E+02 -0.25322332793E+02  0.71536299139E+03  0.72728456107E+03  0.12510109909E+03 0.  0.
          5    1    3    3  502    0 -0.49855367960E+02 -0.61318246731E+02  0.31453400964E+03  0.32433717135E+03  0.41800000000E+01 0. -1.
         -5    1    3    3    0  502  0.19736971772E+02  0.35995913937E+02  0.40082898175E+03  0.40294738973E+03  0.41800000000E+01 0. -1.
        -11    1    1    2    0    0  0.11934513826E+02  0.37520515489E+02  0.15250095986E+03  0.15750163320E+03  0.00000000000E+00 0.  1.
         11    1    1    2    0    0  0.18183882361E+02 -0.12198182696E+02 -0.29337597358E+01  0.22091993685E+02  0.00000000000E+00 0. -1.
</event>
<event>
 7    1  0.2648915E-009  0.9949948E+02  0.7561462E-02  0.1281352E+00
          2   -1    0    0  501    0  0.00000000000E+00  0.00000000000E+00  0.93827209742E+02  0.93827209742E+02  0.00000000000E+00 0. -1.
         -2   -1    0    0    0  501 -0.00000000000E+00 -0.00000000000E+00 -0.20104057637E+03  0.20104057637E+03  0.00000000000E+00 0.  1.
         25    2    1    2    0    0 -0.48370224533E+02 -0.62523671191E+02 -0.90651065181E+02  0.17353224148E+03  0.12508770977E+03 0.  0.
          5    1    3    3  502    0  0.60074047591E+01 -0.62362197777E+02 -0.10011764682E+03  0.11817845924E+03  0.41800000000E+01 0. -1.
         -5    1    3    3    0  502 -0.54377629292E+02 -0.16147341465E+00  0.94665816371E+01  0.55353782247E+02  0.41800000000E+01 0. -1.
        -11    1    1    2    0    0  0.24565012797E+02  0.15730079046E+02  0.36477354460E+02  0.46706237580E+02  0.00000000000E+00 0. -1.
         11    1    1    2    0    0  0.23805211737E+02  0.46793592145E+02 -0.53039655910E+02  0.74629307049E+02  0.00000000000E+00 0.  1.
</event>
<event>
 7    1  0.2648915E-009  0.1178711E+03  0.7561462E-02  0.1246651E+00
          1   -1    0    0  501    0  0.00000000000E+00  0.00000000000E+00  0.12920154875E+03  0.12920154875E+03  0.00000000000E+00 0. -1.
         -1   -1    0    0    0  501 -0.00000000000E+00 -0.00000000000E+00 -0.20122043617E+03  0.20122043617E+03  0.00000000000E+00 0.  1.
         25    2    1    2    0    0  0.24569821390E+02 -0.10215774009E+03  0.20710726290E+02  0.16467082071E+03  0.12509062725E+03 0.  0.
          5    1    3    3  502    0 -0.71909194285E+00 -0.10030930230E+03 -0.32542354892E+02  0.10554122647E+03  0.41800000000E+01 0. -1.
         -5    1    3    3    0  502  0.25288913333E+02 -0.18484377896E+01  0.53253081182E+02  0.59129594242E+02  0.41800000000E+01 0. -1.
        -11    1    1    2    0    0 -0.18703398424E+02  0.20398594553E+02 -0.77612960154E+02  0.82399583471E+02  0.00000000000E+00 0.  1.
         11    1    1    2    0    0 -0.58664229667E+01  0.81759145541E+02 -0.15116653553E+02  0.83351580745E+02  0.00000000000E+00 0. -1.
</event>
<event>
 7    1  0.2648915E-009  0.2124148E+03  0.7561462E-02  0.1139668E+00
          2   -1    0    0  501    0  0.00000000000E+00  0.00000000000E+00  0.12759992395E+04  0.12759992395E+04  0.00000000000E+00 0. -1.
         -2   -1    0    0    0  501 -0.00000000000E+00 -0.00000000000E+00 -0.41818873320E+02  0.41818873320E+02  0.00000000000E+00 0.  1.
         25    2    1    2    0    0  0.20291387806E+03 -0.10567636511E+02  0.72106775065E+03  0.75952079375E+03  0.12508964093E+03 0.  0.
          5    1    3    3  502    0  0.65560106000E+02 -0.40795416945E+02  0.12430646114E+03  0.14639659225E+03  0.41800000000E+01 0. -1.
         -5    1    3    3    0  502  0.13735377206E+03  0.30227780434E+02  0.59676128951E+03  0.61312420150E+03  0.41800000000E+01 0. -1.
        -11    1    1    2    0    0 -0.67631388274E+02 -0.14611166498E+02  0.27218637783E+03  0.28084322165E+03  0.00000000000E+00 0. -1.
         11    1    1    2    0    0 -0.13528248978E+03  0.25178803009E+02  0.24092623768E+03  0.27745409740E+03  0.00000000000E+00 0.  1.
</event>
<event>
 7    1  0.2648915E-009  0.1064213E+03  0.7561462E-02  0.1267344E+00
          2   -1    0    0  501    0  0.00000000000E+00  0.00000000000E+00  0.60659256807E+02  0.60659256807E+02  0.00000000000E+00 0. -1.
         -2   -1    0    0    0  501 -0.00000000000E+00 -0.00000000000E+00 -0.35134601875E+03  0.35134601875E+03  0.00000000000E+00 0.  1.
         25    2    1    2    0    0  0.21008677627E+02  0.25471190213E+02 -0.28789086765E+03  0.31562626302E+03  0.12509452492E+03 0.  0.
          5    1    3    3  502    0  0.64750603836E+02 -0.17294377276E+01 -0.89149407066E+02  0.11027565838E+03  0.41800000000E+01 0. -1.
         -5    1    3    3    0  502 -0.43741926209E+02  0.27200627940E+02 -0.19874146059E+03  0.20535060464E+03  0.41800000000E+01 0. -1.
        -11    1    1    2    0    0  0.25211515207E+02 -0.40454266869E+02  0.61683121777E+00  0.47671256410E+02  0.00000000000E+00 0. -1.
         11    1    1    2    0    0 -0.46220192834E+02  0.14983076656E+02 -0.34127255124E+01  0.48707756129E+02  0.00000000000E+00 0.  1.
</event>
<event>
 7    1  0.2648915E-009  0.1110539E+03  0.7561462E-02  0.1258631E+00
          1   -1    0    0  501    0  0.00000000000E+00  0.00000000000E+00  0.24262863604E+03  0.24262863604E+03  0.00000000000E+00 0. -1.
         -1   -1    0    0    0  501 -0.00000000000E+00 -0.00000000000E+00 -0.56879349061E+02  0.56879349061E+02  0.00000000000E+00 0.  1.
         25    2    1    2    0    0  0.15078410085E+02  0.40503801131E+02  0.12690334907E+03  0.18335632391E+03  0.12508862921E+03 0.  0.
          5    1    3    3  502    0 -0.23641226875E+02 -0.33426095364E+02  0.15231453187E+02  0.43882582258E+02  0.41800000000E+01 0.  1.
         -5    1    3    3    0  502  0.38719636960E+02  0.73929896495E+02  0.11167189588E+03  0.13947374166E+03  0.41800000000E+01 0.  1.
        -11    1    1    2    0    0  0.32454849141E+02 -0.37745562951E+02  0.43551992752E+02  0.66142428349E+02  0.00000000000E+00 0.  1.
         11    1    1    2    0    0 -0.47533259226E+02 -0.27582381802E+01  0.15293945161E+02  0.50009232839E+02  0.00000000000E+00 0. -1.
</event>
<event>
 7    1  0.2648915E-009  0.1020091E+03  0.7561462E-02  0.1276127E+00
          2   -1    0    0  501    0  0.00000000000E+00  0.00000000000E+00  0.87113047615E+02  0.87113047615E+02  0.00000000000E+00 0. -1.
         -2   -1    0    0    0  501 -0.00000000000E+00 -0.00000000000E+00 -0.18414240147E+03  0.18414240147E+03  0.00000000000E+00 0.  1.
         25    2    1    2    0    0 -0.10539664334E+02 -0.36093687591E+02  0.38624593364E+01  0.13068049932E+03  0.12509450628E+03 0.  0.
          5    1    3    3  502    0  0.40766330068E+02 -0.36267085456E+02 -0.36061133644E+02  0.65536805799E+02  0.41800000000E+01 0. -1.
         -5    1    3    3    0  502 -0.51305994402E+02  0.17339786529E+00  0.39923592981E+02  0.65143693516E+02  0.41800000000E+01 0. -1.
        -11    1    1    2    0    0  0.11966752267E+02  0.66404459183E+02 -0.67106865558E+02  0.95163473897E+02  0.00000000000E+00 0.  1.
         11    1    1    2    0    0 -0.14270879324E+01 -0.30310771592E+02 -0.33784947637E+02  0.45411475876E+02  0.00000000000E+00 0. -1.
</event>
<event>
 7    1  0.2648915E-009  0.1096275E+03  0.7561462E-02  0.1261261E+00
          1   -1    0    0  501    0  0.00000000000E+00  0.00000000000E+00  0.39873720828E+03  0.39873720828E+03  0.00000000000E+00 0. -1.
         -1   -1    0    0    0  501 -0.00000000000E+00 -0.00000000000E+00 -0.35416172775E+02  0.35416172775E+02  0.00000000000E+00 0.  1.
         25    2    1    2    0    0  0.17401605053E+02  0.42859797215E+02  0.23624412096E+03  0.27129974109E+03  0.12510989870E+03 0.  0.
          5    1    3    3  502    0  0.43125464370E+01 -0.43547290381E+02  0.58367002929E+02  0.73069446331E+02  0.41800000000E+01 0.  1.
         -5    1    3    3    0  502  0.13089058616E+02  0.86407087596E+02  0.17787711803E+03  0.19823029476E+03  0.41800000000E+01 0.  1.
        -11    1    1    2    0    0  0.29197093652E+02 -0.22913034562E+02  0.15344789689E+02  0.40161424292E+02  0.00000000000E+00 0.  1.
         11    1    1    2    0    0 -0.46598698705E+02 -0.19946762653E+02  0.11173212486E+03  0.12269221567E+03  0.00000000000E+00 0. -1.
</event>
<event>
 7    1  0.2648915E-009  0.1228813E+03  0.7561462E-02  0.1238418E+00
          1   -1    0    0  501    0  0.00000000000E+00  0.00000000000E+00  0.87900457998E+03  0.87900457998E+03  0.00000000000E+00 0. -1.
         -1   -1    0    0    0  501 -0.00000000000E+00 -0.00000000000E+00 -0.19665025226E+02  0.19665025226E+02  0.00000000000E+00 0.  1.
         25    2    1    2    0    0  0.66330689640E+02  0.33101002853E+02  0.51511783918E+03  0.53524552132E+03  0.12508374424E+03 0.  0.
          5    1    3    3  502    0  0.18842802876E+02  0.67710192319E+02  0.39763579792E+03  0.40382102664E+03  0.41800000000E+01 0. -1.
         -5    1    3    3    0  502  0.47487886765E+02 -0.34609189466E+02  0.11748204126E+03  0.13142449468E+03  0.41800000000E+01 0. -1.
        -11    1    1    2    0    0 -0.59801685092E+02  0.19913791083E+02  0.17793635268E+03  0.18877008826E+03  0.00000000000E+00 0.  1.
         11    1    1    2    0    0 -0.65290045486E+01 -0.53014793936E+02  0.16628536290E+03  0.17465399563E+03  0.00000000000E+00 0. -1.
</event>
<event>
 7    1  0.2648915E-009  0.1148793E+03  0.7561462E-02  0.1251792E+00
          1   -1    0    0  501    0  0.00000000000E+00  0.00000000000E+00  0.13151604473E+04  0.13151604473E+04  0.00000000000E+00 0. -1.
         -1   -1    0    0    0  501 -0.00000000000E+00 -0.00000000000E+00 -0.13198717826E+02  0.13198717826E+02  0.00000000000E+00 0.  1.
         25    2    1    2    0    0  0.60314434235E+02 -0.90021914937E+01  0.93068622740E+03  0.94103353315E+03  0.12509350985E+03 0.  0.
          5    1    3    3  502    0  0.81099988735E+02 -0.36178499540E+02  0.42631898953E+03  0.43548989109E+03  0.41800000000E+01 0. -1.
         -5    1    3    3    0  502 -0.20785554501E+02  0.27176308046E+02  0.50436723787E+03  0.50554364206E+03  0.41800000000E+01 0. -1.
        -11    1    1    2    0    0 -0.75215318667E+01 -0.36147544800E+02  0.83748849305E+02  0.91526434414E+02  0.00000000000E+00 0.  1.
         11    1    1    2    0    0 -0.52792902368E+02  0.45149736293E+02  0.28752665280E+03  0.29579919759E+03  0.00000000000E+00 0. -1.
</event>
<event>
 7    1  0.2648915E-009  0.1308595E+03  0.7561462E-02  0.1226186E+00
          2   -1    0    0  501    0  0.00000000000E+00  0.00000000000E+00  0.47145804233E+03  0.47145804233E+03  0.00000000000E+00 0. -1.
         -2   -1    0    0    0  501 -0.00000000000E+00 -0.00000000000E+00 -0.47792915314E+02  0.47792915314E+02  0.00000000000E+00 0.  1.
         25    2    1    2    0    0 -0.62785863467E+02  0.99074316436E+02  0.29900599640E+03  0.34468861648E+03  0.12509145301E+03 0.  0.
          5    1    3    3  502    0 -0.83526557848E+02  0.81662618899E+02  0.13570857851E+03  0.17910823508E+03  0.41800000000E+01 0. -1.
         -5    1    3    3    0  502  0.20740694380E+02  0.17411697537E+02  0.16329741789E+03  0.16558038140E+03  0.41800000000E+01 0. -1.
        -11    1    1    2    0    0  0.21389574366E+02 -0.28891796481E+02  0.17606587860E+02  0.40028011836E+02  0.00000000000E+00 0.  1.
         11    1    1    2    0    0  0.41396289102E+02 -0.70182519955E+02  0.10705254276E+03  0.13453432934E+03  0.00000000000E+00 0. -1.
</event>
<event>
 7    1  0.2648915E-009  0.2985402E+03  0.7561462E-02  0.1085973E+00
         -2   -1    0    0    0  501 -0.00000000000E+00  0.00000000000E+00  0.21509865806E+03  0.21509865806E+03  0.00000000000E+00 0. -1.
          2   -1    0    0  501    0  0.00000000000E+00 -0.00000000000E+00 -0.45614569424E+03  0.45614569424E+03  0.00000000000E+00 0.  1.
         25    2    1    2    0    0 -0.12830439710E+03 -0.26332873390E+03 -0.78863023288E+02  0.32813158610E+03  0.12508765304E+03 0.  0.
          5    1    3    3  502    0 -0.70870195482E+02 -0.10933609884E+03  0.26270061675E+02  0.13298329089E+03  0.41800000000E+01 0.  1.
         -5    1    3    3    0  502 -0.57434201621E+02 -0.15399263506E+03 -0.10513308496E+03  0.19514829521E+03  0.41800000000E+01 0.  1.
        -11    1    1    2    0    0  0.10146187481E+03  0.12304927195E+03 -0.88731042064E+02  0.18250707710E+03  0.00000000000E+00 0.  1.
         11    1    1    2    0    0  0.26842522293E+02  0.14027946195E+03 -0.73452970821E+02  0.16060568910E+03  0.00000000000E+00 0. -1.
</event>
<event>
 7    1  0.2648915E-009  0.9406030E+02  0.7561462E-02  0.1293307E+00
          1   -1    0    0  501    0  0.00000000000E+00  0.00000000000E+00  0.47292533679E+02  0.47292533679E+02  0.00000000000E+00 0. -1.
         -1   -1    0    0    0  501 -0.00000000000E+00 -0.00000000000E+00 -0.39256335099E+03  0.39256335099E+03  0.00000000000E+00 0.  1.
         25    2    1    2    0    0  0.28059918641E+02  0.12843833607E+02 -0.66595010549E+02  0.14503393683E+03  0.12509046449E+03 0.  0.
          5    1    3    3  502    0 -0.13806177427E+01 -0.35466985304E+02  0.20419048176E+02  0.41160941198E+02  0.41800000000E+01 0. -1.
         -5    1    3    3    0  502  0.29440536383E+02  0.48310818911E+02 -0.87014058725E+02  0.10387299563E+03  0.41800000000E+01 0. -1.
        -11    1    1    2    0    0  0.18638908196E+02 -0.38206811903E+02 -0.10804348039E+03  0.11610582686E+03  0.00000000000E+00 0.  1.
         11    1    1    2    0    0 -0.46698826836E+02  0.25362978297E+02 -0.17063232637E+03  0.17871612098E+03  0.00000000000E+00 0. -1.
</event>
<event>
 7    1  0.2648915E-009  0.8426732E+02  0.7561462E-02  0.1317360E+00
          1   -1    0    0  501    0  0.00000000000E+00  0.00000000000E+00  0.61052407527E+03  0.61052407527E+03  0.00000000000E+00 0. -1.
         -1   -1    0    0    0  501 -0.00000000000E+00 -0.00000000000E+00 -0.21864281096E+02  0.21864281096E+02  0.00000000000E+00 0.  1.
         25    2    1    2    0    0  0.25754044663E+02  0.15737427145E+02  0.41059794983E+03  0.43028863433E+03  0.12508674990E+03 0.  0.
          5    1    3    3  502    0 -0.28210561682E+02  0.25349993617E+02  0.33306976258E+03  0.33524826191E+03  0.41800000000E+01 0.  1.
         -5    1    3    3    0  502  0.53964606345E+02 -0.96125664714E+01  0.77528187243E+02  0.95040372418E+02  0.41800000000E+01 0.  1.
        -11    1    1    2    0    0 -0.25889762685E+02 -0.41893803661E+02  0.45723699509E+02  0.67201393541E+02  0.00000000000E+00 0.  1.
         11    1    1    2    0    0  0.13571802224E+00  0.26156376515E+02  0.13233814484E+03  0.13489832850E+03  0.00000000000E+00 0. -1.
</event>
<event>
 7    1  0.2648915E-009  0.1163082E+03  0.7561462E-02  0.1249315E+00
          2   -1    0    0  501    0  0.00000000000E+00  0.00000000000E+00  0.12206097406E+03  0.12206097406E+03  0.00000000000E+00 0. -1.
         -2   -1    0    0    0  501 -0.00000000000E+00 -0.00000000000E+00 -0.14060267039E+03  0.14060267039E+03  0.00000000000E+00 0.  1.
         25    2    1    2    0    0 -0.12130550546E+02 -0.49269755145E+02  0.42047039912E+02  0.14138608046E+03  0.12508961250E+03 0.  0.
          5    1    3    3  502    0  0.33834905395E+02 -0.74114775947E+02  0.17179354654E+02  0.83369079778E+02  0.41800000000E+01 0. -1.
         -5    1    3    3    0  502 -0.45965455941E+02  0.24845020802E+02  0.24867685257E+02  0.58017000686E+02  0.41800000000E+01 0. -1.
        -11    1    1    2    0    0  0.43601985415E+02  0.44148753478E+01 -0.65365539789E+01  0.44309714447E+02  0.00000000000E+00 0. -1.
         11    1    1    2    0    0 -0.31471434868E+02  0.44854879798E+02 -0.54052182261E+02  0.76967849531E+02  0.00000000000E+00 0.  1.
</event>
<event>
 7    1  0.2648915E-009  0.5150651E+02  0.7561462E-02  0.1437381E+00
          1   -1    0    0  501    0  0.00000000000E+00  0.00000000000E+00  0.29748936213E+03  0.29748936213E+03  0.00000000000E+00 0. -1.
         -1   -1    0    0    0  501 -0.00000000000E+00 -0.00000000000E+00 -0.42505822788E+02  0.42505822788E+02  0.00000000000E+00 0.  1.
         25    2    1    2    0    0  0.32785806384E+02  0.27274375845E+01  0.12739591056E+03  0.18154644875E+03  0.12508815696E+03 0.  0.
          5    1    3    3  502    0  0.38062788332E+02 -0.11546539654E+01  0.15147510826E+03  0.15624432759E+03  0.41800000000E+01 0.  1.
         -5    1    3    3    0  502 -0.52769819479E+01  0.38820915500E+01 -0.24079197702E+02  0.25302121161E+02  0.41800000000E+01 0.  1.
        -11    1    1    2    0    0 -0.11277397003E+02  0.21657494130E+02  0.12325002418E+03  0.12564551403E+03  0.00000000000E+00 0. -1.
         11    1    1    2    0    0 -0.21508409382E+02 -0.24384931714E+02  0.43376046013E+01  0.32803222136E+02  0.00000000000E+00 0.  1.
</event>
<event>
 7    1  0.2648915E-009  0.9461127E+02  0.7561462E-02  0.1292054E+00
         -2   -1    0    0    0  501 -0.00000000000E+00  0.00000000000E+00  0.39665401469E+02  0.39665401469E+02  0.00000000000E+00 0.  1.
          2   -1    0    0  501    0  0.00000000000E+00 -0.00000000000E+00 -0.30383840931E+03  0.30383840931E+03  0.00000000000E+00 0. -1.
         25    2    1    2    0    0  0.57800830139E+01 -0.15618231302E+02 -0.12839065166E+03  0.18002742832E+03  0.12509347307E+03 0.  0.
          5    1    3    3  502    0 -0.54658446802E+02  0.13880886685E+02 -0.75700540556E+02  0.94489518267E+02  0.41800000000E+01 0.  1.
         -5    1    3    3    0  502  0.60438529816E+02 -0.29499117987E+02 -0.52690111106E+02  0.85537910056E+02  0.41800000000E+01 0.  1.
        -11    1    1    2    0    0  0.28725939918E+02  0.94340554729E+01 -0.84319441193E+01  0.31389149534E+02  0.00000000000E+00 0.  1.
         11    1    1    2    0    0 -0.34506022932E+02  0.61841758296E+01 -0.12735041206E+03  0.13208723292E+03  0.00000000000E+00 0. -1.
</event>
<event>
 7    1  0.2648915E-009  0.1825124E+03  0.7561462E-02  0.1165393E+00
          1   -1    0    0  501    0  0.00000000000E+00  0.00000000000E+00  0.19118956450E+03  0.19118956450E+03  0.00000000000E+00 0. -1.
         -1   -1    0    0    0  501 -0.00000000000E+00 -0.00000000000E+00 -0.20649309303E+03  0.20649309303E+03  0.00000000000E+00 0.  1.
         25    2    1    2    0    0 -0.13195429032E+03  0.85081589499E+02  0.44234444413E+02  0.20555817196E+03  0.12508662751E+03 0.  0.
          5    1    3    3  502    0 -0.13530824626E+03  0.22612260206E+02  0.21812870043E+02  0.13897089450E+03  0.41800000000E+01 0. -1.
         -5    1    3    3    0  502  0.33539559418E+01  0.62469329293E+02  0.22421574370E+02  0.66587277464E+02  0.41800000000E+01 0. -1.
        -11    1    1    2    0    0  0.16660261584E+02 -0.36199242613E+02  0.19164729836E+02  0.44218054587E+02  0.00000000000E+00 0. -1.
         11    1    1    2    0    0  0.11529402874E+03 -0.48882346887E+02 -0.78702702785E+02  0.14790643098E+03  0.00000000000E+00 0.  1.
</event>
<event>
 7    1  0.2648915E-009  0.1226186E+03  0.7561462E-02  0.1238839E+00
          2   -1    0    0  501    0  0.00000000000E+00  0.00000000000E+00  0.63174384771E+03  0.63174384771E+03  0.00000000000E+00 0. -1.
         -2   -1    0    0    0  501 -0.00000000000E+00 -0.00000000000E+00 -0.27242949299E+02  0.27242949299E+02  0.00000000000E+00 0.  1.
         25    2    1    2    0    0 -0.68113725694E+02  0.19345511947E+01  0.32485153972E+03  0.35470922497E+03  0.12508752658E+03 0.  0.
          5    1    3    3  502    0  0.28599317501E+02 -0.28852876269E+02  0.96019029907E+02  0.10434335597E+03  0.41800000000E+01 0.  1.
         -5    1    3    3    0  502 -0.96713043195E+02  0.30787427463E+02  0.22883250982E+03  0.25036586901E+03  0.41800000000E+01 0.  1.
        -11    1    1    2    0    0  0.79391021045E+02 -0.19677025960E+02  0.26808218207E+03  0.28028231467E+03  0.00000000000E+00 0. -1.
         11    1    1    2    0    0 -0.11277295352E+02  0.17742474766E+02  0.11567176622E+02  0.23995257370E+02  0.00000000000E+00 0.  1.
</event>
<event>
 7    1  0.2648915E-009  0.1109638E+03  0.7561462E-02  0.1258795E+00
          2   -1    0    0  501    0  0.00000000000E+00  0.00000000000E+00  0.53273217084E+03  0.53273217084E+03  0.00000000000E+00 0. -1.
         -2   -1    0    0    0  501 -0.00000000000E+00 -0.00000000000E+00 -0.24506091171E+02  0.24506091171E+02  0.00000000000E+00 0.  1.
         25    2    1    2    0    0 -0.77561369664E+01  0.26186895507E-01  0.27185570607E+03  0.29935577527E+03  0.12509275326E+03 0.  0.
          5    1    3    3  502    0  0.35188386496E+02  0.44599081344E+02  0.83760944702E+02  0.10129495969E+03  0.41800000000E+01 0.  1.
         -5    1    3    3    0  502 -0.42944523462E+02 -0.44572894449E+02  0.18809476137E+03  0.19806081558E+03  0.41800000000E+01 0.  1.
        -11    1    1    2    0    0  0.42467213989E+02  0.33940262404E+02  0.13252329620E+03  0.14324046116E+03  0.00000000000E+00 0.  1.
         11    1    1    2    0    0 -0.34711077022E+02 -0.33966449300E+02  0.10384707739E+03  0.11464202558E+03  0.00000000000E+00 0. -1.
</event>
<event>
 7    1  0.2648915E-009  0.1833002E+03  0.7561462E-02  0.1164647E+00
         -1   -1    0    0    0  501 -0.00000000000E+00  0.00000000000E+00  0.31679456930E+03  0.31679456930E+03  0.00000000000E+00 0.  1.
          1   -1    0    0  501    0  0.00000000000E+00 -0.00000000000E+00 -0.15059396394E+03  0.15059396394E+03  0.00000000000E+00 0. -1.
         25    2    1    2    0    0 -0.94908006046E+02 -0.15640510922E+03  0.43605030442E+02  0.22587218711E+03  0.12508700344E+03 0.  0.
          5    1    3    3  502    0 -0.19195476365E+02 -0.28072655219E+02 -0.41823459206E+02  0.54066758954E+02  0.41800000000E+01 0. -1.
         -5    1    3    3    0  502 -0.75712529682E+02 -0.12833245401E+03  0.85428489647E+02  0.17180542816E+03  0.41800000000E+01 0. -1.
        -11    1    1    2    0    0  0.23097737048E+02  0.29553256164E+02  0.82047157058E+02  0.90214391246E+02  0.00000000000E+00 0.  1.
         11    1    1    2    0    0  0.71810268998E+02  0.12685185306E+03  0.40548417869E+02  0.15130195488E+03  0.00000000000E+00 0. -1.
</event>
<event>
 7    1  0.2648915E-009  0.8447931E+02  0.7561462E-02  0.1316800E+00
         -1   -1    0    0    0  501 -0.00000000000E+00  0.00000000000E+00  0.53921181549E+02  0.53921181549E+02  0.00000000000E+00 0.  1.
          1   -1    0    0  501    0  0.00000000000E+00 -0.00000000000E+00 -0.29754768486E+03  0.29754768486E+03  0.00000000000E+00 0. -1.
         25    2    1    2    0    0  0.41976798654E+02 -0.13021577396E+02 -0.20601347643E+03  0.24499327065E+03  0.12509411294E+03 0.  0.
          5    1    3    3  502    0 -0.13375844002E+02 -0.32218237166E+02 -0.17515620707E+03  0.17864517145E+03  0.41800000000E+01 0.  1.
         -5    1    3    3    0  502  0.55352642656E+02  0.19196659771E+02 -0.30857269363E+02  0.66348099204E+02  0.41800000000E+01 0.  1.
        -11    1    1    2    0    0 -0.43556114490E+02  0.33251182085E+02  0.90979707359E+01  0.55547720844E+02  0.00000000000E+00 0.  1.
         11    1    1    2    0    0  0.15793158358E+01 -0.20229604689E+02 -0.46710997617E+02  0.50927874909E+02  0.00000000000E+00 0. -1.
</event>
<event>
 7    1  0.2648915E-009  0.1999598E+03  0.7561462E-02  0.1149773E+00
         -2   -1    0    0    0  501 -0.00000000000E+00  0.00000000000E+00  0.26393883377E+02  0.26393883377E+02  0.00000000000E+00 0.  1.
          2   -1    0    0  501    0  0.00000000000E+00 -0.00000000000E+00 -0.17089194902E+04  0.17089194902E+04  0.00000000000E+00 0. -1.
         25    2    1    2    0    0 -0.16983824616E+03  0.60773090045E+02 -0.99269577381E+03  0.10166763349E+04  0.12508985689E+03 0.  0.
          5    1    3    3  502    0 -0.16801974247E+03  0.99056467056E+01 -0.77293036869E+03  0.79105472815E+03  0.41800000000E+01 0.  1.
         -5    1    3    3    0  502 -0.18185036960E+01  0.50867443339E+02 -0.21976540512E+03  0.22562160676E+03  0.41800000000E+01 0.  1.
        -11    1    1    2    0    0  0.83226392283E+02 -0.26578555520E+02 -0.17661405939E+03  0.19704207155E+03  0.00000000000E+00 0.  1.
         11    1    1    2    0    0  0.86611853882E+02 -0.34194534525E+02 -0.51321577359E+03  0.52159496708E+03  0.00000000000E+00 0. -1.
</event>
<event>
 7    1  0.2806735E-009  0.1214196E+03  0.7561462E-02  0.1240773E+00
         -1   -1    0    0    0  501 -0.00000000000E+00  0.00000000000E+00  0.23690124567E+03  0.23690124567E+03  0.00000000000E+00 0.  1.
          1   -1    0    0  501    0  0.00000000000E+00 -0.00000000000E+00 -0.10674588087E+03  0.10674588087E+03  0.00000000000E+00 0. -1.
         25    2    1    2    0    0  0.72414942365E+02 -0.23471774901E+02  0.16454059761E+03  0.22026454315E+03  0.12509201659E+03 0.  0.
          5    1    3    3  502    0 -0.16494997285E+01  0.43863762970E+02  0.33830540809E+02  0.55576329878E+02  0.41800000000E+01 0. -1.
         -5    1    3    3    0  502  0.74064442093E+02 -0.67335537870E+02  0.13071005680E+03  0.16468821328E+03  0.41800000000E+01 0. -1.
        -11    1    1    2    0    0 -0.76512087416E+02  0.18296073205E+01  0.66366540391E+01  0.76821170003E+02  0.00000000000E+00 0.  1.
         11    1    1    2    0    0  0.40971450516E+01  0.21642167580E+02 -0.41021886852E+02  0.46561413381E+02  0.00000000000E+00 0. -1.
</event>
<event>
 7    1  0.2648915E-009  0.1061667E+03  0.7561462E-02  0.1267838E+00
         -2   -1    0    0    0  501 -0.00000000000E+00  0.00000000000E+00  0.75251894550E+02  0.75251894550E+02  0.00000000000E+00 0.  1.
          2   -1    0    0  501    0  0.00000000000E+00 -0.00000000000E+00 -0.27488217875E+03  0.27488217875E+03  0.00000000000E+00 0. -1.
         25    2    1    2    0    0 -0.47807203475E+02  0.69069811386E+02 -0.16103170212E+03  0.22053311742E+03  0.12508988466E+03 0.  0.
          5    1    3    3  502    0 -0.38558770516E+01  0.70825555088E+02 -0.21594086114E+02  0.74262399614E+02  0.41800000000E+01 0.  1.
         -5    1    3    3    0  502 -0.43951326423E+02 -0.17557437017E+01 -0.13943761601E+03  0.14627071781E+03  0.41800000000E+01 0.  1.
        -11    1    1    2    0    0  0.24449980578E+02 -0.28357205056E+00  0.23588451074E+02  0.33974946467E+02  0.00000000000E+00 0.  1.
         11    1    1    2    0    0  0.23357222896E+02 -0.68786239336E+02 -0.62187033154E+02  0.95626009411E+02  0.00000000000E+00 0. -1.
</event>
<event>
 7    1  0.2648915E-009  0.1441420E+03  0.7561462E-02  0.1207862E+00
          1   -1    0    0  501    0  0.00000000000E+00  0.00000000000E+00  0.27424818472E+03  0.27424818472E+03  0.00000000000E+00 0. -1.
         -1   -1    0    0    0  501 -0.00000000000E+00 -0.00000000000E+00 -0.87910572762E+02  0.87910572762E+02  0.00000000000E+00 0.  1.
         25    2    1    2    0    0  0.84299940404E+02 -0.71071255986E+02  0.11679733712E+03  0.20359548388E+03  0.12510755261E+03 0.  0.
          5    1    3    3  502    0  0.27581365622E+02 -0.89603131931E+02  0.10809803105E+03  0.14315065385E+03  0.41800000000E+01 0.  1.
         -5    1    3    3    0  502  0.56718574782E+02  0.18531875945E+02  0.86993060691E+01  0.60444830031E+02  0.41800000000E+01 0.  1.
        -11    1    1    2    0    0 -0.27619967490E+02  0.72855344943E+02  0.65364089933E+02  0.10170166244E+03  0.00000000000E+00 0. -1.
         11    1    1    2    0    0 -0.56679972914E+02 -0.17840889568E+01  0.41761849045E+01  0.56861611157E+02  0.00000000000E+00 0.  1.
</event>
<event>
 7    1  0.2648915E-009  0.1908103E+03  0.7561462E-02  0.1157733E+00
          1   -1    0    0  501    0  0.00000000000E+00  0.00000000000E+00  0.25479040446E+03  0.25479040446E+03  0.00000000000E+00 0. -1.
         -1   -1    0    0    0  501 -0.00000000000E+00 -0.00000000000E+00 -0.15943980988E+03  0.15943980988E+03  0.00000000000E+00 0.  1.
         25    2    1    2    0    0 -0.10421698330E+02 -0.16258118822E+03  0.10001639786E+03  0.22844979648E+03  0.12507907544E+03 0.  0.
          5    1    3    3  502    0 -0.57794998334E+02 -0.11608728529E+03  0.96775106569E+02  0.16186232820E+03  0.41800000000E+01 0.  1.
         -5    1    3    3    0  502  0.47373300004E+02 -0.46493902933E+02  0.32412912873E+01  0.66587468283E+02  0.41800000000E+01 0.  1.
        -11    1    1    2    0    0 -0.32038264679E+02  0.12374091201E+03 -0.85329942614E+01  0.12810572080E+03  0.00000000000E+00 0.  1.
         11    1    1    2    0    0  0.42459963009E+02  0.38840276210E+02  0.38671909938E+01  0.57674697060E+02  0.00000000000E+00 0. -1.
</event>
<event>
 7    1  0.2648915E-009  0.1225182E+03  0.7561462E-02  0.1239000E+00
          4   -1    0    0  501    0  0.00000000000E+00  0.00000000000E+00  0.75772351198E+03  0.75772351198E+03  0.00000000000E+00 0. -1.
         -4   -1    0    0    0  501 -0.00000000000E+00 -0.00000000000E+00 -0.20525771405E+02  0.20525771405E+02  0.00000000000E+00 0.  1.
         25    2    1    2    0    0 -0.56780504555E+02  0.13966352507E+02  0.43709327267E+03  0.45838536786E+03  0.12509009456E+03 0.  0.
          5    1    3    3  502    0  0.89738731988E+01  0.57141873602E+02  0.21717264000E+03  0.22478245502E+03  0.41800000000E+01 0.  1.
         -5    1    3    3    0  502 -0.65754377754E+02 -0.43175521095E+02  0.21992063266E+03  0.23360291284E+03  0.41800000000E+01 0.  1.
        -11    1    1    2    0    0  0.81134207164E+02 -0.19166204285E+02  0.25577664716E+03  0.26902006652E+03  0.00000000000E+00 0.  1.
         11    1    1    2    0    0 -0.24353702608E+02  0.51998517783E+01  0.44327820743E+02  0.50843848999E+02  0.00000000000E+00 0. -1.
</event>
<event>
 7    1  0.2648915E-009  0.9583735E+02  0.7561462E-02  0.1289301E+00
          1   -1    0    0  501    0  0.00000000000E+00  0.00000000000E+00  0.34792876717E+03  0.34792876717E+03  0.00000000000E+00 0. -1.
         -1   -1    0    0    0  501 -0.00000000000E+00 -0.00000000000E+00 -0.56686530726E+02  0.56686530726E+02  0.00000000000E+00 0.  1.
         25    2    1    2    0    0  0.56430351991E+02  0.23402491310E+02  0.65403756351E+02  0.15380907933E+03  0.12509004882E+03 0.  0.
          5    1    3    3  502    0  0.58471886922E+02 -0.11584086903E+02 -0.18689616733E+02  0.62609318821E+02  0.41800000000E+01 0. -1.
         -5    1    3    3    0  502 -0.20415349305E+01  0.34986578213E+02  0.84093373084E+02  0.91199760507E+02  0.41800000000E+01 0. -1.
        -11    1    1    2    0    0  0.17324708238E+02 -0.13998405362E+02  0.14023035709E+02  0.26320075963E+02  0.00000000000E+00 0.  1.
         11    1    1    2    0    0 -0.73755060230E+02 -0.94040859481E+01  0.21181544439E+03  0.22448614261E+03  0.00000000000E+00 0. -1.
</event>
<event>
 7    1  0.2648915E-009  0.9492270E+02  0.7561462E-02  0.1291350E+00
          2   -1    0    0  501    0  0.00000000000E+00  0.00000000000E+00  0.34311361076E+03  0.34311361076E+03  0.00000000000E+00 0. -1.
         -2   -1    0    0    0  501 -0.00000000000E+00 -0.00000000000E+00 -0.66244494144E+02  0.66244494144E+02  0.00000000000E+00 0.  1.
         25    2    1    2    0    0  0.56869875616E+02  0.18113873891E+02  0.34454297853E+02  0.14280413188E+03  0.12507448286E+03 0.  0.
          5    1    3    3  502    0 -0.11896712372E+02  0.20240962487E+02  0.63633907932E+02  0.67955683841E+02  0.41800000000E+01 0.  1.
         -5    1    3    3    0  502  0.68766587988E+02 -0.21270885957E+01 -0.29179610079E+02  0.74848448039E+02  0.41800000000E+01 0.  1.
        -11    1    1    2    0    0 -0.33899510830E+02  0.29029049636E+02  0.49548329918E+02  0.66685077453E+02  0.00000000000E+00 0.  1.
         11    1    1    2    0    0 -0.22970364786E+02 -0.47142923528E+02  0.19286648885E+03  0.19986889557E+03  0.00000000000E+00 0. -1.
</event>
<event>
 7    1  0.2905838E-009  0.1756602E+03  0.7561462E-02  0.1172070E+00
          2   -1    0    0  501    0  0.00000000000E+00  0.00000000000E+00  0.63499325536E+03  0.63499325536E+03  0.00000000000E+00 0. -1.
         -2   -1    0    0    0  501 -0.00000000000E+00 -0.00000000000E+00 -0.72865408804E+02  0.72865408804E+02  0.00000000000E+00 0.  1.
         25    2    1    2    0    0  0.36355402716E+02  0.14331735850E+03  0.10852465473E+03  0.22200627897E+03  0.12509039397E+03 0.  0.
          5    1    3    3  502    0  0.66395330916E+02  0.14753705120E+03  0.81690032596E+02  0.18129052725E+03  0.41800000000E+01 0. -1.
         -5    1    3    3    0  502 -0.30039928200E+02 -0.42196927064E+01  0.26834622130E+02  0.40715751715E+02  0.41800000000E+01 0. -1.
        -11    1    1    2    0    0  0.60780463244E+01 -0.92293822262E+02  0.15971116910E+03  0.18456096502E+03  0.00000000000E+00 0.  1.
         11    1    1    2    0    0 -0.42433449040E+02 -0.51023536236E+02  0.29389202273E+03  0.30129142018E+03  0.00000000000E+00 0. -1.
</event>
<event>
 7    1  0.2797441E-009  0.8839581E+02  0.7561462E-02  0.1306784E+00
          3   -1    0    0  501    0  0.00000000000E+00  0.00000000000E+00  0.99910832355E+02  0.99910832355E+02  0.00000000000E+00 0. -1.
         -3   -1    0    0    0  501 -0.00000000000E+00 -0.00000000000E+00 -0.18959943961E+03  0.18959943961E+03  0.00000000000E+00 0.  1.
         25    2    1    2    0    0  0.26315086973E+02 -0.61760597930E+02  0.43205006567E+01  0.14202729490E+03  0.12508489321E+03 0.  0.
          5    1    3    3  502    0 -0.14195705888E+02  0.13684069751E+02 -0.40533305143E+02  0.45268013612E+02  0.41800000000E+01 0. -1.
         -5    1    3    3    0  502  0.40510792861E+02 -0.75444667681E+02  0.44853805800E+02  0.96759281283E+02  0.41800000000E+01 0. -1.
        -11    1    1    2    0    0  0.35153624541E+01  0.15222647417E+02 -0.90776066332E+02  0.92110699629E+02  0.00000000000E+00 0.  1.
         11    1    1    2    0    0 -0.29830449427E+02  0.46537950513E+02 -0.32330415795E+01  0.55372277440E+02  0.00000000000E+00 0. -1.
</event>
<event>
 7    1  0.2648915E-009  0.2736267E+03  0.7561462E-02  0.1099222E+00
         -1   -1    0    0    0  501 -0.00000000000E+00  0.00000000000E+00  0.61855399868E+02  0.61855399868E+02  0.00000000000E+00 0.  1.
          1   -1    0    0  501    0  0.00000000000E+00 -0.00000000000E+00 -0.15158042755E+04  0.15158042755E+04  0.00000000000E+00 0. -1.
         25    2    1    2    0    0 -0.23263354359E+03  0.11075175708E+03 -0.42159937034E+03  0.50968438993E+03  0.12509129051E+03 0.  0.
          5    1    3    3  502    0 -0.67487566049E+02 -0.24474340485E+02 -0.88330189847E+02  0.11390021840E+03  0.41800000000E+01 0. -1.
         -5    1    3    3    0  502 -0.16514597754E+03  0.13522609757E+03 -0.33326918050E+03  0.39578417153E+03  0.41800000000E+01 0. -1.
        -11    1    1    2    0    0  0.85991291676E+02 -0.16566182683E+02 -0.21309039207E+03  0.23038328030E+03  0.00000000000E+00 0.  1.
         11    1    1    2    0    0  0.14664225192E+03 -0.94185574399E+02 -0.81925911324E+03  0.83759200516E+03  0.00000000000E+00 0. -1.
</event>
<event>
 7    1  0.2648915E-009  0.1017599E+03  0.7561462E-02  0.1276638E+00
          2   -1    0    0  501    0  0.00000000000E+00  0.00000000000E+00  0.90602251045E+03  0.90602251045E+03  0.00000000000E+00 0. -1.
         -2   -1    0    0    0  501 -0.00000000000E+00 -0.00000000000E+00 -0.13429426036E+02  0.13429426036E+02  0.00000000000E+00 0.  1.
         25    2    1    2    0    0 -0.86850998671E+01 -0.74205987936E+00  0.62723757955E+03  0.63964784516E+03  0.12508558274E+03 0.  0.
          5    1    3    3  502    0 -0.50738026862E+02 -0.37366563591E+02  0.23073345460E+03  0.23921957887E+03  0.41800000000E+01 0.  1.
         -5    1    3    3    0  502  0.42052926995E+02  0.36624503711E+02  0.39650412495E+03  0.40042826629E+03  0.41800000000E+01 0.  1.
        -11    1    1    2    0    0  0.26088696946E+02  0.36390951596E+02  0.96970350187E+02  0.10680903652E+03  0.00000000000E+00 0.  1.
         11    1    1    2    0    0 -0.17403597079E+02 -0.35648891716E+02  0.16838515468E+03  0.17299505481E+03  0.00000000000E+00 0. -1.
</event>
<event>
 7    1  0.2648915E-009  0.1088673E+03  0.7561462E-02  0.1262682E+00
          1   -1    0    0  501    0  0.00000000000E+00  0.00000000000E+00  0.17914090727E+02  0.17914090727E+02  0.00000000000E+00 0. -1.
         -1   -1    0    0    0  501 -0.00000000000E+00 -0.00000000000E+00 -0.67615452036E+03  0.67615452036E+03  0.00000000000E+00 0.  1.
         25    2    1    2    0    0  0.16099726536E+02  0.13997537987E+02 -0.35857848046E+03  0.38036921403E+03  0.12508828910E+03 0.  0.
          5    1    3    3  502    0  0.39138801631E+02  0.61687579786E+02 -0.22557980804E+03  0.23715169299E+03  0.41800000000E+01 0.  1.
         -5    1    3    3    0  502 -0.23039075095E+02 -0.47690041799E+02 -0.13299867242E+03  0.14321752104E+03  0.41800000000E+01 0.  1.
        -11    1    1    2    0    0  0.24093989904E+01 -0.50471609136E+02 -0.19175547018E+03  0.19830115702E+03  0.00000000000E+00 0.  1.
         11    1    1    2    0    0 -0.18509125527E+02  0.36474071149E+02 -0.10790647899E+03  0.11539824003E+03  0.00000000000E+00 0. -1.
</event>
<event>
 7    1  0.2648915E-009  0.2149749E+03  0.7561462E-02  0.1137686E+00
         -2   -1    0    0    0  501 -0.00000000000E+00  0.00000000000E+00  0.99203007984E+02  0.99203007984E+02  0.00000000000E+00 0.  1.
          2   -1    0    0  501    0  0.00000000000E+00 -0.00000000000E+00 -0.53253824486E+03  0.53253824486E+03  0.00000000000E+00 0. -1.
         25    2    1    2    0    0  0.18274461709E+03 -0.61206182079E+02 -0.30579531995E+03  0.38249267080E+03  0.12509226079E+03 0.  0.
          5    1    3    3  502    0  0.11720968600E+03 -0.97207706158E+02 -0.17716660639E+03  0.23365129456E+03  0.41800000000E+01 0. -1.
         -5    1    3    3    0  502  0.65534931095E+02  0.36001524079E+02 -0.12862871356E+03  0.14884137624E+03  0.41800000000E+01 0. -1.
        -11    1    1    2    0    0 -0.10681642547E+03  0.26592595860E+01 -0.26766543725E+02  0.11015111563E+03  0.00000000000E+00 0.  1.
         11    1    1    2    0    0 -0.75928191620E+02  0.58546922493E+02 -0.10077337320E+03  0.13909746641E+03  0.00000000000E+00 0. -1.
</event>
<event>
 7    1  0.2648915E-009  0.1556047E+03  0.7561462E-02  0.1193750E+00
         -1   -1    0    0    0  501 -0.00000000000E+00  0.00000000000E+00  0.35899005805E+03  0.35899005805E+03  0.00000000000E+00 0.  1.
          1   -1    0    0  501    0  0.00000000000E+00 -0.00000000000E+00 -0.11153060528E+03  0.11153060528E+03  0.00000000000E+00 0. -1.
         25    2    1    2    0    0  0.13297794136E+03 -0.53436092070E+02  0.23528884308E+03  0.30256690598E+03  0.12508934445E+03 0.  0.
          5    1    3    3  502    0  0.57857788245E+02  0.21300685645E+02  0.16274065669E+03  0.17407824853E+03  0.41800000000E+01 0.  1.
         -5    1    3    3    0  502  0.75120153116E+02 -0.74736777714E+02  0.72548186385E+02  0.12848865746E+03  0.41800000000E+01 0.  1.
        -11    1    1    2    0    0 -0.91713607408E+02  0.38794804178E+02  0.48774027503E+02  0.11088430175E+03  0.00000000000E+00 0.  1.
         11    1    1    2    0    0 -0.41264333953E+02  0.14641287891E+02 -0.36603417801E+02  0.57069455600E+02  0.00000000000E+00 0. -1.
</event>
<event>
 7    1  0.2648915E-009  0.9973423E+02  0.7561462E-02  0.1280856E+00
         -1   -1    0    0    0  501 -0.00000000000E+00  0.00000000000E+00  0.84233042519E+02  0.84233042519E+02  0.00000000000E+00 0.  1.
          1   -1    0    0  501    0  0.00000000000E+00 -0.00000000000E+00 -0.16464336169E+03  0.16464336169E+03  0.00000000000E+00 0. -1.
         25    2    1    2    0    0 -0.37878840940E+01  0.66547059611E+01 -0.10007953515E+03  0.16038051981E+03  0.12508942642E+03 0.  0.
          5    1    3    3  502    0 -0.29750474781E+02 -0.50452220622E+02 -0.67847964842E+02  0.89729237423E+02  0.41800000000E+01 0.  1.
         -5    1    3    3    0  502  0.25962590687E+02  0.57106926583E+02 -0.32231570311E+02  0.70651282392E+02  0.41800000000E+01 0.  1.
        -11    1    1    2    0    0  0.36768560979E+02 -0.20513680407E+02 -0.85110739028E+01  0.42955518148E+02  0.00000000000E+00 0. -1.
         11    1    1    2    0    0 -0.32980676885E+02  0.13858974446E+02  0.28180289880E+02  0.45540366250E+02  0.00000000000E+00 0.  1.
</event>
<event>
 7    1  0.2648915E-009  0.1386354E+03  0.7561462E-02  0.1215177E+00
          1   -1    0    0  501    0  0.00000000000E+00  0.00000000000E+00  0.13317792151E+03  0.13317792151E+03  0.00000000000E+00 0. -1.
         -1   -1    0    0    0  501 -0.00000000000E+00 -0.00000000000E+00 -0.16827238842E+03  0.16827238842E+03  0.00000000000E+00 0.  1.
         25    2    1    2    0    0 -0.78624325464E+02 -0.62512880600E+02 -0.38531873385E+02  0.16499030379E+03  0.12508976890E+03 0.  0.
          5    1    3    3  502    0 -0.96495627052E+02 -0.12167203999E+02  0.26838620682E+01  0.97386459063E+02  0.41800000000E+01 0. -1.
         -5    1    3    3    0  502  0.17871301588E+02 -0.50345676601E+02 -0.41215735454E+02  0.67603844727E+02  0.41800000000E+01 0. -1.
        -11    1    1    2    0    0  0.66820887233E+02  0.43241205303E+01 -0.23895870625E+02  0.71096706125E+02  0.00000000000E+00 0. -1.
         11    1    1    2    0    0  0.11803438231E+02  0.58188760069E+02  0.27333277099E+02  0.65363300019E+02  0.00000000000E+00 0.  1.
</event>
<event>
 7    1  0.2648915E-009  0.1223371E+03  0.7561462E-02  0.1239291E+00
          3   -1    0    0  501    0  0.00000000000E+00  0.00000000000E+00  0.38158431048E+03  0.38158431048E+03  0.00000000000E+00 0. -1.
         -3   -1    0    0    0  501 -0.00000000000E+00 -0.00000000000E+00 -0.53244993454E+02  0.53244993454E+02  0.00000000000E+00 0.  1.
         25    2    1    2    0    0 -0.42240306747E+01  0.89631375550E+02  0.15131136285E+03  0.21585902805E+03  0.12509342727E+03 0.  0.
          5    1    3    3  502    0 -0.48582894667E+02 -0.51667256441E+01  0.52978042783E+02  0.72188213201E+02  0.41800000000E+01 0. -1.
         -5    1    3    3    0  502  0.44358863992E+02  0.94798101194E+02  0.98333320064E+02  0.14367081485E+03  0.41800000000E+01 0. -1.
        -11    1    1    2    0    0 -0.49968655139E+01 -0.18395068726E+02 -0.78603722081E+01  0.20618745588E+02  0.00000000000E+00 0.  1.
         11    1    1    2    0    0  0.92208961886E+01 -0.71236306825E+02  0.18488832639E+03  0.19835153030E+03  0.00000000000E+00 0. -1.
</event>
<event>
 7    1  0.2648915E-009  0.8040559E+02  0.7561462E-02  0.1327904E+00
         -1   -1    0    0    0  501 -0.00000000000E+00  0.00000000000E+00  0.81453990298E+02  0.81453990298E+02  0.00000000000E+00 0.  1.
          1   -1    0    0  501    0  0.00000000000E+00 -0.00000000000E+00 -0.14771638507E+03  0.14771638507E+03  0.00000000000E+00 0. -1.
         25    2    1    2    0    0 -0.34973866485E+01  0.10235385555E+02 -0.31848153452E+02  0.12953226570E+03  0.12508920076E+03 0.  0.
          5    1    3    3  502    0  0.31455724023E+02  0.63017906468E+01  0.38790089881E+02  0.50510579210E+02  0.41800000000E+01 0. -1.
         -5    1    3    3    0  502 -0.34953110671E+02  0.39335949083E+01 -0.70638243332E+02  0.79021686489E+02  0.41800000000E+01 0. -1.
        -11    1    1    2    0    0  0.11874707935E+02 -0.50517306166E+02 -0.24121847908E+02  0.57226483881E+02  0.00000000000E+00 0.  1.
         11    1    1    2    0    0 -0.83773212864E+01  0.40281920611E+02 -0.10292393415E+02  0.42411625792E+02  0.00000000000E+00 0. -1.
</event>
<event>
 7    1  0.2648915E-009  0.8776107E+02  0.7561462E-02  0.1308366E+00
          1   -1    0    0  501    0  0.00000000000E+00  0.00000000000E+00  0.12777579618E+03  0.12777579618E+03  0.00000000000E+00 0. -1.
         -1   -1    0    0    0  501 -0.00000000000E+00 -0.00000000000E+00 -0.99521967545E+02  0.99521967545E+02  0.00000000000E+00 0.  1.
         25    2    1    2    0    0 -0.28237521720E+01  0.32445160792E+02 -0.10690170837E+02  0.12970895968E+03  0.12509785144E+03 0.  0.
          5    1    3    3  502    0 -0.17520114165E+02  0.63137832032E+02 -0.46251172676E+02  0.80311789969E+02  0.41800000000E+01 0.  1.
         -5    1    3    3    0  502  0.14696361993E+02 -0.30692671241E+02  0.35561001839E+02  0.49397169712E+02  0.41800000000E+01 0.  1.
        -11    1    1    2    0    0 -0.32397194687E+02 -0.10386319292E+02  0.44115002507E+02  0.55709849203E+02  0.00000000000E+00 0. -1.
         11    1    1    2    0    0  0.35220946859E+02 -0.22058841500E+02 -0.51710030375E+01  0.41878954839E+02  0.00000000000E+00 0.  1.
</event>
<event>
 7    1  0.2648915E-009  0.1212585E+03  0.7561462E-02  0.1241035E+00
          2   -1    0    0  501    0  0.00000000000E+00  0.00000000000E+00  0.76731344913E+02  0.76731344913E+02  0.00000000000E+00 0. -1.
         -2   -1    0    0    0  501 -0.00000000000E+00 -0.00000000000E+00 -0.31137466455E+03  0.31137466455E+03  0.00000000000E+00 0.  1.
         25    2    1    2    0    0 -0.87197577634E+02 -0.18145681412E+02 -0.45829328921E+02  0.16025020426E+03  0.12508843782E+03 0.  0.
          5    1    3    3  502    0 -0.76240878507E+02 -0.67994083022E+02 -0.27712528869E+02  0.10593074878E+03  0.41800000000E+01 0. -1.
         -5    1    3    3    0  502 -0.10956699127E+02  0.49848401610E+02 -0.18116800052E+02  0.54319455473E+02  0.41800000000E+01 0. -1.
        -11    1    1    2    0    0  0.55910823214E+02  0.11473017415E+02 -0.27417745332E+02  0.63319689198E+02  0.00000000000E+00 0. -1.
         11    1    1    2    0    0  0.31286754420E+02  0.66726639971E+01 -0.16139624539E+03  0.16453611601E+03  0.00000000000E+00 0.  1.
</event>
<event>
 7    1  0.2648915E-009  0.8345643E+02  0.7561462E-02  0.1319519E+00
         -2   -1    0    0    0  501 -0.00000000000E+00  0.00000000000E+00  0.64839604824E+02  0.64839604824E+02  0.00000000000E+00 0. -1.
          2   -1    0    0  501    0  0.00000000000E+00 -0.00000000000E+00 -0.22084088009E+03  0.22084088009E+03  0.00000000000E+00 0.  1.
         25    2    1    2    0    0 -0.19091701323E-01  0.49161672313E+01 -0.14767936843E+03  0.19359842267E+03  0.12508790644E+03 0.  0.
          5    1    3    3  502    0 -0.51433606479E+02  0.21738639625E+02 -0.12058463456E+03  0.13295153561E+03  0.41800000000E+01 0. -1.
         -5    1    3    3    0  502  0.51414514778E+02 -0.16822472394E+02 -0.27094733866E+02  0.60646887064E+02  0.41800000000E+01 0. -1.
        -11    1    1    2    0    0  0.26167797056E+02  0.81778139453E+01 -0.40304503724E+02  0.48745084512E+02  0.00000000000E+00 0.  1.
         11    1    1    2    0    0 -0.26148705355E+02 -0.13093981177E+02  0.31982596888E+02  0.43336977727E+02  0.00000000000E+00 0. -1.
</event>
<event>
 7    1  0.2648915E-009  0.1684321E+03  0.7561462E-02  0.1179493E+00
          2   -1    0    0  501    0  0.00000000000E+00  0.00000000000E+00  0.28090512781E+04  0.28090512781E+04  0.00000000000E+00 0. -1.
         -2   -1    0    0    0  501 -0.00000000000E+00 -0.00000000000E+00 -0.11613789731E+02  0.11613789731E+02  0.00000000000E+00 0.  1.
         25    2    1    2    0    0  0.12499324241E+03 -0.34312345450E+02  0.19736749481E+04  0.19818780822E+04  0.12508910525E+03 0.  0.
          5    1    3    3  502    0  0.12002976174E+03  0.22927038238E+02  0.13898655350E+04  0.13952334825E+04  0.41800000000E+01 0.  1.
         -5    1    3    3    0  502  0.49634806675E+01 -0.57239383688E+02  0.58380941300E+03  0.58664459965E+03  0.41800000000E+01 0.  1.
        -11    1    1    2    0    0 -0.92417262172E+02 -0.19151183670E+02  0.44662771445E+03  0.45649100046E+03  0.00000000000E+00 0.  1.
         11    1    1    2    0    0 -0.32575980238E+02  0.53463529120E+02  0.37713482585E+03  0.38229598521E+03  0.00000000000E+00 0. -1.
</event>
<event>
 7    1  0.2648915E-009  0.7064266E+02  0.7561462E-02  0.1357921E+00
         -2   -1    0    0    0  501 -0.00000000000E+00  0.00000000000E+00  0.33553317271E+02  0.33553317271E+02  0.00000000000E+00 0.  1.
          2   -1    0    0  501    0  0.00000000000E+00 -0.00000000000E+00 -0.38189161820E+03  0.38189161820E+03  0.00000000000E+00 0. -1.
         25    2    1    2    0    0  0.16808950502E+02  0.27941958927E+02 -0.17945182111E+03  0.22116637023E+03  0.12509321859E+03 0.  0.
          5    1    3    3  502    0  0.12872147677E+02  0.39283440827E+02 -0.28625845561E+00  0.41550394137E+02  0.41800000000E+01 0. -1.
         -5    1    3    3    0  502  0.39368028251E+01 -0.11341481901E+02 -0.17916556265E+03  0.17961597610E+03  0.41800000000E+01 0. -1.
        -11    1    1    2    0    0 -0.49611786236E+02 -0.16587639209E+02 -0.58093457471E+02  0.78174989025E+02  0.00000000000E+00 0.  1.
         11    1    1    2    0    0  0.32802835734E+02 -0.11354319718E+02 -0.11079302235E+03  0.11610357621E+03  0.00000000000E+00 0. -1.
</event>
<event>
 7    1  0.2648915E-009  0.1127382E+03  0.7561462E-02  0.1255581E+00
         -2   -1    0    0    0  501 -0.00000000000E+00  0.00000000000E+00  0.80438358460E+03  0.80438358460E+03  0.00000000000E+00 0.  1.
          2   -1    0    0  501    0  0.00000000000E+00 -0.00000000000E+00 -0.27767406414E+02  0.27767406414E+02  0.00000000000E+00 0. -1.
         25    2    1    2    0    0  0.14433925302E+01  0.68761021791E+02  0.20934491430E+03  0.25338489834E+03  0.12509377308E+03 0.  0.
          5    1    3    3  502    0  0.23053349220E+02 -0.13070413139E+02  0.14372713444E+03  0.14620962412E+03  0.41800000000E+01 0. -1.
         -5    1    3    3    0  502 -0.21609956690E+02  0.81831434930E+02  0.65617779865E+02  0.10717527423E+03  0.41800000000E+01 0. -1.
        -11    1    1    2    0    0  0.35902622077E+02 -0.67601877981E+02  0.41310891917E+03  0.42014044233E+03  0.00000000000E+00 0.  1.
         11    1    1    2    0    0 -0.37346014608E+02 -0.11591438098E+01  0.15416234471E+03  0.15862565034E+03  0.00000000000E+00 0. -1.
</event>
<event>
 7    1  0.2648915E-009  0.1086199E+03  0.7561462E-02  0.1263147E+00
         -2   -1    0    0    0  501 -0.00000000000E+00  0.00000000000E+00  0.76010327878E+02  0.76010327878E+02  0.00000000000E+00 0. -1.
          2   -1    0    0  501    0  0.00000000000E+00 -0.00000000000E+00 -0.24907704494E+03  0.24907704494E+03  0.00000000000E+00 0.  1.
         25    2    1    2    0    0 -0.34345379800E+02 -0.77437998584E+02 -0.97539692647E+02  0.17982144586E+03  0.12508202114E+03 0.  0.
          5    1    3    3  502    0 -0.45454827863E+02 -0.17056330487E+02 -0.10698842060E+03  0.11756298027E+03  0.41800000000E+01 0. -1.
         -5    1    3    3    0  502  0.11109448064E+02 -0.60381668097E+02  0.94487279568E+01  0.62258465596E+02  0.41800000000E+01 0. -1.
        -11    1    1    2    0    0  0.53812179691E+02  0.50986555511E+02 -0.83307154137E+02  0.11151440022E+03  0.00000000000E+00 0.  1.
         11    1    1    2    0    0 -0.19466799892E+02  0.26451443072E+02  0.77801297198E+01  0.33751526737E+02  0.00000000000E+00 0. -1.
</event>
<event>
 7    1  0.2648915E-009  0.1030458E+03  0.7561462E-02  0.1274018E+00
          2   -1    0    0  501    0  0.00000000000E+00  0.00000000000E+00  0.12651851567E+03  0.12651851567E+03  0.00000000000E+00 0. -1.
         -2   -1    0    0    0  501 -0.00000000000E+00 -0.00000000000E+00 -0.14030252087E+03  0.14030252087E+03  0.00000000000E+00 0.  1.
         25    2    1    2    0    0 -0.54788464517E+02  0.41959031795E+02 -0.53963630137E+02  0.15271754272E+03  0.12509291860E+03 0.  0.
          5    1    3    3  502    0  0.20323787029E+02 -0.20624757452E+02  0.15119794501E+02  0.32932013679E+02  0.41800000000E+01 0. -1.
         -5    1    3    3    0  502 -0.75112251547E+02  0.62583789248E+02 -0.69083424638E+02  0.11978552905E+03  0.41800000000E+01 0. -1.
        -11    1    1    2    0    0 -0.51205237664E+00 -0.19152811169E+02 -0.21077283484E+02  0.28484105259E+02  0.00000000000E+00 0.  1.
         11    1    1    2    0    0  0.55300516894E+02 -0.22806220626E+02  0.61256908426E+02  0.85619388563E+02  0.00000000000E+00 0. -1.
</event>
<event>
 7    1  0.2648915E-009  0.9328583E+02  0.7561462E-02  0.1295084E+00
         -1   -1    0    0    0  501 -0.00000000000E+00  0.00000000000E+00  0.76931135151E+03  0.76931135151E+03  0.00000000000E+00 0.  1.
          1   -1    0    0  501    0  0.00000000000E+00 -0.00000000000E+00 -0.21393788697E+02  0.21393788697E+02  0.00000000000E+00 0. -1.
         25    2    1    2    0    0 -0.57306690618E+02 -0.13376610409E+02  0.30913818332E+03  0.33863372488E+03  0.12507354933E+03 0.  0.
          5    1    3    3  502    0  0.11087247519E+02  0.32883532892E+01 -0.73890970635E+01  0.14346131197E+02  0.41800000000E+01 0.  1.
         -5    1    3    3    0  502 -0.68393938137E+02 -0.16664963698E+02  0.31652728038E+03  0.32428759368E+03  0.41800000000E+01 0.  1.
        -11    1    1    2    0    0  0.40194338138E+01  0.42730064325E+02  0.25214978763E+03  0.25577632737E+03  0.00000000000E+00 0.  1.
         11    1    1    2    0    0  0.53287256804E+02 -0.29353453917E+02  0.18662959187E+03  0.19629508796E+03  0.00000000000E+00 0. -1.
</event>
<event>
 7    1  0.2648915E-009  0.6155081E+02  0.7561462E-02  0.1391437E+00
          1   -1    0    0  501    0  0.00000000000E+00  0.00000000000E+00  0.91196610016E+02  0.91196610016E+02  0.00000000000E+00 0. -1.
         -1   -1    0    0    0  501 -0.00000000000E+00 -0.00000000000E+00 -0.13517831872E+03  0.13517831872E+03  0.00000000000E+00 0.  1.
         25    2    1    2    0    0 -0.13465944462E+02 -0.23297684292E+02 -0.30918802280E+02  0.13163516867E+03  0.12509089312E+03 0.  0.
          5    1    3    3  502    0 -0.36322535695E+02  0.57809440597E+01 -0.69051571125E+02  0.78347544878E+02  0.41800000000E+01 0.  1.
         -5    1    3    3    0  502  0.22856591232E+02 -0.29078628352E+02  0.38132768845E+02  0.53287623792E+02  0.41800000000E+01 0.  1.
        -11    1    1    2    0    0  0.28202649558E+02  0.14744525623E+02 -0.47002651254E+02  0.56763013511E+02  0.00000000000E+00 0.  1.
         11    1    1    2    0    0 -0.14736705095E+02  0.85531586693E+01  0.33939744827E+02  0.37976746559E+02  0.00000000000E+00 0. -1.
</event>
<event>
 7    1  0.2648915E-009  0.1076266E+03  0.7561462E-02  0.1265029E+00
         -3   -1    0    0    0  501 -0.00000000000E+00  0.00000000000E+00  0.66211047930E+02  0.66211047930E+02  0.00000000000E+00 0.  1.
          3   -1    0    0  501    0  0.00000000000E+00 -0.00000000000E+00 -0.19411607156E+03  0.19411607156E+03  0.00000000000E+00 0. -1.
         25    2    1    2    0    0  0.57392756472E+01 -0.32422136278E+02 -0.74206746970E+02  0.14912511972E+03  0.12509007086E+03 0.  0.
          5    1    3    3  502    0 -0.49465163237E+01 -0.80061192312E+02 -0.44612803714E+02  0.91880559387E+02  0.41800000000E+01 0. -1.
         -5    1    3    3    0  502  0.10685791971E+02  0.47639056033E+02 -0.29593943256E+02  0.57244560329E+02  0.41800000000E+01 0. -1.
        -11    1    1    2    0    0 -0.17030996936E+02 -0.23419486821E+02 -0.45084005405E+02  0.53582597575E+02  0.00000000000E+00 0. -1.
         11    1    1    2    0    0  0.11291721289E+02  0.55841623099E+02 -0.86142712508E+01  0.57619402194E+02  0.00000000000E+00 0.  1.
</event>
<event>
 7    1  0.2648915E-009  0.1239433E+03  0.7561462E-02  0.1236730E+00
         -1   -1    0    0    0  501 -0.00000000000E+00  0.00000000000E+00  0.15631037447E+03  0.15631037447E+03  0.00000000000E+00 0.  1.
          1   -1    0    0  501    0  0.00000000000E+00 -0.00000000000E+00 -0.11369774222E+03  0.11369774222E+03  0.00000000000E+00 0. -1.
         25    2    1    2    0    0  0.55625837129E+02  0.42893407876E+02  0.64906828606E+02  0.15745957189E+03  0.12508613905E+03 0.  0.
          5    1    3    3  502    0  0.25996515363E+02 -0.44048509352E+02  0.19347898206E+02  0.54844357523E+02  0.41800000000E+01 0.  1.
         -5    1    3    3    0  502  0.29629321766E+02  0.86941917229E+02  0.45558930400E+02  0.10261521436E+03  0.41800000000E+01 0.  1.
        -11    1    1    2    0    0  0.18410638911E+02  0.11990953015E+01 -0.18748641258E+02  0.26304011170E+02  0.00000000000E+00 0. -1.
         11    1    1    2    0    0 -0.74036476040E+02 -0.44092503178E+02 -0.35455551046E+01  0.86244533635E+02  0.00000000000E+00 0.  1.
</event>
<event>
 7    1  0.2648915E-009  0.1034396E+03  0.7561462E-02  0.1273225E+00
         -1   -1    0    0    0  501 -0.00000000000E+00  0.00000000000E+00  0.46220384406E+03  0.46220384406E+03  0.00000000000E+00 0.  1.
          1   -1    0    0  501    0  0.00000000000E+00 -0.00000000000E+00 -0.29839210807E+02  0.29839210807E+02  0.00000000000E+00 0. -1.
         25    2    1    2    0    0 -0.36157580667E+02 -0.27729650376E+02  0.27259445574E+03  0.30336809763E+03  0.12509261054E+03 0.  0.
          5    1    3    3  502    0  0.30301095230E+02 -0.31113653126E+02  0.20039865530E+03  0.20509341586E+03  0.41800000000E+01 0.  1.
         -5    1    3    3    0  502 -0.66458675896E+02  0.33840027500E+01  0.72195800441E+02  0.98274681774E+02  0.41800000000E+01 0.  1.
        -11    1    1    2    0    0  0.30745816905E+02  0.58094457152E+02  0.13067280666E+03  0.14627253197E+03  0.00000000000E+00 0.  1.
         11    1    1    2    0    0  0.54117637615E+01 -0.30364806776E+02  0.29097370849E+02  0.42402425259E+02  0.00000000000E+00 0. -1.
</event>
<event>
 7    1  0.2648915E-009  0.7995508E+02  0.7561462E-02  0.1329179E+00
         -2   -1    0    0    0  501 -0.00000000000E+00  0.00000000000E+00  0.31876057153E+02  0.31876057153E+02  0.00000000000E+00 0.  1.
          2   -1    0    0  501    0  0.00000000000E+00 -0.00000000000E+00 -0.42876629148E+03  0.42876629148E+03  0.00000000000E+00 0. -1.
         25    2    1    2    0    0 -0.33129577236E+02 -0.20719107773E+02 -0.18993296670E+03  0.23075620110E+03  0.12508813769E+03 0.  0.
          5    1    3    3  502    0 -0.46910150844E+02 -0.26832521918E+02 -0.20316185715E+03  0.21026830262E+03  0.41800000000E+01 0.  1.
         -5    1    3    3    0  502  0.13780573609E+02  0.61134141451E+01  0.13228890450E+02  0.20487898478E+02  0.41800000000E+01 0.  1.
        -11    1    1    2    0    0  0.78522040772E+01  0.50439009888E+02 -0.16443835895E+03  0.17217933884E+03  0.00000000000E+00 0.  1.
         11    1    1    2    0    0  0.25277373158E+02 -0.29719902115E+02 -0.42518908670E+02  0.57706808697E+02  0.00000000000E+00 0. -1.
</event>
<event>
 7    1  0.2648915E-009  0.1294566E+03  0.7561462E-02  0.1228264E+00
          1   -1    0    0  501    0  0.00000000000E+00  0.00000000000E+00  0.21528944363E+03  0.21528944363E+03  0.00000000000E+00 0. -1.
         -1   -1    0    0    0  501 -0.00000000000E+00 -0.00000000000E+00 -0.82610779457E+02  0.82610779457E+02  0.00000000000E+00 0.  1.
         25    2    1    2    0    0 -0.19879574244E+02  0.74909920361E+02  0.80920564445E+02  0.16794611026E+03  0.12510421480E+03 0.  0.
          5    1    3    3  502    0  0.27997413547E+02  0.91850457391E+02  0.55733269463E+02  0.11110369667E+03  0.41800000000E+01 0. -1.
         -5    1    3    3    0  502 -0.47876987791E+02 -0.16940537030E+02  0.25187294982E+02  0.56842413595E+02  0.41800000000E+01 0. -1.
        -11    1    1    2    0    0 -0.31311643740E+02 -0.34766035248E+02 -0.54654523445E-01  0.46787810674E+02  0.00000000000E+00 0.  1.
         11    1    1    2    0    0  0.51191217984E+02 -0.40143885113E+02  0.51812754255E+02  0.83166302155E+02  0.00000000000E+00 0. -1.
</event>
<event>
 7    1  0.2648915E-009  0.1036032E+03  0.7561462E-02  0.1272896E+00
         -2   -1    0    0    0  501 -0.00000000000E+00  0.00000000000E+00  0.17463959425E+03  0.17463959425E+03  0.00000000000E+00 0.  1.
          2   -1    0    0  501    0  0.00000000000E+00 -0.00000000000E+00 -0.79271192485E+02  0.79271192485E+02  0.00000000000E+00 0. -1.
         25    2    1    2    0    0  0.32003671741E+02 -0.32573311751E+02  0.45375131062E+02  0.14069251387E+03  0.12510086049E+03 0.  0.
          5    1    3    3  502    0  0.31828190200E+02  0.29467214201E+02 -0.22163769772E+02  0.48888193817E+02  0.41800000000E+01 0. -1.
         -5    1    3    3    0  502  0.17548154076E+00 -0.62040525952E+02  0.67538900834E+02  0.91804320051E+02  0.41800000000E+01 0. -1.
        -11    1    1    2    0    0 -0.56635758267E+02 -0.46366282790E+01  0.30873024111E+02  0.64670325915E+02  0.00000000000E+00 0.  1.
         11    1    1    2    0    0  0.24632086525E+02  0.37209940030E+02  0.19120246597E+02  0.48547946955E+02  0.00000000000E+00 0. -1.
</event>
<event>
 7    1  0.2648915E-009  0.1098141E+03  0.7561462E-02  0.1260915E+00
          3   -1    0    0  501    0  0.00000000000E+00  0.00000000000E+00  0.11440977209E+03  0.11440977209E+03  0.00000000000E+00 0. -1.
         -3   -1    0    0    0  501 -0.00000000000E+00 -0.00000000000E+00 -0.14402215373E+03  0.14402215373E+03  0.00000000000E+00 0.  1.
         25    2    1    2    0    0 -0.54020548587E+02  0.41035816585E+02 -0.94360286887E+01  0.14260520871E+03  0.12508017029E+03 0.  0.
          5    1    3    3  502    0 -0.82609517127E+02  0.57258575884E+02  0.14621749655E+02  0.10165699580E+03  0.41800000000E+01 0.  1.
         -5    1    3    3    0  502  0.28588968540E+02 -0.16222759299E+02 -0.24057778343E+02  0.40948212907E+02  0.41800000000E+01 0.  1.
        -11    1    1    2    0    0  0.17405115064E+02 -0.45774246075E+02 -0.48780940575E+02  0.69121630460E+02  0.00000000000E+00 0.  1.
         11    1    1    2    0    0  0.36615433523E+02  0.47384294899E+01  0.28604587620E+02  0.46705086650E+02  0.00000000000E+00 0. -1.
</event>
<event>
 7    1  0.2648915E-009  0.9879279E+02  0.7561462E-02  0.1282855E+00
         -1   -1    0    0    0  501 -0.00000000000E+00  0.00000000000E+00  0.39645896285E+03  0.39645896285E+03  0.00000000000E+00 0.  1.
          1   -1    0    0  501    0  0.00000000000E+00 -0.00000000000E+00 -0.56896212711E+02  0.56896212711E+02  0.00000000000E+00 0. -1.
         25    2    1    2    0    0 -0.94290223535E+02  0.98024968483E+01  0.24823920261E+03  0.29369634896E+03  0.12509239978E+03 0.  0.
          5    1    3    3  502    0 -0.75377359170E+02 -0.86920554810E+01  0.25499416208E+03  0.26607666790E+03  0.41800000000E+01 0. -1.
         -5    1    3    3    0  502 -0.18912864365E+02  0.18494552329E+02 -0.67549594772E+01  0.27619681061E+02  0.41800000000E+01 0. -1.
        -11    1    1    2    0    0  0.60408891838E+02 -0.54835399397E+01 -0.15777443067E+01  0.60677777649E+02  0.00000000000E+00 0. -1.
         11    1    1    2    0    0  0.33881331697E+02 -0.43189569086E+01  0.92901291839E+02  0.98981048952E+02  0.00000000000E+00 0.  1.
</event>
<event>
 7    1  0.2648915E-009  0.2797386E+03  0.7561462E-02  0.1095832E+00
         -1   -1    0    0    0  501 -0.00000000000E+00  0.00000000000E+00  0.12456965500E+03  0.12456965500E+03  0.00000000000E+00 0.  1.
          1   -1    0    0  501    0  0.00000000000E+00 -0.00000000000E+00 -0.73865633207E+03  0.73865633207E+03  0.00000000000E+00 0. -1.
         25    2    1    2    0    0 -0.20852795676E+03  0.15415993351E+03 -0.15566688620E+03  0.32731103515E+03  0.12510451800E+03 0.  0.
          5    1    3    3  502    0 -0.21522320349E+03  0.11897236946E+03 -0.11082801649E+03  0.26976985312E+03  0.41800000000E+01 0.  1.
         -5    1    3    3    0  502  0.66952467297E+01  0.35187564047E+02 -0.44838869711E+02  0.57541182029E+02  0.41800000000E+01 0.  1.
        -11    1    1    2    0    0  0.16256567525E+03 -0.61096277641E+02 -0.27901519789E+03  0.32864849698E+03  0.00000000000E+00 0. -1.
         11    1    1    2    0    0  0.45962281506E+02 -0.93063655867E+02 -0.17940459297E+03  0.20726645494E+03  0.00000000000E+00 0.  1.
</event>
<event>
 7    1  0.2648915E-009  0.1538167E+03  0.7561462E-02  0.1195860E+00
         -2   -1    0    0    0  501 -0.00000000000E+00  0.00000000000E+00  0.17077749889E+02  0.17077749889E+02  0.00000000000E+00 0.  1.
          2   -1    0    0  501    0  0.00000000000E+00 -0.00000000000E+00 -0.14955157782E+04  0.14955157782E+04  0.00000000000E+00 0. -1.
         25    2    1    2    0    0 -0.11353673515E+03  0.18672485352E+02 -0.68505679544E+03  0.70582342095E+03  0.12507852194E+03 0.  0.
          5    1    3    3  502    0 -0.11430525580E+03  0.54050782387E+02 -0.42789997963E+03  0.44620964081E+03  0.41800000000E+01 0.  1.
         -5    1    3    3    0  502  0.76852065428E+00 -0.35378297036E+02 -0.25715681581E+03  0.25961378015E+03  0.41800000000E+01 0.  1.
        -11    1    1    2    0    0  0.89300517179E+02 -0.52717846839E+02 -0.60346666062E+03  0.61231181944E+03  0.00000000000E+00 0.  1.
         11    1    1    2    0    0  0.24236217971E+02  0.34045361488E+02 -0.18991457222E+03  0.19445828767E+03  0.00000000000E+00 0. -1.
</event>
<event>
 7    1  0.2648915E-009  0.1520014E+03  0.7561462E-02  0.1198035E+00
          1   -1    0    0  501    0  0.00000000000E+00  0.00000000000E+00  0.90854446528E+03  0.90854446528E+03  0.00000000000E+00 0. -1.
         -1   -1    0    0    0  501 -0.00000000000E+00 -0.00000000000E+00 -0.55124713623E+02  0.55124713623E+02  0.00000000000E+00 0.  1.
         25    2    1    2    0    0  0.10715262275E+03 -0.72120220591E+02  0.75929602781E+03  0.78029679875E+03  0.12509846327E+03 0.  0.
          5    1    3    3  502    0  0.98437765701E+01  0.13636814476E+02  0.36052405274E+03  0.36094033807E+03  0.41800000000E+01 0. -1.
         -5    1    3    3    0  502  0.97308846179E+02 -0.85757035067E+02  0.39877197507E+03  0.41935646068E+03  0.41800000000E+01 0. -1.
        -11    1    1    2    0    0  0.15592677739E+02  0.25177966096E+01  0.54077161903E+01  0.16694738490E+02  0.00000000000E+00 0. -1.
         11    1    1    2    0    0 -0.12274530049E+03  0.69602423981E+02  0.88716007660E+02  0.16667764167E+03  0.00000000000E+00 0.  1.
</event>
<event>
 7    1  0.2648915E-009  0.1122018E+03  0.7561462E-02  0.1256546E+00
          1   -1    0    0  501    0  0.00000000000E+00  0.00000000000E+00  0.94898471361E+02  0.94898471361E+02  0.00000000000E+00 0. -1.
         -1   -1    0    0    0  501 -0.00000000000E+00 -0.00000000000E+00 -0.25816483406E+03  0.25816483406E+03  0.00000000000E+00 0.  1.
         25    2    1    2    0    0 -0.97026757156E+01 -0.36676432540E+02  0.30365841307E+02  0.13419681230E+03  0.12508955789E+03 0.  0.
          5    1    3    3  502    0  0.49238613798E+01 -0.82230956895E+02  0.22798614036E+02  0.85577005584E+02  0.41800000000E+01 0. -1.
         -5    1    3    3    0  502 -0.14626537095E+02  0.45554524355E+02  0.75672272701E+01  0.48619806717E+02  0.41800000000E+01 0. -1.
        -11    1    1    2    0    0  0.37930830116E+01  0.64923062442E+02 -0.16844230078E+03  0.18056079366E+03  0.00000000000E+00 0.  1.
         11    1    1    2    0    0  0.59095927040E+01 -0.28246629902E+02 -0.25189903234E+02  0.38305699467E+02  0.00000000000E+00 0. -1.
</event>
<event>
 7    1  0.2648915E-009  0.1439451E+03  0.7561462E-02  0.1208117E+00
          1   -1    0    0  501    0  0.00000000000E+00  0.00000000000E+00  0.80881087204E+03  0.80881087204E+03  0.00000000000E+00 0. -1.
         -1   -1    0    0    0  501 -0.00000000000E+00 -0.00000000000E+00 -0.40692640152E+02  0.40692640152E+02  0.00000000000E+00 0.  1.
         25    2    1    2    0    0 -0.11705516042E+03 -0.74632478106E+02  0.30415438773E+03  0.35697297861E+03  0.12509156052E+03 0.  0.
          5    1    3    3  502    0 -0.83795023160E+01 -0.85481148238E+01 -0.11194806636E+02  0.16913971199E+02  0.41800000000E+01 0. -1.
         -5    1    3    3    0  502 -0.10867565811E+03 -0.66084363282E+02  0.31534919436E+03  0.34005900741E+03  0.41800000000E+01 0. -1.
        -11    1    1    2    0    0  0.10898042009E+03  0.46154724771E+02  0.43611618012E+03  0.45188971348E+03  0.00000000000E+00 0. -1.
         11    1    1    2    0    0  0.80747403344E+01  0.28477753335E+02  0.27847664035E+02  0.40640820104E+02  0.00000000000E+00 0.  1.
</event>
<event>
 7    1  0.2648915E-009  0.1092114E+03  0.7561462E-02  0.1262037E+00
          1   -1    0    0  501    0  0.00000000000E+00  0.00000000000E+00  0.91448801686E+02  0.91448801686E+02  0.00000000000E+00 0. -1.
         -1   -1    0    0    0  501 -0.00000000000E+00 -0.00000000000E+00 -0.27177272483E+03  0.27177272483E+03  0.00000000000E+00 0.  1.
         25    2    1    2    0    0 -0.44101521319E+02  0.36074646717E+02  0.15849256091E+02  0.13836443782E+03  0.12508874616E+03 0.  0.
          5    1    3    3  502    0 -0.81738091094E+02  0.15579250903E+02  0.36078359725E+02  0.90790688040E+02  0.41800000000E+01 0. -1.
         -5    1    3    3    0  502  0.37636569775E+02  0.20495395813E+02 -0.20229103634E+02  0.47573749776E+02  0.41800000000E+01 0. -1.
        -11    1    1    2    0    0 -0.19973867025E+02 -0.39048949883E+01 -0.11399877205E+03  0.11580122451E+03  0.00000000000E+00 0.  1.
         11    1    1    2    0    0  0.64075388344E+02 -0.32169751728E+02 -0.82174407182E+02  0.10905586419E+03  0.00000000000E+00 0. -1.
</event>
<event>
 7    1  0.2648915E-009  0.1448445E+03  0.7561462E-02  0.1206955E+00
         -2   -1    0    0    0  501 -0.00000000000E+00  0.00000000000E+00  0.68829811407E+02  0.68829811407E+02  0.00000000000E+00 0.  1.
          2   -1    0    0  501    0  0.00000000000E+00 -0.00000000000E+00 -0.34798187946E+03  0.34798187946E+03  0.00000000000E+00 0. -1.
         25    2    1    2    0    0 -0.85145966395E+02  0.49307977377E+02 -0.21388300255E+03  0.26659756572E+03  0.12508881262E+03 0.  0.
          5    1    3    3  502    0 -0.48267699103E+02  0.88745459912E+02 -0.10975356428E+03  0.14922749312E+03  0.41800000000E+01 0. -1.
         -5    1    3    3    0  502 -0.36878267292E+02 -0.39437482535E+02 -0.10412943827E+03  0.11737007259E+03  0.41800000000E+01 0. -1.
        -11    1    1    2    0    0  0.72243317235E+02 -0.75951020340E+02 -0.57723328744E+02  0.11966468592E+03  0.00000000000E+00 0. -1.
         11    1    1    2    0    0  0.12902649161E+02  0.26643042963E+02 -0.75457367616E+01  0.30549439225E+02  0.00000000000E+00 0.  1.
</event>
<event>
 7    1  0.2648915E-009  0.1023220E+03  0.7561462E-02  0.1275487E+00
         -2   -1    0    0    0  501 -0.00000000000E+00  0.00000000000E+00  0.23786802631E+02  0.23786802631E+02  0.00000000000E+00 0. -1.
          2   -1    0    0  501    0  0.00000000000E+00 -0.00000000000E+00 -0.89299300348E+03  0.89299300348E+03  0.00000000000E+00 0.  1.
         25    2    1    2    0    0  0.43538585372E+02  0.41941105170E+02 -0.70463814641E+03  0.71820317758E+03  0.12508485992E+03 0.  0.
          5    1    3    3  502    0  0.24337204971E+01  0.54523804859E+02 -0.62679773507E+03  0.62918331302E+03  0.41800000000E+01 0. -1.
         -5    1    3    3    0  502  0.41104864875E+02 -0.12582699689E+02 -0.77840411340E+02  0.89019864555E+02  0.41800000000E+01 0.  1.
        -11    1    1    2    0    0 -0.34660141664E+02  0.22723211856E+02 -0.38279866885E+02  0.56418241607E+02  0.00000000000E+00 0. -1.
         11    1    1    2    0    0 -0.88784437075E+01 -0.64664317026E+02 -0.12628818756E+03  0.14215838693E+03  0.00000000000E+00 0.  1.
</event>
<event>
 7    1  0.2648915E-009  0.1228968E+03  0.7561462E-02  0.1238393E+00
          1   -1    0    0  501    0  0.00000000000E+00  0.00000000000E+00  0.21629867487E+02  0.21629867487E+02  0.00000000000E+00 0. -1.
         -1   -1    0    0    0  501 -0.00000000000E+00 -0.00000000000E+00 -0.10023648938E+04  0.10023648938E+04  0.00000000000E+00 0.  1.
         25    2    1    2    0    0 -0.36418538867E+02 -0.82373130191E+02 -0.37204942858E+03  0.40271772547E+03  0.12509654894E+03 0.  0.
          5    1    3    3  502    0 -0.35830756369E+02  0.10700171989E+02 -0.29756398023E+02  0.47971370691E+02  0.41800000000E+01 0. -1.
         -5    1    3    3    0  502 -0.58778249730E+00 -0.93073302181E+02 -0.34229303055E+03  0.35474635478E+03  0.41800000000E+01 0. -1.
        -11    1    1    2    0    0  0.26261404059E+01 -0.13286974089E+02 -0.21637530024E+02  0.25526907361E+02  0.00000000000E+00 0. -1.
         11    1    1    2    0    0  0.33792398461E+02  0.95660104281E+02 -0.58704806767E+03  0.59575012841E+03  0.00000000000E+00 0.  1.
</event>
<event>
 7    1  0.2648915E-009  0.9745078E+02  0.7561462E-02  0.1285750E+00
         -1   -1    0    0    0  501 -0.00000000000E+00  0.00000000000E+00  0.19268663205E+02  0.19268663205E+02  0.00000000000E+00 0.  1.
          1   -1    0    0  501    0  0.00000000000E+00 -0.00000000000E+00 -0.16714446622E+04  0.16714446622E+04  0.00000000000E+00 0. -1.
         25    2    1    2    0    0  0.74155254632E+02 -0.37264056598E+01 -0.14483534546E+04  0.14556399217E+04  0.12508782551E+03 0.  0.
          5    1    3    3  502    0  0.71122763013E+02  0.46426832872E+01 -0.34829220097E+03  0.35553471221E+03  0.41800000000E+01 0.  1.
         -5    1    3    3    0  502  0.30324916192E+01 -0.83690889470E+01 -0.11000612537E+04  0.11001052094E+04  0.41800000000E+01 0.  1.
        -11    1    1    2    0    0 -0.47750874705E+02  0.44383325492E+02 -0.88023035557E+02  0.10953574944E+03  0.00000000000E+00 0.  1.
         11    1    1    2    0    0 -0.26404379928E+02 -0.40656919833E+02 -0.11579950885E+03  0.12553765435E+03  0.00000000000E+00 0. -1.
</event>
<event>
 7    1  0.2648915E-009  0.1077482E+03  0.7561462E-02  0.1264798E+00
         -2   -1    0    0    0  501 -0.00000000000E+00  0.00000000000E+00  0.11051753625E+03  0.11051753625E+03  0.00000000000E+00 0.  1.
          2   -1    0    0  501    0  0.00000000000E+00 -0.00000000000E+00 -0.13903209841E+03  0.13903209841E+03  0.00000000000E+00 0. -1.
         25    2    1    2    0    0  0.35192946905E+02  0.20746231282E+02 -0.60674730174E+02  0.14491656263E+03  0.12510170909E+03 0.  0.
          5    1    3    3  502    0  0.74453074058E+02  0.41384279696E+02 -0.50858074716E+02  0.99297205432E+02  0.41800000000E+01 0.  1.
         -5    1    3    3    0  502 -0.39260127153E+02 -0.20638048414E+02 -0.98166554575E+01  0.45619357194E+02  0.41800000000E+01 0.  1.
        -11    1    1    2    0    0 -0.90333434974E+01 -0.47436594143E+02  0.44103710163E+02  0.65398539806E+02  0.00000000000E+00 0.  1.
         11    1    1    2    0    0 -0.26159603408E+02  0.26690362861E+02 -0.11943542153E+02  0.39234532230E+02  0.00000000000E+00 0. -1.
</event>
<event>
 7    1  0.2648915E-009  0.1059313E+03  0.7561462E-02  0.1268295E+00
         -1   -1    0    0    0  501 -0.00000000000E+00  0.00000000000E+00  0.30133270187E+02  0.30133270187E+02  0.00000000000E+00 0.  1.
          1   -1    0    0  501    0  0.00000000000E+00 -0.00000000000E+00 -0.59943151085E+03  0.59943151085E+03  0.00000000000E+00 0. -1.
         25    2    1    2    0    0  0.55103787319E+01 -0.76903673678E+02 -0.35221268411E+03  0.38164044642E+03  0.12510442116E+03 0.  0.
          5    1    3    3  502    0  0.27147623193E+02 -0.66172644129E+02 -0.34974178518E+03  0.35700504335E+03  0.41800000000E+01 0.  1.
         -5    1    3    3    0  502 -0.21637244461E+02 -0.10731029548E+02 -0.24708989373E+01  0.24635403074E+02  0.41800000000E+01 0.  1.
        -11    1    1    2    0    0  0.18081763509E+02 -0.13313028116E+02 -0.20770321444E+02  0.30587467076E+02  0.00000000000E+00 0.  1.
         11    1    1    2    0    0 -0.23592142241E+02  0.90216701793E+02 -0.19631523510E+03  0.21733686754E+03  0.00000000000E+00 0. -1.
</event>
<event>
 7    1  0.2648915E-009  0.1147125E+03  0.7561462E-02  0.1252084E+00
         -1   -1    0    0    0  501 -0.00000000000E+00  0.00000000000E+00  0.85474114538E+02  0.85474114538E+02  0.00000000000E+00 0.  1.
          1   -1    0    0  501    0  0.00000000000E+00 -0.00000000000E+00 -0.17219333129E+03  0.17219333129E+03  0.00000000000E+00 0. -1.
         25    2    1    2    0    0  0.74076576223E+01  0.41747097269E+02 -0.10657482747E+02  0.13251255926E+03  0.12509317687E+03 0.  0.
          5    1    3    3  502    0  0.36247366979E+02 -0.34489903359E+02 -0.43005709058E-01  0.50208557997E+02  0.41800000000E+01 0. -1.
         -5    1    3    3    0  502 -0.28839709356E+02  0.76237000628E+02 -0.10614477038E+02  0.82304001259E+02  0.41800000000E+01 0. -1.
        -11    1    1    2    0    0 -0.34923739775E+02  0.12238706825E+02 -0.17682478989E+02  0.41013700245E+02  0.00000000000E+00 0. -1.
         11    1    1    2    0    0  0.27516082153E+02 -0.53985804093E+02 -0.58379255018E+02  0.84141186330E+02  0.00000000000E+00 0.  1.
</event>
<event>
 7    1  0.2648915E-009  0.1187299E+03  0.7561462E-02  0.1245207E+00
          2   -1    0    0  501    0  0.00000000000E+00  0.00000000000E+00  0.11043564631E+04  0.11043564631E+04  0.00000000000E+00 0. -1.
         -2   -1    0    0    0  501 -0.00000000000E+00 -0.00000000000E+00 -0.21367863101E+02  0.21367863101E+02  0.00000000000E+00 0.  1.
         25    2    1    2    0    0  0.77451354799E+01 -0.86945017175E+02  0.82736976848E+03  0.84131301955E+03  0.12508972750E+03 0.  0.
          5    1    3    3  502    0  0.11385142592E+02 -0.10367716026E+03  0.39424759784E+03  0.40783233790E+03  0.41800000000E+01 0. -1.
         -5    1    3    3    0  502 -0.36400071120E+01  0.16732143080E+02  0.43312217064E+03  0.43348068165E+03  0.41800000000E+01 0. -1.
        -11    1    1    2    0    0  0.31035880727E+02  0.62012079647E+02  0.20265905235E+03  0.21419480716E+03  0.00000000000E+00 0. -1.
         11    1    1    2    0    0 -0.38781016207E+02  0.24932937528E+02  0.52959779164E+02  0.70216499492E+02  0.00000000000E+00 0.  1.
</event>
<event>
 7    1  0.2648915E-009  0.1125384E+03  0.7561462E-02  0.1255940E+00
          4   -1    0    0  501    0  0.00000000000E+00  0.00000000000E+00  0.38356034676E+03  0.38356034676E+03  0.00000000000E+00 0.  1.
         -4   -1    0    0    0  501 -0.00000000000E+00 -0.00000000000E+00 -0.46457444967E+02  0.46457444967E+02  0.00000000000E+00 0. -1.
         25    2    1    2    0    0  0.32848351953E+01 -0.75344472694E+02  0.21161579309E+03  0.25713017280E+03  0.12508837745E+03 0.  0.
          5    1    3    3  502    0  0.60057117332E+02 -0.64210599693E+02  0.13050664859E+03  0.15741447259E+03  0.41800000000E+01 0. -1.
         -5    1    3    3    0  502 -0.56772282136E+02 -0.11133873001E+02  0.81109144500E+02  0.99715700211E+02  0.41800000000E+01 0. -1.
        -11    1    1    2    0    0 -0.13436087819E+02  0.49368653885E+02  0.13423798565E+03  0.14365802878E+03  0.00000000000E+00 0.  1.
         11    1    1    2    0    0  0.10151252623E+02  0.25975818809E+02 -0.87508769457E+01  0.29229590144E+02  0.00000000000E+00 0. -1.
</event>
<event>
 7    1  0.2648915E-009  0.1176878E+03  0.7561462E-02  0.1246961E+00
          1   -1    0    0  501    0  0.00000000000E+00  0.00000000000E+00  0.37817378076E+02  0.37817378076E+02  0.00000000000E+00 0. -1.
         -1   -1    0    0    0  501 -0.00000000000E+00 -0.00000000000E+00 -0.62783281331E+03  0.62783281331E+03  0.00000000000E+00 0.  1.
         25    2    1    2    0    0 -0.94574983550E+02 -0.34517161574E+02 -0.41285626528E+03  0.44298253159E+03  0.12508943026E+03 0.  0.
          5    1    3    3  502    0 -0.17037353512E+02 -0.51759401338E+02 -0.29984941054E+03  0.30478918688E+03  0.41800000000E+01 0.  1.
         -5    1    3    3    0  502 -0.77537630038E+02  0.17242239764E+02 -0.11300685474E+03  0.13819334471E+03  0.41800000000E+01 0.  1.
        -11    1    1    2    0    0  0.46361215418E+02  0.22297609008E+02 -0.16304090130E+03  0.17096456112E+03  0.00000000000E+00 0.  1.
         11    1    1    2    0    0  0.48213768132E+02  0.12219552566E+02 -0.14118268658E+02  0.51703098672E+02  0.00000000000E+00 0. -1.
</event>
<event>
 7    1  0.2648915E-009  0.2249966E+03  0.7561462E-02  0.1130212E+00
          1   -1    0    0  501    0  0.00000000000E+00  0.00000000000E+00  0.69494521637E+02  0.69494521637E+02  0.00000000000E+00 0. -1.
         -1   -1    0    0    0  501 -0.00000000000E+00 -0.00000000000E+00 -0.92698460433E+03  0.92698460433E+03  0.00000000000E+00 0.  1.
         25    2    1    2    0    0  0.18876000769E+03 -0.64736833252E+02 -0.66283344632E+03  0.70343183347E+03  0.12508784393E+03 0.  0.
          5    1    3    3  502    0  0.12659520254E+03 -0.10220476131E+03 -0.45095316252E+03  0.47942505747E+03  0.41800000000E+01 0. -1.
         -5    1    3    3    0  502  0.62164805144E+02  0.37467928061E+02 -0.21188028380E+03  0.22400677600E+03  0.41800000000E+01 0. -1.
        -11    1    1    2    0    0 -0.85310558172E+02 -0.11424323790E+02 -0.10794327010E+03  0.13805852408E+03  0.00000000000E+00 0.  1.
         11    1    1    2    0    0 -0.10344944952E+03  0.76161157042E+02 -0.86713366275E+02  0.15498876843E+03  0.00000000000E+00 0. -1.
</event>
<event>
 7    1  0.2648915E-009  0.1175868E+03  0.7561462E-02  0.1247132E+00
          2   -1    0    0  501    0  0.00000000000E+00  0.00000000000E+00  0.69266200820E+03  0.69266200820E+03  0.00000000000E+00 0. -1.
         -2   -1    0    0    0  501 -0.00000000000E+00 -0.00000000000E+00 -0.25263355723E+02  0.25263355723E+02  0.00000000000E+00 0.  1.
         25    2    1    2    0    0  0.50879402524E+02  0.53689362883E+02  0.39946632008E+03  0.42507833299E+03  0.12508791712E+03 0.  0.
          5    1    3    3  502    0  0.22402905513E+02  0.84136037050E+02  0.16217607897E+03  0.18411766862E+03  0.41800000000E+01 0. -1.
         -5    1    3    3    0  502  0.28476497010E+02 -0.30446674167E+02  0.23729024111E+03  0.24096066438E+03  0.41800000000E+01 0. -1.
        -11    1    1    2    0    0 -0.67812814680E+01  0.19508395835E+02  0.14077532072E+02  0.24994803373E+02  0.00000000000E+00 0.  1.
         11    1    1    2    0    0 -0.44098121056E+02 -0.73197758718E+02  0.25385480032E+03  0.26785222755E+03  0.00000000000E+00 0. -1.
</event>
<event>
 7    1  0.2648915E-009  0.1428940E+03  0.7561462E-02  0.1209487E+00
          1   -1    0    0  501    0  0.00000000000E+00  0.00000000000E+00  0.31095971468E+03  0.31095971468E+03  0.00000000000E+00 0. -1.
         -1   -1    0    0    0  501 -0.00000000000E+00 -0.00000000000E+00 -0.78480883896E+02  0.78480883896E+02  0.00000000000E+00 0.  1.
         25    2    1    2    0    0 -0.99347916021E+02 -0.51450319939E+02  0.13091202719E+03  0.21284625499E+03  0.12509366716E+03 0.  0.
          5    1    3    3  502    0 -0.37931310808E+02 -0.79457353784E+02  0.33582498403E+02  0.94326624072E+02  0.41800000000E+01 0.  1.
         -5    1    3    3    0  502 -0.61416605214E+02  0.28007033845E+02  0.97329528783E+02  0.11851963092E+03  0.41800000000E+01 0.  1.
        -11    1    1    2    0    0 -0.92594809202E+01  0.10350056097E+02 -0.87579203292E+01  0.16418368269E+02  0.00000000000E+00 0.  1.
         11    1    1    2    0    0  0.10860739694E+03  0.41100263842E+02  0.11032472393E+03  0.16017597532E+03  0.00000000000E+00 0. -1.
</event>
<event>
 7    1  0.2648915E-009  0.1440589E+03  0.7561462E-02  0.1207969E+00
          2   -1    0    0  501    0  0.00000000000E+00  0.00000000000E+00  0.39475585446E+03  0.39475585446E+03  0.00000000000E+00 0. -1.
         -2   -1    0    0    0  501 -0.00000000000E+00 -0.00000000000E+00 -0.61867186660E+02  0.61867186660E+02  0.00000000000E+00 0.  1.
         25    2    1    2    0    0  0.34753254846E+01  0.68130581272E+02  0.25121339634E+03  0.28880601236E+03  0.12508752250E+03 0.  0.
          5    1    3    3  502    0 -0.33838769845E+02 -0.24342230268E+02  0.88638434555E+02  0.98040047937E+02  0.41800000000E+01 0. -1.
         -5    1    3    3    0  502  0.37314095329E+02  0.92472811540E+02  0.16257496178E+03  0.19076596443E+03  0.41800000000E+01 0. -1.
        -11    1    1    2    0    0  0.51533894200E+02  0.83545790183E+01  0.33147464267E+02  0.61840889622E+02  0.00000000000E+00 0. -1.
         11    1    1    2    0    0 -0.55009219684E+02 -0.76485160291E+02  0.48527807194E+02  0.10597613914E+03  0.00000000000E+00 0.  1.
</event>
<event>
 7    1  0.2648915E-009  0.1530095E+03  0.7561462E-02  0.1196823E+00
         -2   -1    0    0    0  501 -0.00000000000E+00  0.00000000000E+00  0.28002153536E+03  0.28002153536E+03  0.00000000000E+00 0.  1.
          2   -1    0    0  501    0  0.00000000000E+00 -0.00000000000E+00 -0.10973924666E+03  0.10973924666E+03  0.00000000000E+00 0. -1.
         25    2    1    2    0    0 -0.38924945068E+02 -0.10473289230E+03  0.65318360270E+00  0.16772659272E+03  0.12509057990E+03 0.  0.
          5    1    3    3  502    0 -0.72246995933E+02 -0.22457206277E+02 -0.15666309633E+02  0.77374803345E+02  0.41800000000E+01 0. -1.
         -5    1    3    3    0  502  0.33322050865E+02 -0.82275686022E+02  0.16319493235E+02  0.90351789377E+02  0.41800000000E+01 0. -1.
        -11    1    1    2    0    0 -0.23973108641E+02  0.58792264248E+02  0.94261804180E+02  0.11365090409E+03  0.00000000000E+00 0.  1.
         11    1    1    2    0    0  0.62898053708E+02  0.45940628051E+02  0.75367300918E+02  0.10838328521E+03  0.00000000000E+00 0. -1.
</event>
<event>
 7    1  0.2648915E-009  0.1089059E+03  0.7561462E-02  0.1262610E+00
         -1   -1    0    0    0  501 -0.00000000000E+00  0.00000000000E+00  0.23878464197E+03  0.23878464197E+03  0.00000000000E+00 0.  1.
          1   -1    0    0  501    0  0.00000000000E+00 -0.00000000000E+00 -0.65064202949E+02  0.65064202949E+02  0.00000000000E+00 0. -1.
         25    2    1    2    0    0  0.78956403337E+01  0.27826360397E+02  0.15794811041E+03  0.20354830344E+03  0.12509060228E+03 0.  0.
          5    1    3    3  502    0  0.52009676020E+02 -0.20172139545E+02  0.40179038048E+02  0.68874880123E+02  0.41800000000E+01 0. -1.
         -5    1    3    3    0  502 -0.44114035686E+02  0.47998499942E+02  0.11776907237E+03  0.13467342331E+03  0.41800000000E+01 0. -1.
        -11    1    1    2    0    0  0.23499411132E+02  0.25491984209E+02  0.16555674144E+02  0.38420748675E+02  0.00000000000E+00 0. -1.
         11    1    1    2    0    0 -0.31395051465E+02 -0.53318344605E+02 -0.78334553338E+00  0.61879792810E+02  0.00000000000E+00 0.  1.
</event>
<event>
 7    1  0.2648915E-009  0.1259218E+03  0.7561462E-02  0.1233636E+00
         -1   -1    0    0    0  501 -0.00000000000E+00  0.00000000000E+00  0.28084060112E+02  0.28084060112E+02  0.00000000000E+00 0.  1.
          1   -1    0    0  501    0  0.00000000000E+00 -0.00000000000E+00 -0.79721828978E+03  0.79721828978E+03  0.00000000000E+00 0. -1.
         25    2    1    2    0    0  0.79987491098E+02 -0.58004651663E+02 -0.34471526618E+03  0.37979427229E+03  0.12511009623E+03 0.  0.
          5    1    3    3  502    0 -0.13765272895E+02 -0.36415820552E+02 -0.21335545831E+03  0.21691846099E+03  0.41800000000E+01 0.  1.
         -5    1    3    3    0  502  0.93752763993E+02 -0.21588831112E+02 -0.13135980787E+03  0.16287581131E+03  0.41800000000E+01 0.  1.
        -11    1    1    2    0    0  0.96601647120E+00  0.31055863507E+02 -0.34782288965E+02  0.46639119542E+02  0.00000000000E+00 0.  1.
         11    1    1    2    0    0 -0.80953507570E+02  0.26948788157E+02 -0.38963667452E+03  0.39886895805E+03  0.00000000000E+00 0. -1.
</event>
<event>
 7    1  0.4744844E-009  0.1872645E+03  0.7561462E-02  0.1160952E+00
          3   -1    0    0  501    0  0.00000000000E+00  0.00000000000E+00  0.15702741176E+03  0.15702741176E+03  0.00000000000E+00 0. -1.
         -3   -1    0    0    0  501 -0.00000000000E+00 -0.00000000000E+00 -0.26440952701E+03  0.26440952701E+03  0.00000000000E+00 0.  1.
         25    2    1    2    0    0  0.16662817888E+03  0.15747768145E+02 -0.96869945313E+02  0.23031176066E+03  0.12508708405E+03 0.  0.
          5    1    3    3  502    0  0.50950688139E+02 -0.51523649039E+02 -0.17463549970E+02  0.74653245139E+02  0.41800000000E+01 0. -1.
         -5    1    3    3    0  502  0.11567749074E+03  0.67271417184E+02 -0.79406395343E+02  0.15565851553E+03  0.41800000000E+01 0. -1.
        -11    1    1    2    0    0 -0.10900888778E+03 -0.17579854914E+02 -0.50039735519E+02  0.12122691139E+03  0.00000000000E+00 0.  1.
         11    1    1    2    0    0 -0.57619291097E+02  0.18320867689E+01  0.39527565586E+02  0.69898266713E+02  0.00000000000E+00 0. -1.
</event>
<event>
 7    1  0.2648915E-009  0.1144344E+03  0.7561462E-02  0.1252572E+00
          1   -1    0    0  501    0  0.00000000000E+00  0.00000000000E+00  0.14315810973E+04  0.14315810973E+04  0.00000000000E+00 0. -1.
         -1   -1    0    0    0  501 -0.00000000000E+00 -0.00000000000E+00 -0.13268073653E+02  0.13268073653E+02  0.00000000000E+00 0.  1.
         25    2    1    2    0    0  0.68432144126E+02 -0.61758066362E+01  0.10308150693E+04  0.10406477689E+04  0.12508786091E+03 0.  0.
          5    1    3    3  502    0  0.28167630708E+02  0.43493895737E+02  0.78160343942E+03  0.78333041770E+03  0.41800000000E+01 0. -1.
         -5    1    3    3    0  502  0.40264513418E+02 -0.49669702373E+02  0.24921162984E+03  0.25731735118E+03  0.41800000000E+01 0. -1.
        -11    1    1    2    0    0 -0.98895613286E+01 -0.38127451549E+02  0.17500875937E+03  0.17938665458E+03  0.00000000000E+00 0. -1.
         11    1    1    2    0    0 -0.58542582798E+02  0.44303258185E+02  0.21248919499E+03  0.22481474746E+03  0.00000000000E+00 0.  1.
</event>
<event>
 7    1  0.3078877E-009  0.1753356E+03  0.7561462E-02  0.1172395E+00
          2   -1    0    0  501    0  0.00000000000E+00  0.00000000000E+00  0.16826041175E+03  0.16826041175E+03  0.00000000000E+00 0. -1.
         -2   -1    0    0    0  501 -0.00000000000E+00 -0.00000000000E+00 -0.23474823666E+03  0.23474823666E+03  0.00000000000E+00 0.  1.
         25    2    1    2    0    0  0.13847672534E+02  0.16245443734E+03 -0.66478512929E+02  0.21598243702E+03  0.12508324498E+03 0.  0.
          5    1    3    3  502    0  0.50371467752E+02  0.12569228646E+03 -0.51354290504E+01  0.13557168094E+03  0.41800000000E+01 0. -1.
         -5    1    3    3    0  502 -0.36523795218E+02  0.36762150871E+02 -0.61343083879E+02  0.80410756081E+02  0.41800000000E+01 0. -1.
        -11    1    1    2    0    0 -0.54888797664E+00 -0.44846841300E+02  0.41989623308E+02  0.61438334272E+02  0.00000000000E+00 0. -1.
         11    1    1    2    0    0 -0.13298784557E+02 -0.11760759604E+03 -0.41998935283E+02  0.12558787712E+03  0.00000000000E+00 0.  1.
</event>
<event>
 7    1  0.3457437E-009  0.1827074E+03  0.7561462E-02  0.1165208E+00
          1   -1    0    0  501    0  0.00000000000E+00  0.00000000000E+00  0.14860315353E+04  0.14860315353E+04  0.00000000000E+00 0. -1.
         -1   -1    0    0    0  501 -0.00000000000E+00 -0.00000000000E+00 -0.26120764559E+02  0.26120764559E+02  0.00000000000E+00 0.  1.
         25    2    1    2    0    0  0.14452532111E+03  0.77930624881E+02  0.74513538681E+03  0.77319756821E+03  0.12508790539E+03 0.  0.
          5    1    3    3  502    0  0.27301789756E+02  0.76809979361E+02  0.20887541835E+03  0.22425782806E+03  0.41800000000E+01 0. -1.
         -5    1    3    3    0  502  0.11722353135E+03  0.11206455198E+01  0.53625996846E+03  0.54893974016E+03  0.41800000000E+01 0. -1.
        -11    1    1    2    0    0 -0.68908674792E+02 -0.21668884319E+02  0.15139692274E+03  0.16774675622E+03  0.00000000000E+00 0.  1.
         11    1    1    2    0    0 -0.75616646317E+02 -0.56261740562E+02  0.56337846120E+03  0.57120797543E+03  0.00000000000E+00 0. -1.
</event>
<event>
 7    1  0.2648915E-009  0.9374040E+02  0.7561462E-02  0.1294038E+00
          1   -1    0    0  501    0  0.00000000000E+00  0.00000000000E+00  0.10564408678E+03  0.10564408678E+03  0.00000000000E+00 0. -1.
         -1   -1    0    0    0  501 -0.00000000000E+00 -0.00000000000E+00 -0.17572551676E+03  0.17572551676E+03  0.00000000000E+00 0.  1.
         25    2    1    2    0    0 -0.11199224323E+02  0.31689465805E+02 -0.11609075579E+03  0.17393698772E+03  0.12508943699E+03 0.  0.
          5    1    3    3  502    0 -0.34483416049E+02  0.65166622488E+02 -0.11000906771E+03  0.13249627182E+03  0.41800000000E+01 0.  1.
         -5    1    3    3    0  502  0.23284191726E+02 -0.33477156684E+02 -0.60816880854E+01  0.41440715896E+02  0.41800000000E+01 0.  1.
        -11    1    1    2    0    0 -0.16792874417E+02 -0.40050347893E+02  0.60776665823E+02  0.74698287170E+02  0.00000000000E+00 0. -1.
         11    1    1    2    0    0  0.27992098740E+02  0.83608820882E+01 -0.14767340013E+02  0.32734328651E+02  0.00000000000E+00 0.  1.
</event>
<event>
 7    1  0.2648915E-009  0.1159793E+03  0.7561462E-02  0.1249881E+00
         -4   -1    0    0    0  501 -0.00000000000E+00  0.00000000000E+00  0.97631418327E+02  0.97631418327E+02  0.00000000000E+00 0.  1.
          4   -1    0    0  501    0  0.00000000000E+00 -0.00000000000E+00 -0.15044139855E+03  0.15044139855E+03  0.00000000000E+00 0. -1.
         25    2    1    2    0    0 -0.41139711726E+02 -0.25534508711E+02 -0.57264262230E+02  0.14584699964E+03  0.12509062538E+03 0.  0.
          5    1    3    3  502    0  0.41829108055E+02 -0.23054803114E+02 -0.63055434147E+01  0.48357321111E+02  0.41800000000E+01 0. -1.
         -5    1    3    3    0  502 -0.82968819780E+02 -0.24797055966E+01 -0.50958718815E+02  0.97489678525E+02  0.41800000000E+01 0. -1.
        -11    1    1    2    0    0 -0.28239293474E+02  0.75226403842E+01 -0.58680719734E+01  0.29807416576E+02  0.00000000000E+00 0. -1.
         11    1    1    2    0    0  0.69379005200E+02  0.18011868326E+02  0.10322353981E+02  0.72418400665E+02  0.00000000000E+00 0.  1.
</event>
<event>
 7    1  0.2648915E-009  0.9538025E+02  0.7561462E-02  0.1290322E+00
          1   -1    0    0  501    0  0.00000000000E+00  0.00000000000E+00  0.32342386367E+02  0.32342386367E+02  0.00000000000E+00 0. -1.
         -1   -1    0    0    0  501 -0.00000000000E+00 -0.00000000000E+00 -0.46865308052E+03  0.46865308052E+03  0.00000000000E+00 0.  1.
         25    2    1    2    0    0  0.45120335458E+02  0.21421324034E+01 -0.31629675188E+03  0.34312043421E+03  0.12509022233E+03 0.  0.
          5    1    3    3  502    0 -0.99280415984E+01  0.31320381355E+02 -0.16714289523E+02  0.37099490191E+02  0.41800000000E+01 0. -1.
         -5    1    3    3    0  502  0.55048377056E+02 -0.29178248951E+02 -0.29958246236E+03  0.30602094402E+03  0.41800000000E+01 0. -1.
        -11    1    1    2    0    0  0.25023816482E+02 -0.17596039365E+00 -0.91007418939E+01  0.26627914984E+02  0.00000000000E+00 0. -1.
         11    1    1    2    0    0 -0.70144151940E+02 -0.19661720097E+01 -0.11091320039E+03  0.13124711770E+03  0.00000000000E+00 0.  1.
</event>
<event>
 7    1  0.2648915E-009  0.2378328E+03  0.7561462E-02  0.1121245E+00
          2   -1    0    0  501    0  0.00000000000E+00  0.00000000000E+00  0.29527549639E+03  0.29527549639E+03  0.00000000000E+00 0. -1.
         -2   -1    0    0    0  501 -0.00000000000E+00 -0.00000000000E+00 -0.34781236760E+03  0.34781236760E+03  0.00000000000E+00 0.  1.
         25    2    1    2    0    0 -0.63169863253E+02 -0.20248469219E+03  0.18809837757E+03  0.30986877971E+03  0.12508868375E+03 0.  0.
          5    1    3    3  502    0  0.36261414149E+02 -0.83380991798E+02  0.71335683442E+02  0.11564398852E+03  0.41800000000E+01 0.  1.
         -5    1    3    3    0  502 -0.99431277402E+02 -0.11910370039E+03  0.11676269413E+03  0.19422479119E+03  0.41800000000E+01 0.  1.
        -11    1    1    2    0    0 -0.14503740097E+02  0.98934198233E+02 -0.89167064523E+02  0.13397424921E+03  0.00000000000E+00 0. -1.
         11    1    1    2    0    0  0.77673603350E+02  0.10355049395E+03 -0.15146818426E+03  0.19924483506E+03  0.00000000000E+00 0.  1.
</event>
<event>
 7    1  0.2648915E-009  0.1836830E+03  0.7561462E-02  0.1164285E+00
          1   -1    0    0  501    0  0.00000000000E+00  0.00000000000E+00  0.23249608541E+03  0.23249608541E+03  0.00000000000E+00 0. -1.
         -1   -1    0    0    0  501 -0.00000000000E+00 -0.00000000000E+00 -0.16300544699E+03  0.16300544699E+03  0.00000000000E+00 0.  1.
         25    2    1    2    0    0 -0.70920831768E+02  0.14142567487E+03  0.60030760092E+01  0.20178000681E+03  0.12509255908E+03 0.  0.
          5    1    3    3  502    0  0.39862035768E+01  0.12376460542E+03 -0.45717306311E+01  0.12398362995E+03  0.41800000000E+01 0.  1.
         -5    1    3    3    0  502 -0.74907035344E+02  0.17661069450E+02  0.10574806640E+02  0.77796376867E+02  0.41800000000E+01 0.  1.
        -11    1    1    2    0    0  0.67983158262E+00 -0.55082751380E+02 -0.15513274899E+02  0.57229654626E+02  0.00000000000E+00 0.  1.
         11    1    1    2    0    0  0.70241000185E+02 -0.86342923491E+02  0.79000837307E+02  0.13649187096E+03  0.00000000000E+00 0. -1.
</event>
<event>
 7    1  0.2648915E-009  0.1502181E+03  0.7561462E-02  0.1200205E+00
          2   -1    0    0  501    0  0.00000000000E+00  0.00000000000E+00  0.96299220032E+02  0.96299220032E+02  0.00000000000E+00 0. -1.
         -2   -1    0    0    0  501 -0.00000000000E+00 -0.00000000000E+00 -0.33717639432E+03  0.33717639432E+03  0.00000000000E+00 0.  1.
         25    2    1    2    0    0 -0.11815562645E+03  0.73727667722E+02 -0.84751285133E+02  0.20549137306E+03  0.12508957999E+03 0.  0.
          5    1    3    3  502    0 -0.11227777097E+03  0.79957793590E+02 -0.19178331339E+02  0.13922940567E+03  0.41800000000E+01 0.  1.
         -5    1    3    3    0  502 -0.58778554712E+01 -0.62301258679E+01 -0.65572953794E+02  0.66261967391E+02  0.41800000000E+01 0.  1.
        -11    1    1    2    0    0  0.12668873996E+02 -0.40456670259E+02 -0.80399282747E+01  0.43149542100E+02  0.00000000000E+00 0. -1.
         11    1    1    2    0    0  0.10548675245E+03 -0.33270997463E+02 -0.14808596088E+03  0.18483469919E+03  0.00000000000E+00 0.  1.
</event>
<event>
 7    1  0.2648915E-009  0.9528016E+02  0.7561462E-02  0.1290546E+00
         -2   -1    0    0    0  501 -0.00000000000E+00  0.00000000000E+00  0.12364639055E+03  0.12364639055E+03  0.00000000000E+00 0.  1.
          2   -1    0    0  501    0  0.00000000000E+00 -0.00000000000E+00 -0.13021826034E+03  0.13021826034E+03  0.00000000000E+00 0. -1.
         25    2    1    2    0    0  0.62555339063E+02 -0.14448651641E+01  0.22504079898E+02  0.14166045249E+03  0.12508394025E+03 0.  0.
          5    1    3    3  502    0  0.18507167313E+02  0.40925848958E+02  0.55944694455E+02  0.71865997472E+02  0.41800000000E+01 0. -1.
         -5    1    3    3    0  502  0.44048171750E+02 -0.42370714122E+02 -0.33440614557E+02  0.69794455021E+02  0.41800000000E+01 0. -1.
        -11    1    1    2    0    0 -0.97879539567E+01 -0.23769942871E+02 -0.44794338486E+02  0.51646364704E+02  0.00000000000E+00 0. -1.
         11    1    1    2    0    0 -0.52767385107E+02  0.25214808035E+02  0.15718388796E+02  0.60557833693E+02  0.00000000000E+00 0.  1.
</event>
<event>
 7    1  0.2648915E-009  0.1548706E+03  0.7561462E-02  0.1194613E+00
         -2   -1    0    0    0  501 -0.00000000000E+00  0.00000000000E+00  0.21513742698E+02  0.21513742698E+02  0.00000000000E+00 0.  1.
          2   -1    0    0  501    0  0.00000000000E+00 -0.00000000000E+00 -0.13491131029E+04  0.13491131029E+04  0.00000000000E+00 0. -1.
         25    2    1    2    0    0 -0.10864674380E+03 -0.33618161066E+02 -0.97535257378E+03  0.98989616944E+03  0.12508991723E+03 0.  0.
          5    1    3    3  502    0 -0.70160700177E+02  0.40874100777E+02 -0.37582149695E+03  0.38451591116E+03  0.41800000000E+01 0.  1.
         -5    1    3    3    0  502 -0.38486043628E+02 -0.74492261843E+02 -0.59953107683E+03  0.60538025828E+03  0.41800000000E+01 0.  1.
        -11    1    1    2    0    0  0.47514987482E+02  0.61148797561E+02 -0.19080169545E+03  0.20591779055E+03  0.00000000000E+00 0. -1.
         11    1    1    2    0    0  0.61131756323E+02 -0.27530636495E+02 -0.16144509098E+03  0.17481288562E+03  0.00000000000E+00 0.  1.
</event>
<event>
 7    1  0.2648915E-009  0.9103416E+02  0.7561462E-02  0.1300366E+00
          2   -1    0    0  501    0  0.00000000000E+00  0.00000000000E+00  0.44053598033E+03  0.44053598033E+03  0.00000000000E+00 0. -1.
         -2   -1    0    0    0  501 -0.00000000000E+00 -0.00000000000E+00 -0.28021392924E+02  0.28021392924E+02  0.00000000000E+00 0.  1.
         25    2    1    2    0    0 -0.21249507672E+02 -0.19969731877E+02  0.26725924289E+03  0.29652029338E+03  0.12508576941E+03 0.  0.
          5    1    3    3  502    0 -0.51644037946E+02  0.37016823540E+02  0.13631798078E+03  0.15045735663E+03  0.41800000000E+01 0. -1.
         -5    1    3    3    0  502  0.30394530274E+02 -0.56986555417E+02  0.13094126211E+03  0.14606293675E+03  0.41800000000E+01 0. -1.
        -11    1    1    2    0    0  0.34751417931E+02  0.20142888317E+02  0.15180519721E+03  0.15702934406E+03  0.00000000000E+00 0. -1.
         11    1    1    2    0    0 -0.13501910258E+02 -0.17315644083E+00 -0.65498526934E+01  0.15007735808E+02  0.00000000000E+00 0.  1.
</event>
<event>
 7    1  0.2648915E-009  0.1345708E+03  0.7561462E-02  0.1220827E+00
         -2   -1    0    0    0  501 -0.00000000000E+00  0.00000000000E+00  0.43193829759E+02  0.43193829759E+02  0.00000000000E+00 0.  1.
          2   -1    0    0  501    0  0.00000000000E+00 -0.00000000000E+00 -0.64190262673E+03  0.64190262673E+03  0.00000000000E+00 0. -1.
         25    2    1    2    0    0 -0.18344573415E+01 -0.11906441132E+03 -0.22455768146E+03  0.28328985983E+03  0.12508914062E+03 0.  0.
          5    1    3    3  502    0  0.12251743236E+02 -0.12778717760E+03 -0.11497962441E+03  0.17238751231E+03  0.41800000000E+01 0.  1.
         -5    1    3    3    0  502 -0.14086200577E+02  0.87227662794E+01 -0.10957805705E+03  0.11090234752E+03  0.41800000000E+01 0.  1.
        -11    1    1    2    0    0 -0.15590938531E+02  0.63154774759E+02 -0.86366347041E+02  0.10812376631E+03  0.00000000000E+00 0.  1.
         11    1    1    2    0    0  0.17425395872E+02  0.55909636561E+02 -0.28778476847E+03  0.29368283035E+03  0.00000000000E+00 0. -1.
</event>
<event>
 7    1  0.2648915E-009  0.1191219E+03  0.7561462E-02  0.1244553E+00
          1   -1    0    0  501    0  0.00000000000E+00  0.00000000000E+00  0.55522710891E+02  0.55522710891E+02  0.00000000000E+00 0. -1.
         -1   -1    0    0    0  501 -0.00000000000E+00 -0.00000000000E+00 -0.36094821202E+03  0.36094821202E+03  0.00000000000E+00 0.  1.
         25    2    1    2    0    0  0.43154819671E+02  0.32038005344E+02 -0.57445198793E+02  0.14777024680E+03  0.12508925904E+03 0.  0.
          5    1    3    3  502    0  0.28593778352E+02  0.79945974449E+02 -0.27840691851E+02  0.89451324830E+02  0.41800000000E+01 0.  1.
         -5    1    3    3    0  502  0.14561041319E+02 -0.47907969105E+02 -0.29604506941E+02  0.58318921966E+02  0.41800000000E+01 0.  1.
        -11    1    1    2    0    0  0.26944554772E+02 -0.15042397881E+02 -0.86611364203E+02  0.91944609277E+02  0.00000000000E+00 0.  1.
         11    1    1    2    0    0 -0.70099374443E+02 -0.16995607463E+02 -0.16136893814E+03  0.17675606684E+03  0.00000000000E+00 0. -1.
</event>
<event>
 7    1  0.2648915E-009  0.2956223E+03  0.7561462E-02  0.1087450E+00
          1   -1    0    0  501    0  0.00000000000E+00  0.00000000000E+00  0.13339314804E+04  0.13339314804E+04  0.00000000000E+00 0. -1.
         -1   -1    0    0    0  501 -0.00000000000E+00 -0.00000000000E+00 -0.75946660648E+02  0.75946660648E+02  0.00000000000E+00 0.  1.
         25    2    1    2    0    0  0.28259157272E+03  0.31155242301E+02  0.85322916920E+03  0.90800541236E+03  0.12508064444E+03 0.  0.
          5    1    3    3  502    0  0.23036415905E+03  0.61758677055E+02  0.56208010288E+03  0.61060076517E+03  0.41800000000E+01 0.  1.
         -5    1    3    3    0  502  0.52227413675E+02 -0.30603434754E+02  0.29114906632E+03  0.29740464720E+03  0.41800000000E+01 0.  1.
        -11    1    1    2    0    0 -0.17310581086E+03  0.13845053503E+02  0.28318954378E+03  0.33219516096E+03  0.00000000000E+00 0. -1.
         11    1    1    2    0    0 -0.10948576187E+03 -0.45000295804E+02  0.12156610679E+03  0.16967756774E+03  0.00000000000E+00 0.  1.
</event>
<event>
 7    1  0.2648915E-009  0.9208618E+02  0.7561462E-02  0.1297877E+00
          1   -1    0    0  501    0  0.00000000000E+00  0.00000000000E+00  0.46303045915E+03  0.46303045915E+03  0.00000000000E+00 0. -1.
         -1   -1    0    0    0  501 -0.00000000000E+00 -0.00000000000E+00 -0.40883738421E+02  0.40883738421E+02  0.00000000000E+00 0.  1.
         25    2    1    2    0    0 -0.15451601649E+02 -0.94201007008E+01  0.38450887719E+03  0.40474645767E+03  0.12508048636E+03 0.  0.
          5    1    3    3  502    0 -0.14767058202E+02 -0.52101554767E+02  0.76817109899E+02  0.94079640679E+02  0.41800000000E+01 0.  1.
         -5    1    3    3    0  502 -0.68454344646E+00  0.42681454066E+02  0.30769176729E+03  0.31066681699E+03  0.41800000000E+01 0.  1.
        -11    1    1    2    0    0 -0.35149372503E+02 -0.15747077639E+01  0.54753220387E-01  0.35184671233E+02  0.00000000000E+00 0.  1.
         11    1    1    2    0    0  0.50600974151E+02  0.10994808465E+02  0.37583090317E+02  0.63983068667E+02  0.00000000000E+00 0. -1.
</event>
<event>
 7    1  0.2648915E-009  0.8374644E+02  0.7561462E-02  0.1318744E+00
          1   -1    0    0  501    0  0.00000000000E+00  0.00000000000E+00  0.36320693116E+03  0.36320693116E+03  0.00000000000E+00 0. -1.
         -1   -1    0    0    0  501 -0.00000000000E+00 -0.00000000000E+00 -0.41266622192E+02  0.41266622192E+02  0.00000000000E+00 0.  1.
         25    2    1    2    0    0 -0.20696960481E+02  0.23543627466E+02  0.25662597987E+03  0.28720945676E+03  0.12509880872E+03 0.  0.
          5    1    3    3  502    0 -0.54524011284E+00 -0.22748957294E+02  0.22769883950E+03  0.22887124384E+03  0.41800000000E+01 0. -1.
         -5    1    3    3    0  502 -0.20151720368E+02  0.46292584761E+02  0.28927140363E+02  0.58338212924E+02  0.41800000000E+01 0. -1.
        -11    1    1    2    0    0  0.39095616054E+01  0.33758839528E+02  0.89287210461E+01  0.35137814072E+02  0.00000000000E+00 0.  1.
         11    1    1    2    0    0  0.16787398876E+02 -0.57302466994E+02  0.56385608059E+02  0.82126282522E+02  0.00000000000E+00 0. -1.
</event>
<event>
 7    1  0.2648915E-009  0.5359044E+02  0.7561462E-02  0.1426885E+00
          1   -1    0    0  501    0  0.00000000000E+00  0.00000000000E+00  0.67555677132E+02  0.67555677132E+02  0.00000000000E+00 0. -1.
         -1   -1    0    0    0  501 -0.00000000000E+00 -0.00000000000E+00 -0.19382878694E+03  0.19382878694E+03  0.00000000000E+00 0.  1.
         25    2    1    2    0    0  0.50781633627E+01 -0.31997743879E+01 -0.11540620561E+03  0.17030637987E+03  0.12509853889E+03 0.  0.
          5    1    3    3  502    0 -0.23217993479E+02 -0.86464885862E+01  0.19806651437E+02  0.31993949853E+02  0.41800000000E+01 0.  1.
         -5    1    3    3    0  502  0.28296156842E+02  0.54467141983E+01 -0.13521285704E+03  0.13831243002E+03  0.41800000000E+01 0.  1.
        -11    1    1    2    0    0  0.16875524259E+02 -0.16382544145E+02  0.31615368367E+02  0.39404347332E+02  0.00000000000E+00 0.  1.
         11    1    1    2    0    0 -0.21953687622E+02  0.19582318533E+02 -0.42482272564E+02  0.51673736864E+02  0.00000000000E+00 0. -1.
</event>
<event>
 7    1  0.2648915E-009  0.9476539E+02  0.7561462E-02  0.1291705E+00
          3   -1    0    0  501    0  0.00000000000E+00  0.00000000000E+00  0.10603738807E+03  0.10603738807E+03  0.00000000000E+00 0.  1.
         -3   -1    0    0    0  501 -0.00000000000E+00 -0.00000000000E+00 -0.13312979208E+03  0.13312979208E+03  0.00000000000E+00 0. -1.
         25    2    1    2    0    0 -0.30856316509E+02  0.27785490405E+02 -0.40921088723E+02  0.13800896992E+03  0.12509114490E+03 0.  0.
          5    1    3    3  502    0 -0.12145794593E+02 -0.37853078140E+02 -0.55199529010E+02  0.68153035544E+02  0.41800000000E+01 0.  1.
         -5    1    3    3    0  502 -0.18710521917E+02  0.65638568546E+02  0.14278440287E+02  0.69855934380E+02  0.41800000000E+01 0.  1.
        -11    1    1    2    0    0  0.45711541278E+02 -0.40917054497E+02  0.36225347694E+02  0.71246236183E+02  0.00000000000E+00 0.  1.
         11    1    1    2    0    0 -0.14855224768E+02  0.13131564092E+02 -0.22396662982E+02  0.29911974043E+02  0.00000000000E+00 0. -1.
</event>
<event>
 7    1  0.2648915E-009  0.1312467E+03  0.7561462E-02  0.1225617E+00
          1   -1    0    0  501    0  0.00000000000E+00  0.00000000000E+00  0.47347826597E+02  0.47347826597E+02  0.00000000000E+00 0. -1.
         -1   -1    0    0    0  501 -0.00000000000E+00 -0.00000000000E+00 -0.60692310370E+03  0.60692310370E+03  0.00000000000E+00 0.  1.
         25    2    1    2    0    0 -0.16366767080E+02  0.91739025354E+02 -0.47223594571E+03  0.49733106564E+03  0.12508989006E+03 0.  0.
          5    1    3    3  502    0 -0.64449221756E+02  0.79650301142E+02 -0.36470708315E+03  0.37884904851E+03  0.41800000000E+01 0. -1.
         -5    1    3    3    0  502  0.48082454676E+02  0.12088724212E+02 -0.10752886256E+03  0.11848201713E+03  0.41800000000E+01 0. -1.
        -11    1    1    2    0    0 -0.12563188108E+02 -0.76445088485E+02 -0.16931821306E+02  0.79299254862E+02  0.00000000000E+00 0. -1.
         11    1    1    2    0    0  0.28929955188E+02 -0.15293936869E+02 -0.70407510088E+02  0.77640609792E+02  0.00000000000E+00 0.  1.
</event>
<event>
 7    1  0.2648915E-009  0.1618455E+03  0.7561462E-02  0.1186629E+00
          2   -1    0    0  501    0  0.00000000000E+00  0.00000000000E+00  0.26055270805E+03  0.26055270805E+03  0.00000000000E+00 0. -1.
         -2   -1    0    0    0  501 -0.00000000000E+00 -0.00000000000E+00 -0.16797169669E+03  0.16797169669E+03  0.00000000000E+00 0.  1.
         25    2    1    2    0    0  0.93614022894E+02 -0.95706596500E+02 -0.72509554466E+02  0.19704683107E+03  0.12508589148E+03 0.  0.
          5    1    3    3  502    0 -0.28965307617E+02 -0.36743113898E+02 -0.22226906586E+02  0.51966847515E+02  0.41800000000E+01 0.  1.
         -5    1    3    3    0  502  0.12257933051E+03 -0.58963482602E+02 -0.50282647879E+02  0.14507998355E+03  0.41800000000E+01 0.  1.
        -11    1    1    2    0    0 -0.96232610522E+02  0.81272516374E+02  0.17362717022E+03  0.21450485189E+03  0.00000000000E+00 0. -1.
         11    1    1    2    0    0  0.26185876280E+01  0.14434080127E+02 -0.85366043874E+01  0.16972721783E+02  0.00000000000E+00 0.  1.
</event>
<event>
 7    1  0.2648915E-009  0.9628547E+02  0.7561462E-02  0.1288307E+00
          1   -1    0    0  501    0  0.00000000000E+00  0.00000000000E+00  0.19613410704E+03  0.19613410704E+03  0.00000000000E+00 0. -1.
         -1   -1    0    0    0  501 -0.00000000000E+00 -0.00000000000E+00 -0.83513143616E+02  0.83513143616E+02  0.00000000000E+00 0.  1.
         25    2    1    2    0    0  0.39550019193E+02  0.14263288364E+02  0.45710559905E+01  0.13204641984E+03  0.12509083510E+03 0.  0.
          5    1    3    3  502    0 -0.31200626577E+02  0.10273150636E+01  0.40649822696E+02  0.51423875391E+02  0.41800000000E+01 0.  1.
         -5    1    3    3    0  502  0.70750645769E+02  0.13235973300E+02 -0.36078766706E+02  0.80622544446E+02  0.41800000000E+01 0.  1.
        -11    1    1    2    0    0  0.19572271540E+02  0.13381267976E+02  0.65577420972E+02  0.69731845575E+02  0.00000000000E+00 0. -1.
         11    1    1    2    0    0 -0.59122290733E+02 -0.27644556339E+02  0.42472486464E+02  0.77868985245E+02  0.00000000000E+00 0.  1.
</event>
<event>
 7    1  0.2648915E-009  0.1044214E+03  0.7561462E-02  0.1271264E+00
         -2   -1    0    0    0  501 -0.00000000000E+00  0.00000000000E+00  0.69219143105E+02  0.69219143105E+02  0.00000000000E+00 0.  1.
          2   -1    0    0  501    0  0.00000000000E+00 -0.00000000000E+00 -0.22187447486E+03  0.22187447486E+03  0.00000000000E+00 0. -1.
         25    2    1    2    0    0 -0.46585991978E+02 -0.37256637008E+02 -0.99798783274E+02  0.17078030307E+03  0.12509117925E+03 0.  0.
          5    1    3    3  502    0  0.23369121326E+02 -0.44803358297E+02 -0.26742418817E+01  0.50774803948E+02  0.41800000000E+01 0. -1.
         -5    1    3    3    0  502 -0.69955113304E+02  0.75467212893E+01 -0.97124541392E+02  0.12000549912E+03  0.41800000000E+01 0. -1.
        -11    1    1    2    0    0  0.14414178061E+02  0.50756830315E+02  0.47370588816E+01  0.52976070821E+02  0.00000000000E+00 0.  1.
         11    1    1    2    0    0  0.32171813917E+02 -0.13500193307E+02 -0.57593607367E+02  0.67337244074E+02  0.00000000000E+00 0. -1.
</event>
<event>
 7    1  0.2648915E-009  0.1564361E+03  0.7561462E-02  0.1192780E+00
          2   -1    0    0  501    0  0.00000000000E+00  0.00000000000E+00  0.15126381279E+03  0.15126381279E+03  0.00000000000E+00 0.  1.
         -2   -1    0    0    0  501 -0.00000000000E+00 -0.00000000000E+00 -0.43913497024E+03  0.43913497024E+03  0.00000000000E+00 0. -1.
         25    2    1    2    0    0  0.12412103957E+03 -0.44157043786E+02 -0.36824831197E+03  0.41062045586E+03  0.12508582062E+03 0.  0.
          5    1    3    3  502    0  0.10859962960E+03 -0.84449586263E+02 -0.26446535734E+03  0.29813589151E+03  0.41800000000E+01 0.  1.
         -5    1    3    3    0  502  0.15521409971E+02  0.40292542477E+02 -0.10378295463E+03  0.11248456436E+03  0.41800000000E+01 0.  1.
        -11    1    1    2    0    0 -0.68953718426E+02  0.21610029442E+02  0.94078120599E+02  0.11862673153E+03  0.00000000000E+00 0.  1.
         11    1    1    2    0    0 -0.55167321149E+02  0.22547014345E+02 -0.13700966078E+02  0.61151595646E+02  0.00000000000E+00 0. -1.
</event>
<event>
 7    1  0.2648915E-009  0.1223404E+03  0.7561462E-02  0.1239285E+00
          1   -1    0    0  501    0  0.00000000000E+00  0.00000000000E+00  0.74062425774E+02  0.74062425774E+02  0.00000000000E+00 0. -1.
         -1   -1    0    0    0  501 -0.00000000000E+00 -0.00000000000E+00 -0.24997646914E+03  0.24997646914E+03  0.00000000000E+00 0.  1.
         25    2    1    2    0    0 -0.26646575471E+02 -0.70158101004E+02 -0.65282338266E+02  0.15981609686E+03  0.12508877649E+03 0.  0.
          5    1    3    3  502    0  0.14091234310E+02 -0.91056517436E+02 -0.66688574958E+02  0.11381867457E+03  0.41800000000E+01 0.  1.
         -5    1    3    3    0  502 -0.40737809781E+02  0.20898416432E+02  0.14062366924E+01  0.45997422284E+02  0.41800000000E+01 0.  1.
        -11    1    1    2    0    0 -0.26690171879E+02  0.25330899997E+02 -0.42298763707E+01  0.37039325368E+02  0.00000000000E+00 0. -1.
         11    1    1    2    0    0  0.53336747350E+02  0.44827201007E+02 -0.10640182873E+03  0.12718347269E+03  0.00000000000E+00 0.  1.
</event>
<event>
 7    1  0.2648915E-009  0.1208294E+03  0.7561462E-02  0.1241735E+00
          1   -1    0    0  501    0  0.00000000000E+00  0.00000000000E+00  0.64226947733E+03  0.64226947733E+03  0.00000000000E+00 0. -1.
         -1   -1    0    0    0  501 -0.00000000000E+00 -0.00000000000E+00 -0.33678920631E+02  0.33678920631E+02  0.00000000000E+00 0.  1.
         25    2    1    2    0    0  0.42524583086E+02 -0.41121783616E+02  0.51528067825E+03  0.53353520952E+03  0.12508517563E+03 0.  0.
          5    1    3    3  502    0 -0.34527128708E+02 -0.49577013333E+02  0.21235790879E+03  0.22082426654E+03  0.41800000000E+01 0.  1.
         -5    1    3    3    0  502  0.77051711794E+02  0.84552297171E+01  0.30292276946E+03  0.31271094298E+03  0.41800000000E+01 0.  1.
        -11    1    1    2    0    0  0.10674479750E+01 -0.24591609076E+02  0.71896229158E+01  0.25643271238E+02  0.00000000000E+00 0. -1.
         11    1    1    2    0    0 -0.43592031061E+02  0.65713392692E+02  0.86120255535E+02  0.11676991721E+03  0.00000000000E+00 0.  1.
</event>
<event>
 7    1  0.2648915E-009  0.2161736E+03  0.7561462E-02  0.1136768E+00
          2   -1    0    0  501    0  0.00000000000E+00  0.00000000000E+00  0.46803790100E+03  0.46803790100E+03  0.00000000000E+00 0. -1.
         -2   -1    0    0    0  501 -0.00000000000E+00 -0.00000000000E+00 -0.12235702806E+03  0.12235702806E+03  0.00000000000E+00 0.  1.
         25    2    1    2    0    0  0.17992634140E+03 -0.64799633795E+02  0.29229387673E+03  0.37101821929E+03  0.12508528213E+03 0.  0.
          5    1    3    3  502    0  0.15311069034E+03  0.24198026645E+01  0.16985638408E+03  0.22872997738E+03  0.41800000000E+01 0.  1.
         -5    1    3    3    0  502  0.26815651063E+02 -0.67219436460E+02  0.12243749265E+03  0.14228824191E+03  0.41800000000E+01 0.  1.
        -11    1    1    2    0    0 -0.18166251838E+03  0.45476794615E+02  0.31107850339E+02  0.18983442202E+03  0.00000000000E+00 0.  1.
         11    1    1    2    0    0  0.17361769795E+01  0.19322839180E+02  0.22279145867E+02  0.29542287742E+02  0.00000000000E+00 0. -1.
</event>
<event>
 7    1  0.2648915E-009  0.8115533E+02  0.7561462E-02  0.1325804E+00
          4   -1    0    0  501    0  0.00000000000E+00  0.00000000000E+00  0.79540063690E+02  0.79540063690E+02  0.00000000000E+00 0.  1.
         -4   -1    0    0    0  501 -0.00000000000E+00 -0.00000000000E+00 -0.16792352802E+03  0.16792352802E+03  0.00000000000E+00 0. -1.
         25    2    1    2    0    0  0.14877074322E+02  0.32970092235E+02 -0.64427303250E+02  0.14528462724E+03  0.12509352975E+03 0.  0.
          5    1    3    3  502    0  0.28375655021E+02 -0.30072058381E+02 -0.68966058406E+02  0.80518917685E+02  0.41800000000E+01 0.  1.
         -5    1    3    3    0  502 -0.13498580699E+02  0.63042150616E+02  0.45387551558E+01  0.64765709550E+02  0.41800000000E+01 0.  1.
        -11    1    1    2    0    0 -0.28184593854E+02 -0.32235633751E+02  0.26255857742E+02  0.50228253800E+02  0.00000000000E+00 0.  1.
         11    1    1    2    0    0  0.13307519533E+02 -0.73445848444E+00 -0.50212018821E+02  0.51950710674E+02  0.00000000000E+00 0. -1.
</event>
<event>
 7    1  0.2648915E-009  0.1740214E+03  0.7561462E-02  0.1173718E+00
         -3   -1    0    0    0  501 -0.00000000000E+00  0.00000000000E+00  0.43841080543E+03  0.43841080543E+03  0.00000000000E+00 0.  1.
          3   -1    0    0  501    0  0.00000000000E+00 -0.00000000000E+00 -0.83333481002E+02  0.83333481002E+02  0.00000000000E+00 0. -1.
         25    2    1    2    0    0  0.12599703118E+03  0.50971442856E+02  0.79256832857E+02  0.20100320961E+03  0.12508918764E+03 0.  0.
          5    1    3    3  502    0  0.10183785917E+03 -0.24718444257E+02  0.39594629617E+02  0.11210333689E+03  0.41800000000E+01 0. -1.
         -5    1    3    3    0  502  0.24159172006E+02  0.75689887114E+02  0.39662203241E+02  0.88899872718E+02  0.41800000000E+01 0. -1.
        -11    1    1    2    0    0 -0.62277880656E+02  0.22620321569E+02  0.10629549383E+03  0.12525552034E+03  0.00000000000E+00 0.  1.
         11    1    1    2    0    0 -0.63719150524E+02 -0.73591764426E+02  0.16952499775E+03  0.19548555649E+03  0.00000000000E+00 0. -1.
</event>
<event>
 7    1  0.2648915E-009  0.1215100E+03  0.7561462E-02  0.1240627E+00
          2   -1    0    0  501    0  0.00000000000E+00  0.00000000000E+00  0.20137624566E+02  0.20137624566E+02  0.00000000000E+00 0. -1.
         -2   -1    0    0    0  501 -0.00000000000E+00 -0.00000000000E+00 -0.11488920933E+04  0.11488920933E+04  0.00000000000E+00 0.  1.
         25    2    1    2    0    0  0.57669949687E+02  0.93556882849E+01 -0.89390962961E+03  0.90450832940E+03  0.12509012766E+03 0.  0.
          5    1    3    3  502    0 -0.33474354983E+02 -0.15200534286E+02 -0.39507940561E+03  0.39680826329E+03  0.41800000000E+01 0. -1.
         -5    1    3    3    0  502  0.91144304670E+02  0.24556222571E+02 -0.49883022400E+03  0.50770006610E+03  0.41800000000E+01 0. -1.
        -11    1    1    2    0    0  0.17702241911E+02 -0.28697239604E+02 -0.12785725345E+03  0.13222850747E+03  0.00000000000E+00 0.  1.
         11    1    1    2    0    0 -0.75372191599E+02  0.19341551319E+02 -0.10698758568E+03  0.13229288100E+03  0.00000000000E+00 0. -1.
</event>
<event>
 7    1  0.2648915E-009  0.1590210E+03  0.7561462E-02  0.1189806E+00
          2   -1    0    0  501    0  0.00000000000E+00  0.00000000000E+00  0.62964861401E+03  0.62964861401E+03  0.00000000000E+00 0.  1.
         -2   -1    0    0    0  501 -0.00000000000E+00 -0.00000000000E+00 -0.59536184190E+02  0.59536184190E+02  0.00000000000E+00 0. -1.
         25    2    1    2    0    0 -0.11485395207E+03  0.37652310329E+02  0.11343216103E+03  0.20765813181E+03  0.12508364311E+03 0.  0.
          5    1    3    3  502    0  0.20685218105E+02  0.21999137340E+02  0.46565091499E+02  0.55656270430E+02  0.41800000000E+01 0.  1.
         -5    1    3    3    0  502 -0.13553917018E+03  0.15653172989E+02  0.66867069531E+02  0.15200186138E+03  0.41800000000E+01 0.  1.
        -11    1    1    2    0    0  0.77697657551E+02  0.22020612731E+02  0.20885551732E+03  0.22392512251E+03  0.00000000000E+00 0.  1.
         11    1    1    2    0    0  0.37156294519E+02 -0.59672923060E+02  0.24782475147E+03  0.25760154388E+03  0.00000000000E+00 0. -1.
</event>
<event>
 7    1  0.2648915E-009  0.1249390E+03  0.7561462E-02  0.1235165E+00
         -2   -1    0    0    0  501 -0.00000000000E+00  0.00000000000E+00  0.51963318483E+02  0.51963318483E+02  0.00000000000E+00 0.  1.
          2   -1    0    0  501    0  0.00000000000E+00 -0.00000000000E+00 -0.91119336251E+03  0.91119336251E+03  0.00000000000E+00 0. -1.
         25    2    1    2    0    0  0.10762684756E+03 -0.92606971033E+01 -0.78586894677E+03  0.80305837607E+03  0.12507379845E+03 0.  0.
          5    1    3    3  502    0  0.85875823668E+02  0.34026880743E+02 -0.68351965672E+03  0.68974566271E+03  0.41800000000E+01 0. -1.
         -5    1    3    3    0  502  0.21751023889E+02 -0.43287577846E+02 -0.10234929005E+03  0.11331271336E+03  0.41800000000E+01 0. -1.
        -11    1    1    2    0    0 -0.78516269605E+02  0.12468953681E+02 -0.94859152838E+02  0.12376808262E+03  0.00000000000E+00 0. -1.
         11    1    1    2    0    0 -0.29110577951E+02 -0.32082565775E+01  0.21498055577E+02  0.36330222302E+02  0.00000000000E+00 0.  1.
</event>
<event>
 7    1  0.2648915E-009  0.7040603E+02  0.7561462E-02  0.1358718E+00
          2   -1    0    0  501    0  0.00000000000E+00  0.00000000000E+00  0.29969342590E+02  0.29969342590E+02  0.00000000000E+00 0. -1.
         -2   -1    0    0    0  501 -0.00000000000E+00 -0.00000000000E+00 -0.43879424408E+03  0.43879424408E+03  0.00000000000E+00 0.  1.
         25    2    1    2    0    0  0.12527979567E+02 -0.35271145643E+02 -0.23771837823E+03  0.27121640555E+03  0.12508919739E+03 0.  0.
          5    1    3    3  502    0  0.36905095263E+02 -0.36550769935E+02 -0.24069590960E+03  0.24627208153E+03  0.41800000000E+01 0.  1.
         -5    1    3    3    0  502 -0.24377115696E+02  0.12796242915E+01  0.29775313706E+01  0.24944324025E+02  0.41800000000E+01 0.  1.
        -11    1    1    2    0    0 -0.10077879829E+02 -0.12525826126E+02  0.35398729318E+01  0.16461794627E+02  0.00000000000E+00 0. -1.
         11    1    1    2    0    0 -0.24500997385E+01  0.47796971769E+02 -0.17464639619E+03  0.18108538649E+03  0.00000000000E+00 0.  1.
</event>
<event>
 7    1  0.2648915E-009  0.6154647E+02  0.7561462E-02  0.1391454E+00
          1   -1    0    0  501    0  0.00000000000E+00  0.00000000000E+00  0.23633265618E+03  0.23633265618E+03  0.00000000000E+00 0. -1.
         -1   -1    0    0    0  501 -0.00000000000E+00 -0.00000000000E+00 -0.53851093123E+02  0.53851093123E+02  0.00000000000E+00 0.  1.
         25    2    1    2    0    0 -0.12941157672E+02  0.25026636926E+02  0.14732704226E+03  0.19531083785E+03  0.12508900785E+03 0.  0.
          5    1    3    3  502    0  0.17208956254E+02 -0.11065198916E+02 -0.15352642245E+02  0.25918387803E+02  0.41800000000E+01 0. -1.
         -5    1    3    3    0  502 -0.30150113926E+02  0.36091835843E+02  0.16267968450E+03  0.16939245005E+03  0.41800000000E+01 0. -1.
        -11    1    1    2    0    0  0.12481169242E+02  0.12384824680E+02 -0.21004188648E+02  0.27392323902E+02  0.00000000000E+00 0.  1.
         11    1    1    2    0    0  0.45998842916E+00 -0.37411461606E+02  0.56158709448E+02  0.67480587547E+02  0.00000000000E+00 0. -1.
</event>
<event>
 7    1  0.2648915E-009  0.1782155E+03  0.7561462E-02  0.1169541E+00
          2   -1    0    0  501    0  0.00000000000E+00  0.00000000000E+00  0.92653158785E+03  0.92653158785E+03  0.00000000000E+00 0. -1.
         -2   -1    0    0    0  501 -0.00000000000E+00 -0.00000000000E+00 -0.41919526818E+02  0.41919526818E+02  0.00000000000E+00 0.  1.
         25    2    1    2    0    0  0.14507818469E+03 -0.64429090499E+02  0.56951555311E+03  0.60431294863E+03  0.12508951706E+03 0.  0.
          5    1    3    3  502    0  0.62041264358E+02 -0.81378151897E+02  0.19448467593E+03  0.21980282906E+03  0.41800000000E+01 0.  1.
         -5    1    3    3    0  502  0.83036920335E+02  0.16949061398E+02  0.37503087718E+03  0.38451011958E+03  0.41800000000E+01 0.  1.
        -11    1    1    2    0    0 -0.11740691210E+03  0.23464897786E+02  0.27686723232E+03  0.30164623116E+03  0.00000000000E+00 0. -1.
         11    1    1    2    0    0 -0.27671272593E+02  0.40964192713E+02  0.38229275599E+02  0.62491934875E+02  0.00000000000E+00 0.  1.
</event>
<event>
 7    1  0.2648915E-009  0.1164469E+03  0.7561462E-02  0.1249076E+00
          3   -1    0    0  501    0  0.00000000000E+00  0.00000000000E+00  0.61077819466E+02  0.61077819466E+02  0.00000000000E+00 0. -1.
         -3   -1    0    0    0  501 -0.00000000000E+00 -0.00000000000E+00 -0.24598475252E+03  0.24598475252E+03  0.00000000000E+00 0.  1.
         25    2    1    2    0    0  0.10292438007E+02 -0.52854261419E+02 -0.12577455198E+03  0.18538517863E+03  0.12509564061E+03 0.  0.
          5    1    3    3  502    0  0.14115833868E+02 -0.92453315991E+02 -0.70694584699E+02  0.11731184556E+03  0.41800000000E+01 0. -1.
         -5    1    3    3    0  502 -0.38233958606E+01  0.39599054572E+02 -0.55079967278E+02  0.68073333063E+02  0.41800000000E+01 0. -1.
        -11    1    1    2    0    0 -0.45283805963E+02  0.14951019876E+02 -0.50351419423E+02  0.69349992904E+02  0.00000000000E+00 0.  1.
         11    1    1    2    0    0  0.34991367956E+02  0.37903241543E+02 -0.87809616530E+01  0.52327400456E+02  0.00000000000E+00 0. -1.
</event>
<event>
 7    1  0.2648915E-009  0.6754146E+02  0.7561462E-02  0.1368659E+00
         -2   -1    0    0    0  501 -0.00000000000E+00  0.00000000000E+00  0.23275321083E+03  0.23275321083E+03  0.00000000000E+00 0.  1.
          2   -1    0    0  501    0  0.00000000000E+00 -0.00000000000E+00 -0.62450474907E+02  0.62450474907E+02  0.00000000000E+00 0. -1.
         25    2    1    2    0    0 -0.11233452042E+02 -0.51668504284E+02  0.98071177120E+02  0.16751719122E+03  0.12509288066E+03 0.  0.
          5    1    3    3  502    0 -0.26913319792E+02 -0.21897374295E+02  0.12141990715E+03  0.12634907215E+03  0.41800000000E+01 0.  1.
         -5    1    3    3    0  502  0.15679867750E+02 -0.29771129990E+02 -0.23348730025E+02  0.41168119064E+02  0.41800000000E+01 0.  1.
        -11    1    1    2    0    0  0.25841693201E+02  0.25769945612E+02  0.87103746762E+02  0.94440171031E+02  0.00000000000E+00 0.  1.
         11    1    1    2    0    0 -0.14608241159E+02  0.25898558673E+02 -0.14872187956E+02  0.33246323491E+02  0.00000000000E+00 0. -1.
</event>
<event>
 7    1  0.2648915E-009  0.9390389E+02  0.7561462E-02  0.1293664E+00
          1   -1    0    0  501    0  0.00000000000E+00  0.00000000000E+00  0.39057028172E+03  0.39057028172E+03  0.00000000000E+00 0. -1.
         -1   -1    0    0    0  501 -0.00000000000E+00 -0.00000000000E+00 -0.34730707973E+02  0.34730707973E+02  0.00000000000E+00 0.  1.
         25    2    1    2    0    0 -0.39809019016E+01  0.24506534942E+02  0.26467124148E+03  0.29379553300E+03  0.12509408982E+03 0.  0.
          5    1    3    3  502    0  0.59241701228E+02  0.21761500658E+02  0.14922724717E+03  0.16207833222E+03  0.41800000000E+01 0.  1.
         -5    1    3    3    0  502 -0.63222603129E+02  0.27450342838E+01  0.11544399431E+03  0.13171720078E+03  0.41800000000E+01 0.  1.
        -11    1    1    2    0    0  0.24681202088E+02  0.49124968897E+01  0.92145638983E+02  0.95520223753E+02  0.00000000000E+00 0. -1.
         11    1    1    2    0    0 -0.20700300187E+02 -0.29419031832E+02 -0.97730671469E+00  0.35985232946E+02  0.00000000000E+00 0.  1.
</event>
<event>
 7    1  0.2648915E-009  0.1034144E+03  0.7561462E-02  0.1273276E+00
         -2   -1    0    0    0  501 -0.00000000000E+00  0.00000000000E+00  0.52470813708E+02  0.52470813708E+02  0.00000000000E+00 0.  1.
          2   -1    0    0  501    0  0.00000000000E+00 -0.00000000000E+00 -0.42084524293E+03  0.42084524293E+03  0.00000000000E+00 0. -1.
         25    2    1    2    0    0 -0.74660950545E+02 -0.32853699213E+02 -0.10509821535E+03  0.18261355537E+03  0.12509377540E+03 0.  0.
          5    1    3    3  502    0 -0.16460616129E+01 -0.49848615076E+02  0.39613161116E+01  0.50207154561E+02  0.41800000000E+01 0. -1.
         -5    1    3    3    0  502 -0.73014888932E+02  0.16994915863E+02 -0.10905953146E+03  0.13240640080E+03  0.41800000000E+01 0. -1.
        -11    1    1    2    0    0  0.37344165522E+02  0.13963061978E+02 -0.21425080987E+02  0.45261328898E+02  0.00000000000E+00 0.  1.
         11    1    1    2    0    0  0.37316785023E+02  0.18890637235E+02 -0.24185113288E+03  0.24544117238E+03  0.00000000000E+00 0. -1.
</event>
<event>
 7    1  0.2690304E-009  0.1061705E+03  0.7561462E-02  0.1267830E+00
          2   -1    0    0  501    0  0.00000000000E+00  0.00000000000E+00  0.30833314582E+03  0.30833314582E+03  0.00000000000E+00 0. -1.
         -2   -1    0    0    0  501 -0.00000000000E+00 -0.00000000000E+00 -0.54839193946E+02  0.54839193946E+02  0.00000000000E+00 0.  1.
         25    2    1    2    0    0  0.17266876374E+02  0.57473971684E+02  0.85070483343E+02  0.16274071526E+03  0.12508457469E+03 0.  0.
          5    1    3    3  502    0  0.69499188478E+02  0.14899139852E+02  0.45020610061E+02  0.84240425555E+02  0.41800000000E+01 0. -1.
         -5    1    3    3    0  502 -0.52232312105E+02  0.42574831832E+02  0.40049873281E+02  0.78500289701E+02  0.41800000000E+01 0. -1.
        -11    1    1    2    0    0  0.61071794719E+01 -0.48027080831E+02  0.24393778418E+02  0.54212125578E+02  0.00000000000E+00 0.  1.
         11    1    1    2    0    0 -0.23374055845E+02 -0.94468908527E+01  0.14402969012E+03  0.14621949894E+03  0.00000000000E+00 0. -1.
</event>
<event>
 7    1  0.2648915E-009  0.1438478E+03  0.7561462E-02  0.1208243E+00
          2   -1    0    0  501    0  0.00000000000E+00  0.00000000000E+00  0.17576443004E+03  0.17576443004E+03  0.00000000000E+00 0. -1.
         -2   -1    0    0    0  501 -0.00000000000E+00 -0.00000000000E+00 -0.20496435206E+03  0.20496435206E+03  0.00000000000E+00 0.  1.
         25    2    1    2    0    0 -0.94814732656E+02  0.52669834192E+02 -0.12729641859E+03  0.20884092296E+03  0.12508480306E+03 0.  0.
          5    1    3    3  502    0 -0.73689210312E+02  0.93325803634E+02 -0.83846577283E+02  0.14555935649E+03  0.41800000000E+01 0. -1.
         -5    1    3    3    0  502 -0.21125522344E+02 -0.40655969442E+02 -0.43449841305E+02  0.63281566471E+02  0.41800000000E+01 0. -1.
        -11    1    1    2    0    0  0.36654279882E+02 -0.53123550256E+02  0.85432918123E+01  0.65104805203E+02  0.00000000000E+00 0.  1.
         11    1    1    2    0    0  0.58160452775E+02  0.45371606456E+00  0.89553204752E+02  0.10678305393E+03  0.00000000000E+00 0. -1.
</event>
<event>
 7    1  0.2648915E-009  0.7945374E+02  0.7561462E-02  0.1330609E+00
         -2   -1    0    0    0  501 -0.00000000000E+00  0.00000000000E+00  0.45218972050E+03  0.45218972050E+03  0.00000000000E+00 0.  1.
          2   -1    0    0  501    0  0.00000000000E+00 -0.00000000000E+00 -0.32661214052E+02  0.32661214052E+02  0.00000000000E+00 0. -1.
         25    2    1    2    0    0 -0.26497182663E+02  0.35715765429E+02  0.29266375344E+03  0.32136738123E+03  0.12508878667E+03 0.  0.
          5    1    3    3  502    0  0.75506622546E+01  0.59355013432E+01  0.27071226037E+03  0.27091482608E+03  0.41800000000E+01 0.  1.
         -5    1    3    3    0  502 -0.34047844918E+02  0.29780264086E+02  0.21951493067E+02  0.50452555143E+02  0.41800000000E+01 0.  1.
        -11    1    1    2    0    0 -0.17078173698E+02  0.23769171188E+02  0.32754913032E+02  0.43926322900E+02  0.00000000000E+00 0. -1.
         11    1    1    2    0    0  0.43575356361E+02 -0.59484936617E+02  0.94109839981E+02  0.11955723043E+03  0.00000000000E+00 0.  1.
</event>
<event>
 7    1  0.2648915E-009  0.2077215E+03  0.7561462E-02  0.1143383E+00
          1   -1    0    0  501    0  0.00000000000E+00  0.00000000000E+00  0.46441955720E+03  0.46441955720E+03  0.00000000000E+00 0. -1.
         -1   -1    0    0    0  501 -0.00000000000E+00 -0.00000000000E+00 -0.11556698352E+03  0.11556698352E+03  0.00000000000E+00 0.  1.
         25    2    1    2    0    0  0.18682168781E+03  0.12750474253E+02  0.75530347228E+02  0.23752509820E+03  0.12509365009E+03 0.  0.
          5    1    3    3  502    0  0.12037168820E+03 -0.51687688253E+02  0.30803715252E+02  0.13463766824E+03  0.41800000000E+01 0. -1.
         -5    1    3    3    0  502  0.66449999617E+02  0.64438162506E+02  0.44726631976E+02  0.10288742996E+03  0.41800000000E+01 0. -1.
        -11    1    1    2    0    0 -0.29731728733E+02 -0.17607380947E+02  0.11211930440E+03  0.11732320306E+03  0.00000000000E+00 0. -1.
         11    1    1    2    0    0 -0.15708995908E+03  0.48569066938E+01  0.16120292205E+03  0.22513823945E+03  0.00000000000E+00 0.  1.
</event>
<event>
 7    1  0.2648915E-009  0.7889198E+02  0.7561462E-02  0.1332226E+00
          2   -1    0    0  501    0  0.00000000000E+00  0.00000000000E+00  0.27209731201E+02  0.27209731201E+02  0.00000000000E+00 0. -1.
         -2   -1    0    0    0  501 -0.00000000000E+00 -0.00000000000E+00 -0.52389098725E+03  0.52389098725E+03  0.00000000000E+00 0.  1.
         25    2    1    2    0    0  0.48048897540E+02  0.10417206333E+02 -0.25319122420E+03  0.28665470011E+03  0.12509159181E+03 0.  0.
          5    1    3    3  502    0  0.28185746392E+02  0.21449207124E+02 -0.26010592815E+03  0.26253965614E+03  0.41800000000E+01 0. -1.
         -5    1    3    3    0  502  0.19863151148E+02 -0.11032000791E+02  0.69147039536E+01  0.24115043972E+02  0.41800000000E+01 0. -1.
        -11    1    1    2    0    0 -0.66602980603E+02  0.14289786375E+02 -0.19854010407E+03  0.20990075737E+03  0.00000000000E+00 0.  1.
         11    1    1    2    0    0  0.18554083063E+02 -0.24706992708E+02 -0.44949927777E+02  0.54545260969E+02  0.00000000000E+00 0. -1.
</event>
<event>
 7    1  0.3525096E-009  0.1495424E+03  0.7561462E-02  0.1201036E+00
         -1   -1    0    0    0  501 -0.00000000000E+00  0.00000000000E+00  0.36381082974E+02  0.36381082974E+02  0.00000000000E+00 0.  1.
          1   -1    0    0  501    0  0.00000000000E+00 -0.00000000000E+00 -0.84692839449E+03  0.84692839449E+03  0.00000000000E+00 0. -1.
         25    2    1    2    0    0 -0.22086924403E+02 -0.11750941705E+03 -0.25733497924E+03  0.31010561138E+03  0.12509157982E+03 0.  0.
          5    1    3    3  502    0 -0.89940066613E+01  0.13914890273E+02 -0.11352742097E+03  0.11480620209E+03  0.41800000000E+01 0. -1.
         -5    1    3    3    0  502 -0.13092917742E+02 -0.13142430732E+03 -0.14380755827E+03  0.19529940928E+03  0.41800000000E+01 0. -1.
        -11    1    1    2    0    0 -0.34794360130E+02  0.57223968399E+02 -0.23237350969E+03  0.24183192110E+03  0.00000000000E+00 0.  1.
         11    1    1    2    0    0  0.56881284533E+02  0.60285448650E+02 -0.32083882258E+03  0.33137194498E+03  0.00000000000E+00 0. -1.
</event>
<event>
 7    1  0.2648915E-009  0.9299302E+02  0.7561462E-02  0.1295761E+00
          4   -1    0    0  501    0  0.00000000000E+00  0.00000000000E+00  0.45899148510E+03  0.45899148510E+03  0.00000000000E+00 0.  1.
         -4   -1    0    0    0  501 -0.00000000000E+00 -0.00000000000E+00 -0.10657668808E+03  0.10657668808E+03  0.00000000000E+00 0. -1.
         25    2    1    2    0    0 -0.24306840953E+02  0.88502704162E+02  0.39839028723E+03  0.42753488536E+03  0.12509079137E+03 0.  0.
          5    1    3    3  502    0 -0.92918443762E+01  0.17354416342E+02 -0.23212071048E+01  0.20257703249E+02  0.41800000000E+01 0.  1.
         -5    1    3    3    0  502 -0.15014996577E+02  0.71148287820E+02  0.40071149433E+03  0.40727718212E+03  0.41800000000E+01 0.  1.
        -11    1    1    2    0    0  0.15808459182E+02 -0.77646322984E+02 -0.72971491084E+02  0.10772045936E+03  0.00000000000E+00 0. -1.
         11    1    1    2    0    0  0.84983817717E+01 -0.10856381178E+02  0.26996000884E+02  0.30312828452E+02  0.00000000000E+00 0.  1.
</event>
<event>
 7    1  0.2648915E-009  0.9276935E+02  0.7561462E-02  0.1296281E+00
          1   -1    0    0  501    0  0.00000000000E+00  0.00000000000E+00  0.15199304903E+03  0.15199304903E+03  0.00000000000E+00 0. -1.
         -1   -1    0    0    0  501 -0.00000000000E+00 -0.00000000000E+00 -0.10235271477E+03  0.10235271477E+03  0.00000000000E+00 0.  1.
         25    2    1    2    0    0 -0.63290982225E+02 -0.19560877879E+02 -0.13965490378E+02  0.14224599340E+03  0.12510200376E+03 0.  0.
          5    1    3    3  502    0 -0.55683222911E+02  0.33622040412E+02  0.30893161718E+02  0.72131288330E+02  0.41800000000E+01 0.  1.
         -5    1    3    3    0  502 -0.76077593136E+01 -0.53182918291E+02 -0.44858652096E+02  0.70114705074E+02  0.41800000000E+01 0.  1.
        -11    1    1    2    0    0  0.11515225264E+02  0.58236081980E+01  0.56628462674E+02  0.58080096506E+02  0.00000000000E+00 0. -1.
         11    1    1    2    0    0  0.51775756961E+02  0.13737269681E+02  0.69773619712E+01  0.54019673891E+02  0.00000000000E+00 0.  1.
</event>
<event>
 7    1  0.2648915E-009  0.1307140E+03  0.7561462E-02  0.1226400E+00
         -2   -1    0    0    0  501 -0.00000000000E+00  0.00000000000E+00  0.23852012439E+02  0.23852012439E+02  0.00000000000E+00 0.  1.
          2   -1    0    0  501    0  0.00000000000E+00 -0.00000000000E+00 -0.11081114190E+04  0.11081114190E+04  0.00000000000E+00 0. -1.
         25    2    1    2    0    0  0.98833588342E+02 -0.53380641001E+02 -0.73347342530E+03  0.75249562042E+03  0.12509525211E+03 0.  0.
          5    1    3    3  502    0  0.30350991179E+02  0.12351400282E+01 -0.53053662171E+03  0.53142194875E+03  0.41800000000E+01 0. -1.
         -5    1    3    3    0  502  0.68482597163E+02 -0.54615781029E+02 -0.20293680360E+03  0.22107367167E+03  0.41800000000E+01 0. -1.
        -11    1    1    2    0    0 -0.11020852559E+03  0.25729151233E+02 -0.29854080431E+03  0.31927185935E+03  0.00000000000E+00 0. -1.
         11    1    1    2    0    0  0.11374937248E+02  0.27651489768E+02 -0.52245176977E+02  0.60195951700E+02  0.00000000000E+00 0.  1.
</event>
<event>
 7    1  0.2648915E-009  0.2856958E+03  0.7561462E-02  0.1092618E+00
         -2   -1    0    0    0  501 -0.00000000000E+00  0.00000000000E+00  0.11708877518E+03  0.11708877518E+03  0.00000000000E+00 0.  1.
          2   -1    0    0  501    0  0.00000000000E+00 -0.00000000000E+00 -0.73060063811E+03  0.73060063811E+03  0.00000000000E+00 0. -1.
         25    2    1    2    0    0 -0.26061665139E+03  0.68669560589E+02 -0.25908740048E+03  0.39422138317E+03  0.12509064843E+03 0.  0.
          5    1    3    3  502    0 -0.15727612072E+03  0.10294858158E+03 -0.17000307039E+03  0.25348117275E+03  0.41800000000E+01 0. -1.
         -5    1    3    3    0  502 -0.10334053067E+03 -0.34279020993E+02 -0.89084330089E+02  0.14074021041E+03  0.41800000000E+01 0. -1.
        -11    1    1    2    0    0  0.77616236803E+02 -0.45454139902E+02 -0.17163639075E+03  0.19377670056E+03  0.00000000000E+00 0. -1.
         11    1    1    2    0    0  0.18300041459E+03 -0.23215420687E+02 -0.18278807170E+03  0.25969132956E+03  0.00000000000E+00 0.  1.
</event>
<event>
 7    1  0.2648915E-009  0.9423473E+02  0.7561462E-02  0.1292909E+00
          2   -1    0    0  501    0  0.00000000000E+00  0.00000000000E+00  0.23802256899E+03  0.23802256899E+03  0.00000000000E+00 0. -1.
         -2   -1    0    0    0  501 -0.00000000000E+00 -0.00000000000E+00 -0.74721065713E+02  0.74721065713E+02  0.00000000000E+00 0.  1.
         25    2    1    2    0    0 -0.72516374921E+02 -0.10008226886E+02  0.57431058258E+02  0.15590063720E+03  0.12509153844E+03 0.  0.
          5    1    3    3  502    0 -0.62857041565E+02 -0.27038878065E+02  0.92730361486E+02  0.11531912653E+03  0.41800000000E+01 0.  1.
         -5    1    3    3    0  502 -0.96593333566E+01  0.17030651179E+02 -0.35299303228E+02  0.40581510677E+02  0.41800000000E+01 0.  1.
        -11    1    1    2    0    0 -0.10402874923E+02 -0.10178840943E+02  0.56297780761E+02  0.58148677785E+02  0.00000000000E+00 0. -1.
         11    1    1    2    0    0  0.82919249844E+02  0.20187067829E+02  0.49572664256E+02  0.98694319713E+02  0.00000000000E+00 0.  1.
</event>
<event>
 7    1  0.2648915E-009  0.1615797E+03  0.7561462E-02  0.1186925E+00
          2   -1    0    0  501    0  0.00000000000E+00  0.00000000000E+00  0.11285693832E+03  0.11285693832E+03  0.00000000000E+00 0. -1.
         -2   -1    0    0    0  501 -0.00000000000E+00 -0.00000000000E+00 -0.39235367752E+03  0.39235367752E+03  0.00000000000E+00 0.  1.
         25    2    1    2    0    0 -0.30864215934E+02  0.12030028550E+03 -0.30171893672E+03  0.34943793374E+03  0.12509114373E+03 0.  0.
          5    1    3    3  502    0 -0.18762550962E+01 -0.25284140079E+02 -0.27813772170E+02  0.37866692423E+02  0.41800000000E+01 0. -1.
         -5    1    3    3    0  502 -0.28987960837E+02  0.14558442558E+03 -0.27390516455E+03  0.31157124131E+03  0.41800000000E+01 0. -1.
        -11    1    1    2    0    0  0.35672014183E+02 -0.79985720958E+01  0.23320739745E+02  0.43362733467E+02  0.00000000000E+00 0. -1.
         11    1    1    2    0    0 -0.48077982498E+01 -0.11230171340E+03 -0.10985422122E+01  0.11240994864E+03  0.00000000000E+00 0.  1.
</event>
<event>
 7    1  0.2648915E-009  0.7903839E+02  0.7561462E-02  0.1331803E+00
          2   -1    0    0  501    0  0.00000000000E+00  0.00000000000E+00  0.39519967425E+03  0.39519967425E+03  0.00000000000E+00 0. -1.
         -2   -1    0    0    0  501 -0.00000000000E+00 -0.00000000000E+00 -0.33932644426E+02  0.33932644426E+02  0.00000000000E+00 0.  1.
         25    2    1    2    0    0  0.25433451905E+02 -0.12615475396E+02  0.26058623066E+03  0.29044258629E+03  0.12508277909E+03 0.  0.
          5    1    3    3  502    0  0.31628434267E+01 -0.49588407246E+02  0.35483466693E+02  0.61201000975E+02  0.41800000000E+01 0.  1.
         -5    1    3    3    0  502  0.22270608478E+02  0.36972931851E+02  0.22510276396E+03  0.22924158531E+03  0.41800000000E+01 0.  1.
        -11    1    1    2    0    0 -0.23884609187E+02  0.35020216157E+02  0.10722290689E+03  0.11529805661E+03  0.00000000000E+00 0. -1.
         11    1    1    2    0    0 -0.15488427183E+01 -0.22404740762E+02 -0.65421077245E+01  0.23391675781E+02  0.00000000000E+00 0.  1.
</event>
<event>
 7    1  0.2648915E-009  0.1237373E+03  0.7561462E-02  0.1237056E+00
          2   -1    0    0  501    0  0.00000000000E+00  0.00000000000E+00  0.44691304192E+03  0.44691304192E+03  0.00000000000E+00 0. -1.
         -2   -1    0    0    0  501 -0.00000000000E+00 -0.00000000000E+00 -0.86539548958E+02  0.86539548958E+02  0.00000000000E+00 0.  1.
         25    2    1    2    0    0 -0.42169826572E+01 -0.71978524521E+02 -0.10751492484E+02  0.14478171220E+03  0.12508980240E+03 0.  0.
          5    1    3    3  502    0  0.53233980415E+02 -0.58677159346E+02 -0.26422920353E+02  0.83621222304E+02  0.41800000000E+01 0. -1.
         -5    1    3    3    0  502 -0.57450963072E+02 -0.13301365175E+02  0.15671427869E+02  0.61160489901E+02  0.41800000000E+01 0. -1.
        -11    1    1    2    0    0 -0.38768492715E+02  0.37153751662E+02  0.24709617015E+03  0.25286343071E+03  0.00000000000E+00 0. -1.
         11    1    1    2    0    0  0.42985475372E+02  0.34824772859E+02  0.12402881530E+03  0.13580744796E+03  0.00000000000E+00 0.  1.
</event>
<event>
 7    1  0.2648915E-009  0.1755501E+03  0.7561462E-02  0.1172181E+00
         -3   -1    0    0    0  501 -0.00000000000E+00  0.00000000000E+00  0.87703365348E+03  0.87703365348E+03  0.00000000000E+00 0.  1.
          3   -1    0    0  501    0  0.00000000000E+00 -0.00000000000E+00 -0.56639575559E+02  0.56639575559E+02  0.00000000000E+00 0. -1.
         25    2    1    2    0    0 -0.21386051071E+02  0.15894017565E+03  0.23500868313E+03  0.31079879299E+03  0.12508983158E+03 0.  0.
          5    1    3    3  502    0 -0.19459706417E+01  0.15854483688E+03  0.13336966364E+03  0.20723221681E+03  0.41800000000E+01 0.  1.
         -5    1    3    3    0  502 -0.19440080430E+02  0.39533876545E+00  0.10163901949E+03  0.10356657619E+03  0.41800000000E+01 0.  1.
        -11    1    1    2    0    0 -0.21415346709E+02 -0.30901542494E+02  0.22045067526E+02  0.43583338622E+02  0.00000000000E+00 0. -1.
         11    1    1    2    0    0  0.42801397780E+02 -0.12803863315E+03  0.56334032727E+03  0.57929109743E+03  0.00000000000E+00 0.  1.
</event>
<event>
 7    1  0.2648915E-009  0.1130161E+03  0.7561462E-02  0.1255084E+00
          2   -1    0    0  501    0  0.00000000000E+00  0.00000000000E+00  0.26542675538E+03  0.26542675538E+03  0.00000000000E+00 0.  1.
         -2   -1    0    0    0  501 -0.00000000000E+00 -0.00000000000E+00 -0.51269931749E+02  0.51269931749E+02  0.00000000000E+00 0. -1.
         25    2    1    2    0    0  0.37612524244E+02 -0.25418291835E+02  0.12007127035E+03  0.17923466861E+03  0.12508862829E+03 0.  0.
          5    1    3    3  502    0  0.63387792917E+02  0.30681933945E+02  0.72720125697E+02  0.10131674315E+03  0.41800000000E+01 0.  1.
         -5    1    3    3    0  502 -0.25775268674E+02 -0.56100225779E+02  0.47351144652E+02  0.77917925457E+02  0.41800000000E+01 0.  1.
        -11    1    1    2    0    0 -0.99909918957E+01 -0.30035484826E+02  0.10355441037E+02  0.33304435544E+02  0.00000000000E+00 0. -1.
         11    1    1    2    0    0 -0.27621532348E+02  0.55453776661E+02  0.83730112246E+02  0.10415758298E+03  0.00000000000E+00 0.  1.
</event>
<event>
 7    1  0.2648915E-009  0.1432372E+03  0.7561462E-02  0.1209038E+00
         -1   -1    0    0    0  501 -0.00000000000E+00  0.00000000000E+00  0.90461860311E+02  0.90461860311E+02  0.00000000000E+00 0.  1.
          1   -1    0    0  501    0  0.00000000000E+00 -0.00000000000E+00 -0.23909967855E+03  0.23909967855E+03  0.00000000000E+00 0. -1.
         25    2    1    2    0    0  0.40197184510E+02  0.95142530060E+02 -0.81020536418E+02  0.18132820142E+03  0.12509066568E+03 0.  0.
          5    1    3    3  502    0  0.78255150790E+01  0.11916879003E+03 -0.72940773071E+02  0.14000095707E+03  0.41800000000E+01 0. -1.
         -5    1    3    3    0  502  0.32371669431E+02 -0.24026259970E+02 -0.80797633466E+01  0.41327244351E+02  0.41800000000E+01 0. -1.
        -11    1    1    2    0    0  0.80151131217E+01 -0.72919140941E+02 -0.59653786646E+02  0.94551665322E+02  0.00000000000E+00 0. -1.
         11    1    1    2    0    0 -0.48212297632E+02 -0.22223389119E+02 -0.79634951794E+01  0.53681672127E+02  0.00000000000E+00 0.  1.
</event>
<event>
 7    1  0.2648915E-009  0.1346530E+03  0.7561462E-02  0.1220710E+00
         -2   -1    0    0    0  501 -0.00000000000E+00  0.00000000000E+00  0.92467820227E+02  0.92467820227E+02  0.00000000000E+00 0.  1.
          2   -1    0    0  501    0  0.00000000000E+00 -0.00000000000E+00 -0.44800117034E+03  0.44800117034E+03  0.00000000000E+00 0. -1.
         25    2    1    2    0    0 -0.71555908754E+02  0.55335713774E+02  0.86862556693E+01  0.15460779134E+03  0.12508328749E+03 0.  0.
          5    1    3    3  502    0  0.30184526028E+02  0.12324660873E+02 -0.22405965239E+02  0.39780680681E+02  0.41800000000E+01 0. -1.
         -5    1    3    3    0  502 -0.10174043478E+03  0.43011052901E+02  0.31092220909E+02  0.11482711066E+03  0.41800000000E+01 0. -1.
        -11    1    1    2    0    0  0.61860963833E+02  0.75042674133E+01 -0.15069741682E+03  0.16307300301E+03  0.00000000000E+00 0.  1.
         11    1    1    2    0    0  0.96949449217E+01 -0.62839981187E+02 -0.21352218896E+03  0.22278819621E+03  0.00000000000E+00 0. -1.
</event>
<event>
 7    1  0.2648915E-009  0.1377372E+03  0.7561462E-02  0.1216407E+00
          2   -1    0    0  501    0  0.00000000000E+00  0.00000000000E+00  0.27435811355E+03  0.27435811355E+03  0.00000000000E+00 0. -1.
         -2   -1    0    0    0  501 -0.00000000000E+00 -0.00000000000E+00 -0.13484191370E+03  0.13484191370E+03  0.00000000000E+00 0.  1.
         25    2    1    2    0    0 -0.70485179887E+02  0.53558173853E+02  0.21346884342E+03  0.26278019182E+03  0.12509134075E+03 0.  0.
          5    1    3    3  502    0  0.10413266021E+02 -0.31450989077E+02  0.29649685724E+02  0.44656209946E+02  0.41800000000E+01 0. -1.
         -5    1    3    3    0  502 -0.80898445908E+02  0.85009162930E+02  0.18381915770E+03  0.21812398188E+03  0.41800000000E+01 0. -1.
        -11    1    1    2    0    0 -0.17432915408E+02 -0.28202315877E+02 -0.30797685533E+02  0.45252343526E+02  0.00000000000E+00 0.  1.
         11    1    1    2    0    0  0.87918095296E+02 -0.25355857976E+02 -0.43154958034E+02  0.10116749190E+03  0.00000000000E+00 0. -1.
</event>
<event>
 7    1  0.2648915E-009  0.9909393E+02  0.7561462E-02  0.1282213E+00
         -1   -1    0    0    0  501 -0.00000000000E+00  0.00000000000E+00  0.50316700039E+02  0.50316700039E+02  0.00000000000E+00 0.  1.
          1   -1    0    0  501    0  0.00000000000E+00 -0.00000000000E+00 -0.28630206507E+03  0.28630206507E+03  0.00000000000E+00 0. -1.
         25    2    1    2    0    0  0.22335210303E+02 -0.34274459818E+02 -0.17626973678E+03  0.21998317567E+03  0.12509187527E+03 0.  0.
          5    1    3    3  502    0  0.26993140324E+02 -0.63974453951E+02 -0.39724922026E+02  0.80105569175E+02  0.41800000000E+01 0.  1.
         -5    1    3    3    0  502 -0.46579300209E+01  0.29699994133E+02 -0.13654481475E+03  0.13987760650E+03  0.41800000000E+01 0.  1.
        -11    1    1    2    0    0 -0.39493189175E+01 -0.30595194410E+02 -0.86004907947E+01  0.32025481773E+02  0.00000000000E+00 0.  1.
         11    1    1    2    0    0 -0.18385891385E+02  0.64869654228E+02 -0.51115137461E+02  0.84610107667E+02  0.00000000000E+00 0. -1.
</event>
<event>
 7    1  0.2648915E-009  0.1000961E+03  0.7561462E-02  0.1280094E+00
          2   -1    0    0  501    0  0.00000000000E+00  0.00000000000E+00  0.15472305833E+04  0.15472305833E+04  0.00000000000E+00 0. -1.
         -2   -1    0    0    0  501 -0.00000000000E+00 -0.00000000000E+00 -0.12160869089E+02  0.12160869089E+02  0.00000000000E+00 0.  1.
         25    2    1    2    0    0 -0.20854298754E+02  0.51444842337E+01  0.13011952936E+04  0.13073708555E+04  0.12509194370E+03 0.  0.
          5    1    3    3  502    0 -0.10071013665E+02  0.64218968257E+02  0.77863735547E+03  0.78135721980E+03  0.41800000000E+01 0. -1.
         -5    1    3    3    0  502 -0.10783285089E+02 -0.59074484023E+02  0.52255793809E+03  0.52601363572E+03  0.41800000000E+01 0. -1.
        -11    1    1    2    0    0 -0.15425640675E+02 -0.28007931403E+02  0.18166423725E+03  0.18445674210E+03  0.00000000000E+00 0. -1.
         11    1    1    2    0    0  0.36279939429E+02  0.22863447170E+02  0.52210183437E+02  0.67563854804E+02  0.00000000000E+00 0.  1.
</event>
<event>
 7    1  0.2648915E-009  0.1071751E+03  0.7561462E-02  0.1265892E+00
         -2   -1    0    0    0  501 -0.00000000000E+00  0.00000000000E+00  0.27063201196E+02  0.27063201196E+02  0.00000000000E+00 0.  1.
          2   -1    0    0  501    0  0.00000000000E+00 -0.00000000000E+00 -0.63075661454E+03  0.63075661454E+03  0.00000000000E+00 0. -1.
         25    2    1    2    0    0  0.24732331766E+02  0.67790725016E+02 -0.32740267688E+03  0.35783800583E+03  0.12509298523E+03 0.  0.
          5    1    3    3  502    0 -0.21077683253E+02  0.49938564882E+02 -0.29222572068E+03  0.29723975713E+03  0.41800000000E+01 0. -1.
         -5    1    3    3    0  502  0.45810015019E+02  0.17852160133E+02 -0.35176956205E+02  0.60598248699E+02  0.41800000000E+01 0. -1.
        -11    1    1    2    0    0 -0.52632965769E+02 -0.63396223959E+02 -0.24149839617E+03  0.25516815172E+03  0.00000000000E+00 0. -1.
         11    1    1    2    0    0  0.27900634003E+02 -0.43945010569E+01 -0.34792340286E+02  0.44813658185E+02  0.00000000000E+00 0.  1.
</event>
<event>
 7    1  0.2648915E-009  0.1152978E+03  0.7561462E-02  0.1251062E+00
         -1   -1    0    0    0  501 -0.00000000000E+00  0.00000000000E+00  0.82495792524E+02  0.82495792524E+02  0.00000000000E+00 0.  1.
          1   -1    0    0  501    0  0.00000000000E+00 -0.00000000000E+00 -0.16439829322E+03  0.16439829322E+03  0.00000000000E+00 0. -1.
         25    2    1    2    0    0  0.21223721678E+02  0.35496766295E+02 -0.37377609246E+02  0.13695141327E+03  0.12509251434E+03 0.  0.
          5    1    3    3  502    0  0.58351205737E+02 -0.21427018860E+02 -0.80693711352E+01  0.62821712000E+02  0.41800000000E+01 0. -1.
         -5    1    3    3    0  502 -0.37127484059E+02  0.56923785155E+02 -0.29308238111E+02  0.74129701268E+02  0.41800000000E+01 0. -1.
        -11    1    1    2    0    0 -0.31137217123E+02  0.24358880724E+02 -0.21873527904E+02  0.45181108699E+02  0.00000000000E+00 0.  1.
         11    1    1    2    0    0  0.99134954453E+01 -0.59855647019E+02 -0.22651363542E+02  0.64761563773E+02  0.00000000000E+00 0. -1.
</event>
<event>
 7    1  0.2648915E-009  0.1881441E+03  0.7561462E-02  0.1160146E+00
         -4   -1    0    0    0  501 -0.00000000000E+00  0.00000000000E+00  0.13616050094E+04  0.13616050094E+04  0.00000000000E+00 0.  1.
          4   -1    0    0  501    0  0.00000000000E+00 -0.00000000000E+00 -0.28925033625E+02  0.28925033625E+02  0.00000000000E+00 0. -1.
         25    2    1    2    0    0  0.16340006514E+03 -0.29220902619E+02  0.69922353532E+03  0.72946017634E+03  0.12508059032E+03 0.  0.
          5    1    3    3  502    0  0.35162360804E+02 -0.54853823564E+02  0.13101923049E+03  0.14638594446E+03  0.41800000000E+01 0.  1.
         -5    1    3    3    0  502  0.12823770434E+03  0.25632920944E+02  0.56820430483E+03  0.58307423188E+03  0.41800000000E+01 0.  1.
        -11    1    1    2    0    0 -0.58562396637E+02  0.45372110010E+02  0.16683168617E+03  0.18254039054E+03  0.00000000000E+00 0.  1.
         11    1    1    2    0    0 -0.10483766851E+03 -0.16151207391E+02  0.46662475427E+03  0.47852947614E+03  0.00000000000E+00 0. -1.
</event>
<event>
 7    1  0.2648915E-009  0.9713355E+02  0.7561462E-02  0.1286442E+00
          1   -1    0    0  501    0  0.00000000000E+00  0.00000000000E+00  0.61058173240E+03  0.61058173240E+03  0.00000000000E+00 0. -1.
         -1   -1    0    0    0  501 -0.00000000000E+00 -0.00000000000E+00 -0.27331595561E+02  0.27331595561E+02  0.00000000000E+00 0.  1.
         25    2    1    2    0    0 -0.32347912849E+02  0.31999968641E+02  0.45246815985E+03  0.47164086165E+03  0.12508909320E+03 0.  0.
          5    1    3    3  502    0 -0.67407078051E+02  0.20863489864E+02  0.13847672548E+03  0.15547435570E+03  0.41800000000E+01 0. -1.
         -5    1    3    3    0  502  0.35059165203E+02  0.11136478777E+02  0.31399143437E+03  0.31616650595E+03  0.41800000000E+01 0. -1.
        -11    1    1    2    0    0 -0.15657483213E+02  0.13308157900E+02  0.81078683361E+02  0.83642194752E+02  0.00000000000E+00 0. -1.
         11    1    1    2    0    0  0.48005396061E+02 -0.45308126541E+02  0.49703293633E+02  0.82630271569E+02  0.00000000000E+00 0.  1.
</event>
<event>
 7    1  0.2648915E-009  0.9425723E+02  0.7561462E-02  0.1292858E+00
          1   -1    0    0  501    0  0.00000000000E+00  0.00000000000E+00  0.25249482744E+03  0.25249482744E+03  0.00000000000E+00 0. -1.
         -1   -1    0    0    0  501 -0.00000000000E+00 -0.00000000000E+00 -0.55631962073E+02  0.55631962073E+02  0.00000000000E+00 0.  1.
         25    2    1    2    0    0  0.36350171686E+02  0.25263881505E+02  0.76939114134E+02  0.15338565095E+03  0.12509169414E+03 0.  0.
          5    1    3    3  502    0  0.56002837675E+02 -0.28328619081E+01  0.97959458981E+02  0.11295074563E+03  0.41800000000E+01 0. -1.
         -5    1    3    3    0  502 -0.19652665989E+02  0.28096743413E+02 -0.21020344847E+02  0.40434905322E+02  0.41800000000E+01 0. -1.
        -11    1    1    2    0    0  0.23187775038E+02  0.13372220527E+02  0.30697437962E+02  0.40728637229E+02  0.00000000000E+00 0. -1.
         11    1    1    2    0    0 -0.59537946725E+02 -0.38636102032E+02  0.89226313270E+02  0.11401250133E+03  0.00000000000E+00 0.  1.
</event>
<event>
 7    1  0.2648915E-009  0.3037587E+02  0.7561462E-02  0.1593971E+00
         -1   -1    0    0    0  501 -0.00000000000E+00  0.00000000000E+00  0.30769663456E+02  0.30769663456E+02  0.00000000000E+00 0.  1.
          1   -1    0    0  501    0  0.00000000000E+00 -0.00000000000E+00 -0.40986619548E+03  0.40986619548E+03  0.00000000000E+00 0. -1.
         25    2    1    2    0    0 -0.36832136248E+00 -0.18068001106E+02 -0.27503781351E+03  0.30268876964E+03  0.12509238219E+03 0.  0.
          5    1    3    3  502    0  0.20602551795E+01 -0.15595636427E+02 -0.28809142854E+03  0.28855088308E+03  0.41800000000E+01 0. -1.
         -5    1    3    3    0  502 -0.24285765420E+01 -0.24723646781E+01  0.13053615030E+02  0.14137886563E+02  0.41800000000E+01 0. -1.
        -11    1    1    2    0    0  0.56266546514E+01  0.27595163448E+02 -0.11739993184E+03  0.12073067665E+03  0.00000000000E+00 0. -1.
         11    1    1    2    0    0 -0.52583332889E+01 -0.95271623420E+01  0.13341213328E+02  0.17216412644E+02  0.00000000000E+00 0.  1.
</event>
<event>
 7    1  0.2648915E-009  0.1854960E+03  0.7561462E-02  0.1162588E+00
         -2   -1    0    0    0  501 -0.00000000000E+00  0.00000000000E+00  0.19638532796E+02  0.19638532796E+02  0.00000000000E+00 0.  1.
          2   -1    0    0  501    0  0.00000000000E+00 -0.00000000000E+00 -0.22849605861E+04  0.22849605861E+04  0.00000000000E+00 0. -1.
         25    2    1    2    0    0 -0.14026534164E+03  0.70948635754E+02 -0.16714649066E+04  0.16834929944E+04  0.12508258632E+03 0.  0.
          5    1    3    3  502    0 -0.15253001462E+03  0.90363446193E+02 -0.15000887116E+04  0.15105345322E+04  0.41800000000E+01 0.  1.
         -5    1    3    3    0  502  0.12264672981E+02 -0.19414810439E+02 -0.17137619497E+03  0.17295846226E+03  0.41800000000E+01 0.  1.
        -11    1    1    2    0    0  0.92729850347E+02 -0.79344077704E+02 -0.50951572610E+03  0.52392803222E+03  0.00000000000E+00 0. -1.
         11    1    1    2    0    0  0.47535491290E+02  0.83954419499E+01 -0.84341420644E+02  0.97178092253E+02  0.00000000000E+00 0.  1.
</event>
<event>
 7    1  0.2648915E-009  0.1247813E+03  0.7561462E-02  0.1235412E+00
          2   -1    0    0  501    0  0.00000000000E+00  0.00000000000E+00  0.36347610112E+03  0.36347610112E+03  0.00000000000E+00 0. -1.
         -2   -1    0    0    0  501 -0.00000000000E+00 -0.00000000000E+00 -0.46627435962E+02  0.46627435962E+02  0.00000000000E+00 0.  1.
         25    2    1    2    0    0  0.53910383182E+02 -0.44296577090E+02  0.20855729394E+03  0.25300848703E+03  0.12509449825E+03 0.  0.
          5    1    3    3  502    0 -0.18661266290E+02  0.32108635830E+02  0.46480281818E+02  0.59641397974E+02  0.41800000000E+01 0.  1.
         -5    1    3    3    0  502  0.72571649473E+02 -0.76405212920E+02  0.16207701213E+03  0.19336708905E+03  0.41800000000E+01 0.  1.
        -11    1    1    2    0    0  0.99092360105E+01  0.41696151083E+02  0.17972974370E+02  0.46473538505E+02  0.00000000000E+00 0.  1.
         11    1    1    2    0    0 -0.63819619193E+02  0.26004260069E+01  0.90318396844E+02  0.11062151155E+03  0.00000000000E+00 0. -1.
</event>
<event>
 7    1  0.2648915E-009  0.1008498E+03  0.7561462E-02  0.1278519E+00
         -1   -1    0    0    0  501 -0.00000000000E+00  0.00000000000E+00  0.10838926947E+03  0.10838926947E+03  0.00000000000E+00 0.  1.
          1   -1    0    0  501    0  0.00000000000E+00 -0.00000000000E+00 -0.14973948440E+03  0.14973948440E+03  0.00000000000E+00 0. -1.
         25    2    1    2    0    0  0.13680383769E+02 -0.77801594711E+02  0.13069706821E+02  0.14852214851E+03  0.12509104813E+03 0.  0.
          5    1    3    3  502    0  0.20715536630E+02 -0.97592762105E+02  0.45440836399E+02  0.10970789710E+03  0.41800000000E+01 0. -1.
         -5    1    3    3    0  502 -0.70351528605E+01  0.19791167394E+02 -0.32371129578E+02  0.38814251413E+02  0.41800000000E+01 0. -1.
        -11    1    1    2    0    0 -0.27434513032E-01  0.43638257454E+02  0.33512711442E+00  0.43639552890E+02  0.00000000000E+00 0.  1.
         11    1    1    2    0    0 -0.13652949256E+02  0.34163337257E+02 -0.54755048857E+02  0.65967052468E+02  0.00000000000E+00 0. -1.
</event>
<event>
 7    1  0.2648915E-009  0.7281091E+02  0.7561462E-02  0.1350787E+00
          2   -1    0    0  501    0  0.00000000000E+00  0.00000000000E+00  0.24493112309E+03  0.24493112309E+03  0.00000000000E+00 0. -1.
         -2   -1    0    0    0  501 -0.00000000000E+00 -0.00000000000E+00 -0.57041905701E+02  0.57041905701E+02  0.00000000000E+00 0.  1.
         25    2    1    2    0    0 -0.40046059871E+02 -0.28692763509E+01  0.13960286999E+03  0.19169753971E+03  0.12508823192E+03 0.  0.
          5    1    3    3  502    0 -0.48514567221E+02 -0.82354804649E+01 -0.22426773007E+01  0.49436710779E+02  0.41800000000E+01 0. -1.
         -5    1    3    3    0  502  0.84685073502E+01  0.53662041141E+01  0.14184554729E+03  0.14226082894E+03  0.41800000000E+01 0. -1.
        -11    1    1    2    0    0  0.47509920963E+01  0.36389307127E+02  0.49457377286E+02  0.61585597075E+02  0.00000000000E+00 0. -1.
         11    1    1    2    0    0  0.35295067775E+02 -0.33520030776E+02 -0.11710298832E+01  0.48689892005E+02  0.00000000000E+00 0.  1.
</event>
<event>
 7    1  0.2648915E-009  0.1555026E+03  0.7561462E-02  0.1193870E+00
          1   -1    0    0  501    0  0.00000000000E+00  0.00000000000E+00  0.96032570713E+03  0.96032570713E+03  0.00000000000E+00 0. -1.
         -1   -1    0    0    0  501 -0.00000000000E+00 -0.00000000000E+00 -0.69986363453E+02  0.69986363453E+02  0.00000000000E+00 0.  1.
         25    2    1    2    0    0 -0.69795873926E+02 -0.87097770478E+02  0.46190023077E+02  0.17389494372E+03  0.12509375516E+03 0.  0.
          5    1    3    3  502    0  0.42774509856E+01  0.28667538376E+02  0.15000298608E+02  0.32902974057E+02  0.41800000000E+01 0. -1.
         -5    1    3    3    0  502 -0.74073324911E+02 -0.11576530885E+03  0.31189724470E+02  0.14099196966E+03  0.41800000000E+01 0. -1.
        -11    1    1    2    0    0 -0.20346932945E+02  0.33941573746E+02  0.21129544454E+03  0.21496928383E+03  0.00000000000E+00 0.  1.
         11    1    1    2    0    0  0.90142806870E+02  0.53156196731E+02  0.63285387606E+03  0.64144784303E+03  0.00000000000E+00 0. -1.
</event>
<event>
 7    1  0.2648915E-009  0.1277293E+03  0.7561462E-02  0.1230864E+00
          1   -1    0    0  501    0  0.00000000000E+00  0.00000000000E+00  0.34077397968E+03  0.34077397968E+03  0.00000000000E+00 0. -1.
         -1   -1    0    0    0  501 -0.00000000000E+00 -0.00000000000E+00 -0.54162978197E+02  0.54162978197E+02  0.00000000000E+00 0.  1.
         25    2    1    2    0    0 -0.80611230095E+02  0.44493309793E+01  0.16635182997E+03  0.22324571931E+03  0.12509097846E+03 0.  0.
          5    1    3    3  502    0 -0.11354653520E+03 -0.65884930908E+01  0.13031353928E+03  0.17301824995E+03  0.41800000000E+01 0.  1.
         -5    1    3    3    0  502  0.32935305102E+02  0.11037824070E+02  0.36038290686E+02  0.50227469357E+02  0.41800000000E+01 0.  1.
        -11    1    1    2    0    0  0.81554072270E+02 -0.25606741674E+02  0.51615011767E+02  0.99854300672E+02  0.00000000000E+00 0.  1.
         11    1    1    2    0    0 -0.94284217466E+00  0.21157410695E+02  0.68644159743E+02  0.71836937891E+02  0.00000000000E+00 0. -1.
</event>
<event>
 7    1  0.2648915E-009  0.1961582E+03  0.7561462E-02  0.1153021E+00
         -1   -1    0    0    0  501 -0.00000000000E+00  0.00000000000E+00  0.48592283611E+02  0.48592283611E+02  0.00000000000E+00 0.  1.
          1   -1    0    0  501    0  0.00000000000E+00 -0.00000000000E+00 -0.11079771406E+04  0.11079771406E+04  0.00000000000E+00 0. -1.
         25    2    1    2    0    0 -0.12940407830E+03 -0.14369241920E+03 -0.37677474721E+03  0.44158964404E+03  0.12509706938E+03 0.  0.
          5    1    3    3  502    0 -0.11662260754E+02 -0.13757239335E+02 -0.16755912598E+03  0.16857877404E+03  0.41800000000E+01 0.  1.
         -5    1    3    3    0  502 -0.11774181755E+03 -0.12993517987E+03 -0.20921562124E+03  0.27301086999E+03  0.41800000000E+01 0.  1.
        -11    1    1    2    0    0  0.68248751756E+02  0.10752934882E+03 -0.30137462086E+03  0.32718055424E+03  0.00000000000E+00 0.  1.
         11    1    1    2    0    0  0.61155326545E+02  0.36163070380E+02 -0.38123548888E+03  0.38779922590E+03  0.00000000000E+00 0. -1.
</event>
<event>
 7    1  0.2648915E-009  0.1015885E+03  0.7561462E-02  0.1276991E+00
          1   -1    0    0  501    0  0.00000000000E+00  0.00000000000E+00  0.52583574809E+02  0.52583574809E+02  0.00000000000E+00 0. -1.
         -1   -1    0    0    0  501 -0.00000000000E+00 -0.00000000000E+00 -0.25235787669E+03  0.25235787669E+03  0.00000000000E+00 0.  1.
         25    2    1    2    0    0  0.23147105593E+02  0.17248919501E+02 -0.63999938735E+02  0.14344703571E+03  0.12509095161E+03 0.  0.
          5    1    3    3  502    0  0.54027309809E+02  0.55937571979E+02 -0.46880997825E+02  0.90902489081E+02  0.41800000000E+01 0. -1.
         -5    1    3    3    0  502 -0.30880204215E+02 -0.38688652478E+02 -0.17118940910E+02  0.52544546632E+02  0.41800000000E+01 0. -1.
        -11    1    1    2    0    0 -0.46418402012E+02  0.38601982636E+00 -0.39700063487E+02  0.61081192666E+02  0.00000000000E+00 0. -1.
         11    1    1    2    0    0  0.23271296419E+02 -0.17634939327E+02 -0.96074299656E+02  0.10041322312E+03  0.00000000000E+00 0.  1.
</event>
<event>
 7    1  0.2648915E-009  0.1002103E+03  0.7561462E-02  0.1279854E+00
         -3   -1    0    0    0  501 -0.00000000000E+00  0.00000000000E+00  0.60909851731E+03  0.60909851731E+03  0.00000000000E+00 0.  1.
          3   -1    0    0  501    0  0.00000000000E+00 -0.00000000000E+00 -0.27786412352E+02  0.27786412352E+02  0.00000000000E+00 0. -1.
         25    2    1    2    0    0 -0.49099181616E+02  0.30572558096E+02  0.44941567845E+03  0.47007112762E+03  0.12508797722E+03 0.  0.
          5    1    3    3  502    0 -0.81675656940E+02  0.49886807576E+02  0.26560005736E+03  0.28234813507E+03  0.41800000000E+01 0. -1.
         -5    1    3    3    0  502  0.32576475324E+02 -0.19314249480E+02  0.18381562109E+03  0.18772299256E+03  0.41800000000E+01 0. -1.
        -11    1    1    2    0    0  0.26600154698E+02  0.22864012270E+01  0.12318964909E+03  0.12604953591E+03  0.00000000000E+00 0.  1.
         11    1    1    2    0    0  0.22499026918E+02 -0.32858959323E+02  0.87067774211E+01  0.40764266130E+02  0.00000000000E+00 0. -1.
</event>
<event>
 7    1  0.2648915E-009  0.1374687E+03  0.7561462E-02  0.1216776E+00
          1   -1    0    0  501    0  0.00000000000E+00  0.00000000000E+00  0.31496754674E+03  0.31496754674E+03  0.00000000000E+00 0. -1.
         -1   -1    0    0    0  501 -0.00000000000E+00 -0.00000000000E+00 -0.76957860714E+02  0.76957860714E+02  0.00000000000E+00 0.  1.
         25    2    1    2    0    0  0.34985496829E+02  0.99013658642E+02  0.17866286392E+03  0.24206255356E+03  0.12508465655E+03 0.  0.
          5    1    3    3  502    0  0.81472701109E+02  0.50261211555E+02  0.10363144724E+03  0.14114155898E+03  0.41800000000E+01 0.  1.
         -5    1    3    3    0  502 -0.46487204280E+02  0.48752447087E+02  0.75031416680E+02  0.10092099458E+03  0.41800000000E+01 0.  1.
        -11    1    1    2    0    0 -0.41528841469E+02 -0.66074808434E+02 -0.40220318306E+01  0.78145388370E+02  0.00000000000E+00 0.  1.
         11    1    1    2    0    0  0.65433446407E+01 -0.32938850208E+02  0.63368853941E+02  0.71717465529E+02  0.00000000000E+00 0. -1.
</event>
<event>
 7    1  0.2648915E-009  0.1344703E+03  0.7561462E-02  0.1220969E+00
         -2   -1    0    0    0  501 -0.00000000000E+00  0.00000000000E+00  0.16570614215E+03  0.16570614215E+03  0.00000000000E+00 0.  1.
          2   -1    0    0  501    0  0.00000000000E+00 -0.00000000000E+00 -0.13636589781E+03  0.13636589781E+03  0.00000000000E+00 0. -1.
         25    2    1    2    0    0  0.91817278257E+02  0.20391187188E+02  0.69736671495E+02  0.17133238861E+03  0.12508145719E+03 0.  0.
          5    1    3    3  502    0  0.10300593609E+03  0.56712561074E+02  0.46025843465E+02  0.12634234492E+03  0.41800000000E+01 0. -1.
         -5    1    3    3    0  502 -0.11188657833E+02 -0.36321373885E+02  0.23710828030E+02  0.44990043686E+02  0.41800000000E+01 0. -1.
        -11    1    1    2    0    0 -0.59017366490E+02  0.18800276184E+02 -0.48919588094E+02  0.78927980028E+02  0.00000000000E+00 0. -1.
         11    1    1    2    0    0 -0.32799911767E+02 -0.39191463373E+02  0.85231609404E+01  0.51811671327E+02  0.00000000000E+00 0.  1.
</event>
<event>
 7    1  0.2648915E-009  0.1423442E+03  0.7561462E-02  0.1210209E+00
          1   -1    0    0  501    0  0.00000000000E+00  0.00000000000E+00  0.95172134386E+02  0.95172134386E+02  0.00000000000E+00 0. -1.
         -1   -1    0    0    0  501 -0.00000000000E+00 -0.00000000000E+00 -0.37594741586E+03  0.37594741586E+03  0.00000000000E+00 0.  1.
         25    2    1    2    0    0 -0.56852604188E+02  0.90683415588E+02 -0.28718383806E+03  0.33102655119E+03  0.12509324636E+03 0.  0.
          5    1    3    3  502    0 -0.92288532304E+02  0.51785565788E+02 -0.22995813747E+03  0.25317412073E+03  0.41800000000E+01 0. -1.
         -5    1    3    3    0  502  0.35435928116E+02  0.38897849801E+02 -0.57225700587E+02  0.77852430458E+02  0.41800000000E+01 0. -1.
        -11    1    1    2    0    0  0.71549396515E+02 -0.82389364288E+02 -0.17820418066E+02  0.11056622807E+03  0.00000000000E+00 0.  1.
         11    1    1    2    0    0 -0.14696792327E+02 -0.82940513004E+01  0.24228974657E+02  0.29526770982E+02  0.00000000000E+00 0. -1.
</event>
<event>
 7    1  0.2648915E-009  0.3658974E+03  0.7561462E-02  0.1056273E+00
          4   -1    0    0  501    0  0.00000000000E+00  0.00000000000E+00  0.86726432916E+03  0.86726432916E+03  0.00000000000E+00 0.  1.
         -4   -1    0    0    0  501 -0.00000000000E+00 -0.00000000000E+00 -0.15584255209E+03  0.15584255209E+03  0.00000000000E+00 0. -1.
         25    2    1    2    0    0 -0.32125657842E+03  0.14073734596E+03  0.36946087848E+03  0.52455929457E+03  0.12509325749E+03 0.  0.
          5    1    3    3  502    0 -0.15893354097E+03  0.60915574468E+01  0.18816721309E+03  0.24641702457E+03  0.41800000000E+01 0. -1.
         -5    1    3    3    0  502 -0.16232303745E+03  0.13464578851E+03  0.18129366540E+03  0.27814227000E+03  0.41800000000E+01 0. -1.
        -11    1    1    2    0    0  0.16058017389E+03 -0.11843732600E+03  0.16980279374E+03  0.26200454423E+03  0.00000000000E+00 0. -1.
         11    1    1    2    0    0  0.16067640453E+03 -0.22300019954E+02  0.17215810485E+03  0.23654304244E+03  0.00000000000E+00 0.  1.
</event>
<event>
 7    1  0.2648915E-009  0.1199128E+03  0.7561462E-02  0.1243241E+00
         -2   -1    0    0    0  501 -0.00000000000E+00  0.00000000000E+00  0.43898151746E+02  0.43898151746E+02  0.00000000000E+00 0.  1.
          2   -1    0    0  501    0  0.00000000000E+00 -0.00000000000E+00 -0.33215411947E+03  0.33215411947E+03  0.00000000000E+00 0. -1.
         25    2    1    2    0    0  0.40962380246E+02 -0.29199688989E+02 -0.17056438689E+03  0.21741420868E+03  0.12508472980E+03 0.  0.
          5    1    3    3  502    0  0.10797820223E+02  0.48891641627E+02 -0.75312536089E+02  0.90534170536E+02  0.41800000000E+01 0.  1.
         -5    1    3    3    0  502  0.30164560023E+02 -0.78091330616E+02 -0.95251850799E+02  0.12688003814E+03  0.41800000000E+01 0.  1.
        -11    1    1    2    0    0  0.29566141732E+02  0.17245616475E+02 -0.46256866194E+02  0.57543598207E+02  0.00000000000E+00 0. -1.
         11    1    1    2    0    0 -0.70528521978E+02  0.11954072514E+02 -0.71434714640E+02  0.10109446433E+03  0.00000000000E+00 0.  1.
</event>
<event>
 7    1  0.2648915E-009  0.1264073E+03  0.7561462E-02  0.1232886E+00
         -1   -1    0    0    0  501 -0.00000000000E+00  0.00000000000E+00  0.10382254127E+04  0.10382254127E+04  0.00000000000E+00 0.  1.
          1   -1    0    0  501    0  0.00000000000E+00 -0.00000000000E+00 -0.18857106268E+02  0.18857106268E+02  0.00000000000E+00 0. -1.
         25    2    1    2    0    0 -0.81336425737E+02  0.19879265951E+02  0.66301778433E+03  0.67989052831E+03  0.12509096200E+03 0.  0.
          5    1    3    3  502    0 -0.74041100810E+01  0.50104164808E+02  0.44075208907E+03  0.44367231669E+03  0.41800000000E+01 0. -1.
         -5    1    3    3    0  502 -0.73932315656E+02 -0.30224898857E+02  0.22226569526E+03  0.23621821162E+03  0.41800000000E+01 0. -1.
        -11    1    1    2    0    0 -0.18163848965E+02 -0.12879231121E+02  0.91802537884E+02  0.94464310538E+02  0.00000000000E+00 0.  1.
         11    1    1    2    0    0  0.99500274703E+02 -0.70000348292E+01  0.26454798418E+03  0.28272768008E+03  0.00000000000E+00 0. -1.
</event>
<event>
 7    1  0.2648915E-009  0.1240115E+03  0.7561462E-02  0.1236622E+00
         -2   -1    0    0    0  501 -0.00000000000E+00  0.00000000000E+00  0.51053571712E+02  0.51053571712E+02  0.00000000000E+00 0.  1.
          2   -1    0    0  501    0  0.00000000000E+00 -0.00000000000E+00 -0.74514697557E+03  0.74514697557E+03  0.00000000000E+00 0. -1.
         25    2    1    2    0    0 -0.79810773526E+02 -0.21532585932E+02 -0.79114144018E+02  0.16952744758E+03  0.12508835227E+03 0.  0.
          5    1    3    3  502    0 -0.66279538077E+02  0.32046497098E+02 -0.86447918471E+02  0.11362512993E+03  0.41800000000E+01 0. -1.
         -5    1    3    3    0  502 -0.13531235449E+02 -0.53579083030E+02  0.73337744525E+01  0.55902317652E+02  0.41800000000E+01 0. -1.
        -11    1    1    2    0    0 -0.13348632435E+02 -0.13828590669E+02 -0.66760624474E+02  0.69472274239E+02  0.00000000000E+00 0. -1.
         11    1    1    2    0    0  0.93159405961E+02  0.35361176602E+02 -0.54821863536E+03  0.55720082546E+03  0.00000000000E+00 0.  1.
</event>
<event>
 7    1  0.2858158E-009  0.1163563E+03  0.7561462E-02  0.1249232E+00
         -2   -1    0    0    0  501 -0.00000000000E+00  0.00000000000E+00  0.22753298893E+02  0.22753298893E+02  0.00000000000E+00 0.  1.
          2   -1    0    0  501    0  0.00000000000E+00 -0.00000000000E+00 -0.96476606783E+03  0.96476606783E+03  0.00000000000E+00 0. -1.
         25    2    1    2    0    0 -0.42003314117E+01 -0.78547548819E+02 -0.71641143680E+03  0.73149079861E+03  0.12508429744E+03 0.  0.
          5    1    3    3  502    0  0.21717556679E+02 -0.95657067226E+02 -0.34323258644E+03  0.35699861004E+03  0.41800000000E+01 0.  1.
         -5    1    3    3    0  502 -0.25917888090E+02  0.17109518408E+02 -0.37317885036E+03  0.37449218857E+03  0.41800000000E+01 0.  1.
        -11    1    1    2    0    0 -0.29579290397E+02  0.53538821870E+02 -0.61918875152E+02  0.87036124498E+02  0.00000000000E+00 0.  1.
         11    1    1    2    0    0  0.33779621809E+02  0.25008726949E+02 -0.16368245699E+03  0.16899244361E+03  0.00000000000E+00 0. -1.
</event>
<event>
 7    1  0.2648915E-009  0.2081374E+03  0.7561462E-02  0.1143049E+00
          2   -1    0    0  501    0  0.00000000000E+00  0.00000000000E+00  0.23552206616E+03  0.23552206616E+03  0.00000000000E+00 0. -1.
         -2   -1    0    0    0  501 -0.00000000000E+00 -0.00000000000E+00 -0.27625427732E+03  0.27625427732E+03  0.00000000000E+00 0.  1.
         25    2    1    2    0    0 -0.19314829569E+03  0.32370591691E+02  0.10215043241E+03  0.25384283621E+03  0.12508938931E+03 0.  0.
          5    1    3    3  502    0 -0.95745525302E+02  0.40125349988E+02 -0.10773828268E+02  0.10445476103E+03  0.41800000000E+01 0.  1.
         -5    1    3    3    0  502 -0.97402770389E+02 -0.77547582975E+01  0.11292426067E+03  0.14938807518E+03  0.41800000000E+01 0.  1.
        -11    1    1    2    0    0  0.36492180125E+02 -0.44385303537E+02 -0.42795656861E+02  0.71646372040E+02  0.00000000000E+00 0.  1.
         11    1    1    2    0    0  0.15665611557E+03  0.12014711847E+02 -0.10008698670E+03  0.18628713523E+03  0.00000000000E+00 0. -1.
</event>
<event>
 7    1  0.2648915E-009  0.1226457E+03  0.7561462E-02  0.1238795E+00
         -1   -1    0    0    0  501 -0.00000000000E+00  0.00000000000E+00  0.15302713032E+03  0.15302713032E+03  0.00000000000E+00 0.  1.
          1   -1    0    0  501    0  0.00000000000E+00 -0.00000000000E+00 -0.11758360867E+03  0.11758360867E+03  0.00000000000E+00 0. -1.
         25    2    1    2    0    0  0.71642398192E+02  0.21814110006E+02 -0.60638286540E+01  0.14592135382E+03  0.12509109828E+03 0.  0.
          5    1    3    3  502    0 -0.30818432458E+01  0.60893681250E+02 -0.67699905831E+01  0.61488562729E+02  0.41800000000E+01 0. -1.
         -5    1    3    3    0  502  0.74724241438E+02 -0.39079571244E+02  0.70616192917E+00  0.84432791093E+02  0.41800000000E+01 0. -1.
        -11    1    1    2    0    0 -0.84268176251E+01 -0.34291367500E+02 -0.15586676578E+02  0.38598622088E+02  0.00000000000E+00 0. -1.
         11    1    1    2    0    0 -0.63215580567E+02  0.12477257494E+02  0.57094026882E+02  0.86090763073E+02  0.00000000000E+00 0.  1.
</event>
<event>
 7    1  0.2648915E-009  0.2031338E+03  0.7561462E-02  0.1147122E+00
         -2   -1    0    0    0  501 -0.00000000000E+00  0.00000000000E+00  0.20339485611E+03  0.20339485611E+03  0.00000000000E+00 0.  1.
          2   -1    0    0  501    0  0.00000000000E+00 -0.00000000000E+00 -0.23742806933E+03  0.23742806933E+03  0.00000000000E+00 0. -1.
         25    2    1    2    0    0 -0.18474299875E+03  0.76161751723E-01 -0.64158541718E+02  0.23215119750E+03  0.12509148107E+03 0.  0.
          5    1    3    3  502    0 -0.47941986053E+02  0.55821384845E+02 -0.34699598381E+02  0.81461620169E+02  0.41800000000E+01 0. -1.
         -5    1    3    3    0  502 -0.13680101270E+03 -0.55745223094E+02 -0.29458943336E+02  0.15068957733E+03  0.41800000000E+01 0. -1.
        -11    1    1    2    0    0  0.11860271184E+03 -0.19126999236E+01  0.63521262127E+02  0.13455561088E+03  0.00000000000E+00 0.  1.
         11    1    1    2    0    0  0.66140286917E+02  0.18365381719E+01 -0.33395933629E+02  0.74116117065E+02  0.00000000000E+00 0. -1.
</event>
<event>
 7    1  0.2648915E-009  0.2267237E+03  0.7561462E-02  0.1128967E+00
         -1   -1    0    0    0  501 -0.00000000000E+00  0.00000000000E+00  0.72294605242E+03  0.72294605242E+03  0.00000000000E+00 0.  1.
          1   -1    0    0  501    0  0.00000000000E+00 -0.00000000000E+00 -0.84292063880E+02  0.84292063880E+02  0.00000000000E+00 0. -1.
         25    2    1    2    0    0 -0.13566671332E+03 -0.17102040145E+03  0.26557553904E+03  0.36582943851E+03  0.12508947328E+03 0.  0.
          5    1    3    3  502    0 -0.21909583199E+02 -0.46100606123E+02  0.20759397488E+00  0.51213389031E+02  0.41800000000E+01 0. -1.
         -5    1    3    3    0  502 -0.11375713012E+03 -0.12491979532E+03  0.26536794507E+03  0.31461604948E+03  0.41800000000E+01 0. -1.
        -11    1    1    2    0    0  0.12289416637E+03  0.92863088157E+02  0.27651997000E+03  0.31652776036E+03  0.00000000000E+00 0.  1.
         11    1    1    2    0    0  0.12772546947E+02  0.78157313289E+02  0.96558479499E+02  0.12488091743E+03  0.00000000000E+00 0. -1.
</event>
<event>
 7    1  0.2648915E-009  0.1145588E+03  0.7561462E-02  0.1252353E+00
          2   -1    0    0  501    0  0.00000000000E+00  0.00000000000E+00  0.36017081787E+03  0.36017081787E+03  0.00000000000E+00 0. -1.
         -2   -1    0    0    0  501 -0.00000000000E+00 -0.00000000000E+00 -0.42398763304E+02  0.42398763304E+02  0.00000000000E+00 0.  1.
         25    2    1    2    0    0  0.41753905997E+02 -0.33453956039E+02  0.20016182997E+03  0.24202305216E+03  0.12509134166E+03 0.  0.
          5    1    3    3  502    0  0.58105291462E+02  0.21701613838E+02  0.16023638541E+03  0.17187308268E+03  0.41800000000E+01 0. -1.
         -5    1    3    3    0  502 -0.16351385465E+02 -0.55155569877E+02  0.39925444558E+02  0.70149969481E+02  0.41800000000E+01 0. -1.
        -11    1    1    2    0    0 -0.99226843123E+01  0.64231855968E+02  0.68746494390E+02  0.94605874426E+02  0.00000000000E+00 0. -1.
         11    1    1    2    0    0 -0.31831221684E+02 -0.30777899929E+02  0.48863730207E+02  0.65940654589E+02  0.00000000000E+00 0.  1.
</event>
<event>
 7    1  0.2648915E-009  0.8694438E+02  0.7561462E-02  0.1310425E+00
         -2   -1    0    0    0  501 -0.00000000000E+00  0.00000000000E+00  0.35283554865E+02  0.35283554865E+02  0.00000000000E+00 0.  1.
          2   -1    0    0  501    0  0.00000000000E+00 -0.00000000000E+00 -0.61380638975E+03  0.61380638975E+03  0.00000000000E+00 0. -1.
         25    2    1    2    0    0 -0.21606148805E+02 -0.71681047094E+02 -0.45746258548E+03  0.48012939349E+03  0.12508884520E+03 0.  0.
          5    1    3    3  502    0  0.10018340200E+02  0.25579988550E+00 -0.33102732566E+03  0.33120536727E+03  0.41800000000E+01 0.  1.
         -5    1    3    3    0  502 -0.31624489005E+02 -0.71936846979E+02 -0.12643525982E+03  0.14892402621E+03  0.41800000000E+01 0.  1.
        -11    1    1    2    0    0  0.31345461153E+02  0.37909516335E+02 -0.12428472872E+03  0.13366511570E+03  0.00000000000E+00 0. -1.
         11    1    1    2    0    0 -0.97393123478E+01  0.33771530758E+02  0.32244793188E+01  0.35295435422E+02  0.00000000000E+00 0.  1.
</event>
<event>
 7    1  0.2648915E-009  0.1261643E+03  0.7561462E-02  0.1233261E+00
         -2   -1    0    0    0  501 -0.00000000000E+00  0.00000000000E+00  0.40853562150E+02  0.40853562150E+02  0.00000000000E+00 0.  1.
          2   -1    0    0  501    0  0.00000000000E+00 -0.00000000000E+00 -0.76051026520E+03  0.76051026520E+03  0.00000000000E+00 0. -1.
         25    2    1    2    0    0 -0.48251609931E+02 -0.48832233536E+02 -0.10883923414E+03  0.17946046891E+03  0.12508907275E+03 0.  0.
          5    1    3    3  502    0 -0.80207823309E+02 -0.40079785882E+01 -0.36112527946E+02  0.88152968679E+02  0.41800000000E+01 0. -1.
         -5    1    3    3    0  502  0.31956213378E+02 -0.44824254947E+02 -0.72726706193E+02  0.91307500233E+02  0.41800000000E+01 0. -1.
        -11    1    1    2    0    0  0.73033935896E+02  0.14658406048E+02 -0.37226965580E+03  0.37964920821E+03  0.00000000000E+00 0.  1.
         11    1    1    2    0    0 -0.24782325965E+02  0.34173827488E+02 -0.23854781311E+03  0.24225415023E+03  0.00000000000E+00 0. -1.
</event>
<event>
 7    1  0.2648915E-009  0.2635753E+03  0.7561462E-02  0.1105014E+00
         -2   -1    0    0    0  501 -0.00000000000E+00  0.00000000000E+00  0.64468511233E+02  0.64468511233E+02  0.00000000000E+00 0.  1.
          2   -1    0    0  501    0  0.00000000000E+00 -0.00000000000E+00 -0.11203275794E+04  0.11203275794E+04  0.00000000000E+00 0. -1.
         25    2    1    2    0    0 -0.21218594141E+03 -0.11968329129E+03 -0.51529684098E+03  0.58354512536E+03  0.12508842895E+03 0.  0.
          5    1    3    3  502    0 -0.60085336061E+02 -0.10146577213E+03 -0.18494921545E+03  0.21938376244E+03  0.41800000000E+01 0.  1.
         -5    1    3    3    0  502 -0.15210060535E+03 -0.18217519157E+02 -0.33034762553E+03  0.36416136292E+03  0.41800000000E+01 0.  1.
        -11    1    1    2    0    0  0.32466705249E+02  0.56953612621E+02 -0.20774453154E+03  0.21784304286E+03  0.00000000000E+00 0. -1.
         11    1    1    2    0    0  0.17971923617E+03  0.62729678671E+02 -0.33281769569E+03  0.38340792245E+03  0.00000000000E+00 0.  1.
</event>
<event>
 7    1  0.2648915E-009  0.1003036E+03  0.7561462E-02  0.1279659E+00
         -1   -1    0    0    0  501 -0.00000000000E+00  0.00000000000E+00  0.17271536483E+02  0.17271536483E+02  0.00000000000E+00 0.  1.
          1   -1    0    0  501    0  0.00000000000E+00 -0.00000000000E+00 -0.82697501083E+03  0.82697501083E+03  0.00000000000E+00 0. -1.
         25    2    1    2    0    0 -0.43676118833E+02 -0.69962063584E+02 -0.50796311098E+03  0.52960049706E+03  0.12509144923E+03 0.  0.
          5    1    3    3  502    0 -0.31098962186E+02 -0.88725891394E+02 -0.20278614205E+03  0.22356010615E+03  0.41800000000E+01 0. -1.
         -5    1    3    3    0  502 -0.12577156647E+02  0.18763827811E+02 -0.30517696893E+03  0.30604039091E+03  0.41800000000E+01 0. -1.
        -11    1    1    2    0    0  0.23582381686E+02  0.49576999917E+02 -0.13976086680E+03  0.15015694301E+03  0.00000000000E+00 0.  1.
         11    1    1    2    0    0  0.20093737147E+02  0.20385063667E+02 -0.16197949657E+03  0.16448910724E+03  0.00000000000E+00 0. -1.
</event>
<event>
 7    1  0.2648915E-009  0.1198586E+03  0.7561462E-02  0.1243330E+00
          1   -1    0    0  501    0  0.00000000000E+00  0.00000000000E+00  0.37127741146E+03  0.37127741146E+03  0.00000000000E+00 0. -1.
         -1   -1    0    0    0  501 -0.00000000000E+00 -0.00000000000E+00 -0.62221282492E+02  0.62221282492E+02  0.00000000000E+00 0.  1.
         25    2    1    2    0    0  0.28223896522E+02 -0.10155129888E+03  0.15352890896E+03  0.22434006148E+03  0.12509229656E+03 0.  0.
          5    1    3    3  502    0 -0.29300041041E+02 -0.27354109389E+02  0.11659850614E+03  0.12336702858E+03  0.41800000000E+01 0. -1.
         -5    1    3    3    0  502  0.57523937563E+02 -0.74197189489E+02  0.36930402821E+02  0.10097303290E+03  0.41800000000E+01 0. -1.
        -11    1    1    2    0    0 -0.69600006597E+01  0.29852944502E+02 -0.59306461340E+01  0.31221986935E+02  0.00000000000E+00 0.  1.
         11    1    1    2    0    0 -0.21263895863E+02  0.71698354376E+02  0.16145786615E+03  0.17793664554E+03  0.00000000000E+00 0. -1.
</event>
<event>
 7    1  0.2648915E-009  0.1454433E+03  0.7561462E-02  0.1206187E+00
         -1   -1    0    0    0  501 -0.00000000000E+00  0.00000000000E+00  0.15777897699E+03  0.15777897699E+03  0.00000000000E+00 0.  1.
          1   -1    0    0  501    0  0.00000000000E+00 -0.00000000000E+00 -0.15701082344E+03  0.15701082344E+03  0.00000000000E+00 0. -1.
         25    2    1    2    0    0  0.56904495057E+02 -0.98366414138E+02 -0.14394699784E+02  0.16961039850E+03  0.12508559833E+03 0.  0.
          5    1    3    3  502    0 -0.31217181463E+02 -0.16934585799E+02 -0.32344421963E+02  0.48217493162E+02  0.41800000000E+01 0.  1.
         -5    1    3    3    0  502  0.88121676520E+02 -0.81431828339E+02  0.17949722179E+02  0.12139290533E+03  0.41800000000E+01 0.  1.
        -11    1    1    2    0    0  0.22949635858E+01  0.68904684403E+02  0.33368474744E+02  0.76593586528E+02  0.00000000000E+00 0. -1.
         11    1    1    2    0    0 -0.59199458643E+02  0.29461729735E+02 -0.18205621410E+02  0.68585815396E+02  0.00000000000E+00 0.  1.
</event>
<event>
 7    1  0.2648915E-009  0.2407995E+03  0.7561462E-02  0.1119261E+00
          1   -1    0    0  501    0  0.00000000000E+00  0.00000000000E+00  0.12483691789E+03  0.12483691789E+03  0.00000000000E+00 0. -1.
         -1   -1    0    0    0  501 -0.00000000000E+00 -0.00000000000E+00 -0.56259810588E+03  0.56259810588E+03  0.00000000000E+00 0.  1.
         25    2    1    2    0    0 -0.48034122849E+02  0.22817896974E+03 -0.30207564623E+03  0.40158325670E+03  0.12508595776E+03 0.  0.
          5    1    3    3  502    0 -0.29517507144E+01  0.21114599963E+02 -0.12062927851E+03  0.12257012033E+03  0.41800000000E+01 0. -1.
         -5    1    3    3    0  502 -0.45082372134E+02  0.20706436977E+03 -0.18144636771E+03  0.27901313636E+03  0.41800000000E+01 0. -1.
        -11    1    1    2    0    0 -0.59758770665E+01 -0.16368672043E+03 -0.65911902172E+02  0.17655999660E+03  0.00000000000E+00 0. -1.
         11    1    1    2    0    0  0.54009999915E+02 -0.64492249306E+02 -0.69773639595E+02  0.10929177048E+03  0.00000000000E+00 0.  1.
</event>
<event>
 7    1  0.3266545E-009  0.1157387E+03  0.7561462E-02  0.1250297E+00
         -2   -1    0    0    0  501 -0.00000000000E+00  0.00000000000E+00  0.53099155576E+02  0.53099155576E+02  0.00000000000E+00 0.  1.
          2   -1    0    0  501    0  0.00000000000E+00 -0.00000000000E+00 -0.43918998995E+03  0.43918998995E+03  0.00000000000E+00 0. -1.
         25    2    1    2    0    0  0.65857411747E+02  0.65282697050E+02 -0.29885833338E+03  0.33698986381E+03  0.12508731218E+03 0.  0.
          5    1    3    3  502    0  0.90563972238E+02  0.30082914730E+02 -0.26622666637E+03  0.28284434786E+03  0.41800000000E+01 0. -1.
         -5    1    3    3    0  502 -0.24706560492E+02  0.35199782319E+02 -0.32631667004E+02  0.54145515956E+02  0.41800000000E+01 0. -1.
        -11    1    1    2    0    0 -0.35090900891E+02 -0.33518970307E+02 -0.98377630696E+02  0.10969526388E+03  0.00000000000E+00 0. -1.
         11    1    1    2    0    0 -0.30766510856E+02 -0.31763726743E+02  0.11145129698E+02  0.45604017837E+02  0.00000000000E+00 0.  1.
</event>
<event>
 7    1  0.2648915E-009  0.7756278E+02  0.7561462E-02  0.1336114E+00
         -2   -1    0    0    0  501 -0.00000000000E+00  0.00000000000E+00  0.52599690272E+02  0.52599690272E+02  0.00000000000E+00 0.  1.
          2   -1    0    0  501    0  0.00000000000E+00 -0.00000000000E+00 -0.36361872466E+03  0.36361872466E+03  0.00000000000E+00 0. -1.
         25    2    1    2    0    0  0.33696774213E+02  0.16872116120E+02 -0.25297272706E+03  0.28471494738E+03  0.12508900724E+03 0.  0.
          5    1    3    3  502    0  0.48691248753E+02  0.18180483230E+02 -0.27969987844E+02  0.59170603306E+02  0.41800000000E+01 0. -1.
         -5    1    3    3    0  502 -0.14994474540E+02 -0.13083671104E+01 -0.22500273921E+03  0.22554434408E+03  0.41800000000E+01 0. -1.
        -11    1    1    2    0    0 -0.53156346609E+02  0.10095467130E+02  0.10683258592E+02  0.55151134671E+02  0.00000000000E+00 0.  1.
         11    1    1    2    0    0  0.19459572396E+02 -0.26967583249E+02 -0.68729565927E+02  0.76352332883E+02  0.00000000000E+00 0. -1.
</event>
<event>
 7    1  0.2648915E-009  0.9549400E+02  0.7561462E-02  0.1290067E+00
         -3   -1    0    0    0  501 -0.00000000000E+00  0.00000000000E+00  0.58021871773E+03  0.58021871773E+03  0.00000000000E+00 0. -1.
          3   -1    0    0  501    0  0.00000000000E+00 -0.00000000000E+00 -0.30467900281E+02  0.30467900281E+02  0.00000000000E+00 0.  1.
         25    2    1    2    0    0  0.64391658867E+02  0.40700514618E+02  0.32126066454E+03  0.35307121832E+03  0.12509217804E+03 0.  0.
          5    1    3    3  502    0  0.36183177787E+02  0.48598325156E+01  0.94872629441E+01  0.37951559718E+02  0.41800000000E+01 0. -1.
         -5    1    3    3    0  502  0.28208481081E+02  0.35840682103E+02  0.31177340159E+03  0.31511965861E+03  0.41800000000E+01 0. -1.
        -11    1    1    2    0    0 -0.69728979358E+02 -0.24006738942E+01  0.90283864647E+02  0.11410113940E+03  0.00000000000E+00 0.  1.
         11    1    1    2    0    0  0.53373204905E+01 -0.38299840724E+02  0.13820628827E+03  0.14351426029E+03  0.00000000000E+00 0. -1.
</event>
<event>
 7    1  0.2648915E-009  0.9176517E+02  0.7561462E-02  0.1298633E+00
         -3   -1    0    0    0  501 -0.00000000000E+00  0.00000000000E+00  0.65092324064E+02  0.65092324064E+02  0.00000000000E+00 0.  1.
          3   -1    0    0  501    0  0.00000000000E+00 -0.00000000000E+00 -0.23965375059E+03  0.23965375059E+03  0.00000000000E+00 0. -1.
         25    2    1    2    0    0  0.46802197022E+02  0.21872550250E+02 -0.13236047425E+03  0.18930262348E+03  0.12508930414E+03 0.  0.
          5    1    3    3  502    0  0.45147075286E+02  0.60806356050E+02 -0.12940860753E+03  0.14999910481E+03  0.41800000000E+01 0. -1.
         -5    1    3    3    0  502  0.16551217353E+01 -0.38933805800E+02 -0.29518667214E+01  0.39303518662E+02  0.41800000000E+01 0. -1.
        -11    1    1    2    0    0 -0.51725509853E+02 -0.62420330089E+01  0.16378849216E+02  0.54614632172E+02  0.00000000000E+00 0.  1.
         11    1    1    2    0    0  0.49233128312E+01 -0.15630517241E+02 -0.58579801492E+02  0.60828819003E+02  0.00000000000E+00 0. -1.
</event>
<event>
 7    1  0.2648915E-009  0.1204735E+03  0.7561462E-02  0.1242318E+00
          3   -1    0    0  501    0  0.00000000000E+00  0.00000000000E+00  0.42770057462E+02  0.42770057462E+02  0.00000000000E+00 0. -1.
         -3   -1    0    0    0  501 -0.00000000000E+00 -0.00000000000E+00 -0.45916217559E+03  0.45916217559E+03  0.00000000000E+00 0.  1.
         25    2    1    2    0    0 -0.11910203290E+02 -0.74570823979E+02 -0.30727546615E+03  0.34024552411E+03  0.12508454682E+03 0.  0.
          5    1    3    3  502    0  0.23539356043E+02  0.13051425454E+02 -0.11253945539E+02  0.29471421403E+02  0.41800000000E+01 0.  1.
         -5    1    3    3    0  502 -0.35449559333E+02 -0.87622249433E+02 -0.29602152061E+03  0.31077410271E+03  0.41800000000E+01 0.  1.
        -11    1    1    2    0    0  0.18525461778E+02  0.95430233641E+02 -0.85131129591E+02  0.12921854144E+03  0.00000000000E+00 0. -1.
         11    1    1    2    0    0 -0.66152584884E+01 -0.20859409662E+02 -0.23985522387E+02  0.32468167495E+02  0.00000000000E+00 0.  1.
</event>
<event>
 7    1  0.2648915E-009  0.1263426E+03  0.7561462E-02  0.1232986E+00
          1   -1    0    0  501    0  0.00000000000E+00  0.00000000000E+00  0.11694641861E+03  0.11694641861E+03  0.00000000000E+00 0. -1.
         -1   -1    0    0    0  501 -0.00000000000E+00 -0.00000000000E+00 -0.24110405393E+03  0.24110405393E+03  0.00000000000E+00 0.  1.
         25    2    1    2    0    0  0.10511350794E+03  0.47093021467E+01 -0.13977677620E+03  0.21507436494E+03  0.12509359781E+03 0.  0.
          5    1    3    3  502    0  0.23652926954E+02 -0.23365042086E+02 -0.12262605740E+03  0.12712202209E+03  0.41800000000E+01 0. -1.
         -5    1    3    3    0  502  0.81460580988E+02  0.28074344233E+02 -0.17150718793E+02  0.87952342857E+02  0.41800000000E+01 0. -1.
        -11    1    1    2    0    0 -0.31977266965E+02  0.36852107400E+02 -0.18525221054E+02  0.52190106701E+02  0.00000000000E+00 0.  1.
         11    1    1    2    0    0 -0.73136240977E+02 -0.41561409547E+02  0.34144361925E+02  0.90786000898E+02  0.00000000000E+00 0. -1.
</event>
<event>
 7    1  0.3115914E-009  0.1517913E+03  0.7561462E-02  0.1198289E+00
          1   -1    0    0  501    0  0.00000000000E+00  0.00000000000E+00  0.13000731868E+04  0.13000731868E+04  0.00000000000E+00 0. -1.
         -1   -1    0    0    0  501 -0.00000000000E+00 -0.00000000000E+00 -0.19192276409E+02  0.19192276409E+02  0.00000000000E+00 0.  1.
         25    2    1    2    0    0 -0.52482230307E+02 -0.10167662373E+03  0.72611563419E+03  0.74564327717E+03  0.12508981676E+03 0.  0.
          5    1    3    3  502    0  0.37048729587E+02 -0.45319931881E+02  0.35102477399E+03  0.35589657057E+03  0.41800000000E+01 0. -1.
         -5    1    3    3    0  502 -0.89530959893E+02 -0.56356691853E+02  0.37509086020E+03  0.38974670659E+03  0.41800000000E+01 0. -1.
        -11    1    1    2    0    0  0.51780293750E+01  0.90197454725E+02  0.26968197855E+03  0.28441301373E+03  0.00000000000E+00 0.  1.
         11    1    1    2    0    0  0.47304200932E+02  0.11479169009E+02  0.28508329761E+03  0.28920917227E+03  0.00000000000E+00 0. -1.
</event>
<event>
 7    1  0.2648915E-009  0.1179703E+03  0.7561462E-02  0.1246483E+00
         -1   -1    0    0    0  501 -0.00000000000E+00  0.00000000000E+00  0.79545614144E+02  0.79545614144E+02  0.00000000000E+00 0.  1.
          1   -1    0    0  501    0  0.00000000000E+00 -0.00000000000E+00 -0.23476218712E+03  0.23476218712E+03  0.00000000000E+00 0. -1.
         25    2    1    2    0    0 -0.32878655140E+02  0.53974344395E+02 -0.18156747692E+02  0.14131579843E+03  0.12508497744E+03 0.  0.
          5    1    3    3  502    0 -0.62104928408E+02  0.78036228653E+02 -0.24301888294E+02  0.10273621216E+03  0.41800000000E+01 0.  1.
         -5    1    3    3    0  502  0.29226273268E+02 -0.24061884258E+02  0.61451406019E+01  0.38579586263E+02  0.41800000000E+01 0.  1.
        -11    1    1    2    0    0 -0.20916952518E+02 -0.35406025222E+02 -0.27312833679E+02  0.49366956643E+02  0.00000000000E+00 0.  1.
         11    1    1    2    0    0  0.53795607658E+02 -0.18568319173E+02 -0.10974699161E+03  0.12362504620E+03  0.00000000000E+00 0. -1.
</event>
<event>
 7    1  0.2648915E-009  0.7175961E+02  0.7561462E-02  0.1354210E+00
         -1   -1    0    0    0  501 -0.00000000000E+00  0.00000000000E+00  0.91603476896E+03  0.91603476896E+03  0.00000000000E+00 0. -1.
          1   -1    0    0  501    0  0.00000000000E+00 -0.00000000000E+00 -0.18984002086E+02  0.18984002086E+02  0.00000000000E+00 0.  1.
         25    2    1    2    0    0  0.16484268747E+02 -0.27869275713E+02  0.72228351492E+03  0.73375008084E+03  0.12508907855E+03 0.  0.
          5    1    3    3  502    0  0.31910071118E+01  0.54565051406E+01  0.67088678961E+03  0.67092958859E+03  0.41800000000E+01 0. -1.
         -5    1    3    3    0  502  0.13293261635E+02 -0.33325780853E+02  0.51396725304E+02  0.62820492248E+02  0.41800000000E+01 0. -1.
        -11    1    1    2    0    0 -0.46226928330E+02  0.45813215973E+02  0.11272050713E+03  0.13016025656E+03  0.00000000000E+00 0.  1.
         11    1    1    2    0    0  0.29742659584E+02 -0.17943940260E+02  0.62046744832E+02  0.71108433645E+02  0.00000000000E+00 0. -1.
</event>
<event>
 7    1  0.2648915E-009  0.8199653E+02  0.7561462E-02  0.1323479E+00
         -2   -1    0    0    0  501 -0.00000000000E+00  0.00000000000E+00  0.25950283433E+02  0.25950283433E+02  0.00000000000E+00 0.  1.
          2   -1    0    0  501    0  0.00000000000E+00 -0.00000000000E+00 -0.57654531518E+03  0.57654531518E+03  0.00000000000E+00 0. -1.
         25    2    1    2    0    0  0.49178564085E+02  0.12915792234E+02 -0.22882597746E+03  0.26569652699E+03  0.12509183682E+03 0.  0.
          5    1    3    3  502    0 -0.84061399345E+01  0.47292645814E+01  0.13126042841E+02  0.16816495852E+02  0.41800000000E+01 0. -1.
         -5    1    3    3    0  502  0.57584704019E+02  0.81865276527E+01 -0.24195202030E+03  0.24888003114E+03  0.41800000000E+01 0. -1.
        -11    1    1    2    0    0 -0.53733541998E+01 -0.42157686193E+02 -0.96311083426E+02  0.10527092776E+03  0.00000000000E+00 0.  1.
         11    1    1    2    0    0 -0.43805209885E+02  0.29241893959E+02 -0.22545797086E+03  0.23152814386E+03  0.00000000000E+00 0. -1.
</event>
<event>
 7    1  0.2648915E-009  0.8190005E+02  0.7561462E-02  0.1323744E+00
         -1   -1    0    0    0  501 -0.00000000000E+00  0.00000000000E+00  0.32736090555E+03  0.32736090555E+03  0.00000000000E+00 0.  1.
          1   -1    0    0  501    0  0.00000000000E+00 -0.00000000000E+00 -0.49015974626E+02  0.49015974626E+02  0.00000000000E+00 0. -1.
         25    2    1    2    0    0  0.51163386636E+02 -0.28633152663E+02  0.20181760270E+03  0.24456944538E+03  0.12508524809E+03 0.  0.
          5    1    3    3  502    0  0.18502576138E+02 -0.24739601085E+02  0.20843963302E+03  0.21075802761E+03  0.41800000000E+01 0. -1.
         -5    1    3    3    0  502  0.32660810499E+02 -0.38935515780E+01 -0.66220303210E+01  0.33811417774E+02  0.41800000000E+01 0. -1.
        -11    1    1    2    0    0 -0.65434280095E+02 -0.22232382191E+01  0.25015265208E+02  0.70088167997E+02  0.00000000000E+00 0.  1.
         11    1    1    2    0    0  0.14270893459E+02  0.30856390882E+02  0.51512063014E+02  0.61719266800E+02  0.00000000000E+00 0. -1.
</event>
<event>
 7    1  0.2648915E-009  0.1061951E+03  0.7561462E-02  0.1267783E+00
         -1   -1    0    0    0  501 -0.00000000000E+00  0.00000000000E+00  0.33049192421E+02  0.33049192421E+02  0.00000000000E+00 0.  1.
          1   -1    0    0  501    0  0.00000000000E+00 -0.00000000000E+00 -0.39511215030E+03  0.39511215030E+03  0.00000000000E+00 0. -1.
         25    2    1    2    0    0  0.24428638934E+01 -0.31744630399E+02 -0.18416937743E+03  0.22490364400E+03  0.12509836273E+03 0.  0.
          5    1    3    3  502    0 -0.22660608284E+02  0.43731432454E+02 -0.69625311647E+02  0.85387925225E+02  0.41800000000E+01 0.  1.
         -5    1    3    3    0  502  0.25103472177E+02 -0.75476062854E+02 -0.11454406579E+03  0.13951571878E+03  0.41800000000E+01 0.  1.
        -11    1    1    2    0    0 -0.17595898397E+02 -0.21596144531E+02 -0.11960576650E+03  0.12280695615E+03  0.00000000000E+00 0. -1.
         11    1    1    2    0    0  0.15153034504E+02  0.53340774931E+02 -0.58287813944E+02  0.80450742565E+02  0.00000000000E+00 0.  1.
</event>
<event>
 7    1  0.2648915E-009  0.9241544E+02  0.7561462E-02  0.1297106E+00
         -2   -1    0    0    0  501 -0.00000000000E+00  0.00000000000E+00  0.10205706813E+02  0.10205706813E+02  0.00000000000E+00 0.  1.
          2   -1    0    0  501    0  0.00000000000E+00 -0.00000000000E+00 -0.13547906082E+04  0.13547906082E+04  0.00000000000E+00 0. -1.
         25    2    1    2    0    0 -0.37896379649E+02  0.21895441352E+02 -0.83104038475E+03  0.84154115047E+03  0.12509133024E+03 0.  0.
          5    1    3    3  502    0 -0.58542079178E+02  0.10832969191E+02 -0.17179897518E+03  0.18187052683E+03  0.41800000000E+01 0.  1.
         -5    1    3    3    0  502  0.20645699529E+02  0.11062472162E+02 -0.65924140957E+03  0.65967062364E+03  0.41800000000E+01 0.  1.
        -11    1    1    2    0    0  0.61561282821E+02 -0.38352690159E+02 -0.37232301660E+03  0.37932195966E+03  0.00000000000E+00 0.  1.
         11    1    1    2    0    0 -0.23664903172E+02  0.16457248806E+02 -0.14122150006E+03  0.14413320492E+03  0.00000000000E+00 0. -1.
</event>
<event>
 7    1  0.2648915E-009  0.1388782E+03  0.7561462E-02  0.1214846E+00
          1   -1    0    0  501    0  0.00000000000E+00  0.00000000000E+00  0.12892951584E+04  0.12892951584E+04  0.00000000000E+00 0. -1.
         -1   -1    0    0    0  501 -0.00000000000E+00 -0.00000000000E+00 -0.15038647234E+02  0.15038647234E+02  0.00000000000E+00 0.  1.
         25    2    1    2    0    0  0.15505008316E+02 -0.89565715362E+02  0.73416269808E+03  0.75026958045E+03  0.12508858241E+03 0.  0.
          5    1    3    3  502    0  0.19454377960E+02 -0.12102335248E+03  0.58223677699E+03  0.59501450533E+03  0.41800000000E+01 0. -1.
         -5    1    3    3    0  502 -0.39493696439E+01  0.31457637120E+02  0.15192592109E+03  0.15525507512E+03  0.41800000000E+01 0. -1.
        -11    1    1    2    0    0 -0.48643763247E+02  0.37536041630E+02  0.29457011226E+03  0.30090982231E+03  0.00000000000E+00 0. -1.
         11    1    1    2    0    0  0.33138754931E+02  0.52029673732E+02  0.24552370080E+03  0.25315440284E+03  0.00000000000E+00 0.  1.
</event>
<event>
 7    1  0.2648915E-009  0.1980623E+03  0.7561462E-02  0.1151384E+00
         -4   -1    0    0    0  501 -0.00000000000E+00  0.00000000000E+00  0.53230944847E+03  0.53230944847E+03  0.00000000000E+00 0.  1.
          4   -1    0    0  501    0  0.00000000000E+00 -0.00000000000E+00 -0.10112394442E+03  0.10112394442E+03  0.00000000000E+00 0. -1.
         25    2    1    2    0    0  0.75769117972E+02  0.15273870712E+03  0.37796463758E+03  0.43309886557E+03  0.12508912106E+03 0.  0.
          5    1    3    3  502    0  0.58313850041E+02  0.16944535223E+03  0.28276588657E+03  0.33479284865E+03  0.41800000000E+01 0.  1.
         -5    1    3    3    0  502  0.17455267931E+02 -0.16706645109E+02  0.95198751007E+02  0.98306016919E+02  0.41800000000E+01 0.  1.
        -11    1    1    2    0    0  0.25206122415E+01 -0.95109603408E+02  0.17335203734E+02  0.96709355468E+02  0.00000000000E+00 0.  1.
         11    1    1    2    0    0 -0.78289730213E+02 -0.57629103709E+02  0.35885662734E+02  0.10362517185E+03  0.00000000000E+00 0. -1.
</event>
<event>
 7    1  0.2648915E-009  0.1310655E+03  0.7561462E-02  0.1225883E+00
         -1   -1    0    0    0  501 -0.00000000000E+00  0.00000000000E+00  0.49533080450E+02  0.49533080450E+02  0.00000000000E+00 0.  1.
          1   -1    0    0  501    0  0.00000000000E+00 -0.00000000000E+00 -0.58864315304E+03  0.58864315304E+03  0.00000000000E+00 0. -1.
         25    2    1    2    0    0 -0.10915946990E+03 -0.61817719215E+00 -0.41943554890E+03  0.45110223532E+03  0.12510345724E+03 0.  0.
          5    1    3    3  502    0  0.24937498187E+01  0.31810429491E+02 -0.27716426676E+02  0.42471106887E+02  0.41800000000E+01 0.  1.
         -5    1    3    3    0  502 -0.11165321972E+03 -0.32428606683E+02 -0.39171912223E+03  0.40863112843E+03  0.41800000000E+01 0.  1.
        -11    1    1    2    0    0  0.13918391610E+02  0.11085497749E+02 -0.82343205410E+02  0.84243773434E+02  0.00000000000E+00 0. -1.
         11    1    1    2    0    0  0.95241078294E+02 -0.10467320557E+02 -0.37331318275E+02  0.10283022473E+03  0.00000000000E+00 0.  1.
</event>
<event>
 7    1  0.2648915E-009  0.2596244E+03  0.7561462E-02  0.1107369E+00
         -1   -1    0    0    0  501 -0.00000000000E+00  0.00000000000E+00  0.15677800991E+03  0.15677800991E+03  0.00000000000E+00 0.  1.
          1   -1    0    0  501    0  0.00000000000E+00 -0.00000000000E+00 -0.47859874004E+03  0.47859874004E+03  0.00000000000E+00 0. -1.
         25    2    1    2    0    0  0.18553454565E+03  0.16171922197E+03 -0.95252886963E+02  0.29205540871E+03  0.12508826843E+03 0.  0.
          5    1    3    3  502    0  0.95135595920E+01 -0.16613671879E+02  0.77957698660E+01  0.21089531460E+02  0.41800000000E+01 0.  1.
         -5    1    3    3    0  502  0.17602098605E+03  0.17833289385E+03 -0.10304865683E+03  0.27096587725E+03  0.41800000000E+01 0.  1.
        -11    1    1    2    0    0 -0.15041270851E+03 -0.10922672576E+03 -0.12600542469E+03  0.22457031761E+03  0.00000000000E+00 0.  1.
         11    1    1    2    0    0 -0.35121837139E+02 -0.52492496206E+02 -0.10056241848E+03  0.11875102363E+03  0.00000000000E+00 0. -1.
</event>
<event>
 7    1  0.2648915E-009  0.1177706E+03  0.7561462E-02  0.1246821E+00
          1   -1    0    0  501    0  0.00000000000E+00  0.00000000000E+00  0.15585970266E+03  0.15585970266E+03  0.00000000000E+00 0. -1.
         -1   -1    0    0    0  501 -0.00000000000E+00 -0.00000000000E+00 -0.12914293166E+03  0.12914293166E+03  0.00000000000E+00 0.  1.
         25    2    1    2    0    0  0.76581076741E+02 -0.27027451621E+02  0.47500648880E+02  0.15652210024E+03  0.12509081407E+03 0.  0.
          5    1    3    3  502    0  0.34072955744E+02  0.50228768634E+02  0.18003972885E+02  0.63446914434E+02  0.41800000000E+01 0.  1.
         -5    1    3    3    0  502  0.42508120997E+02 -0.77256220254E+02  0.29496675995E+02  0.93075185810E+02  0.41800000000E+01 0.  1.
        -11    1    1    2    0    0 -0.12356133184E+02  0.17610922213E+02 -0.52131440277E+02  0.56395972142E+02  0.00000000000E+00 0.  1.
         11    1    1    2    0    0 -0.64224943557E+02  0.94165294072E+01  0.31347562400E+02  0.72084561935E+02  0.00000000000E+00 0. -1.
</event>
<event>
 7    1  0.2648915E-009  0.1957010E+03  0.7561462E-02  0.1153418E+00
          1   -1    0    0  501    0  0.00000000000E+00  0.00000000000E+00  0.11862434457E+03  0.11862434457E+03  0.00000000000E+00 0. -1.
         -1   -1    0    0    0  501 -0.00000000000E+00 -0.00000000000E+00 -0.40669519570E+03  0.40669519570E+03  0.00000000000E+00 0.  1.
         25    2    1    2    0    0 -0.13757125396E+02  0.16550535589E+03 -0.26531503331E+03  0.33707606378E+03  0.12508766744E+03 0.  0.
          5    1    3    3  502    0 -0.62307160059E+02  0.44560701049E+02 -0.11286307209E+03  0.13646751890E+03  0.41800000000E+01 0. -1.
         -5    1    3    3    0  502  0.48550034662E+02  0.12094465484E+03 -0.15245196122E+03  0.20060854489E+03  0.41800000000E+01 0. -1.
        -11    1    1    2    0    0  0.44757598248E+02 -0.12820310994E+03 -0.30372642433E+02  0.13914660401E+03  0.00000000000E+00 0.  1.
         11    1    1    2    0    0 -0.31000472852E+02 -0.37302245955E+02  0.76168246111E+01  0.49096872482E+02  0.00000000000E+00 0. -1.
</event>
<event>
 7    1  0.2648915E-009  0.9798339E+02  0.7561462E-02  0.1284595E+00
         -3   -1    0    0    0  501 -0.00000000000E+00  0.00000000000E+00  0.33055904457E+03  0.33055904457E+03  0.00000000000E+00 0.  1.
          3   -1    0    0  501    0  0.00000000000E+00 -0.00000000000E+00 -0.54635022484E+02  0.54635022484E+02  0.00000000000E+00 0. -1.
         25    2    1    2    0    0 -0.38686584437E+02 -0.15122141037E+02  0.55016847202E+02  0.14282529692E+03  0.12508749338E+03 0.  0.
          5    1    3    3  502    0 -0.61445366016E+02 -0.43811720821E+02  0.70020108017E+02  0.10303051884E+03  0.41800000000E+01 0.  1.
         -5    1    3    3    0  502  0.22758781579E+02  0.28689579783E+02 -0.15003260815E+02  0.39794778077E+02  0.41800000000E+01 0.  1.
        -11    1    1    2    0    0  0.10124235328E+02  0.42664396714E+02  0.18045141936E+03  0.18570262689E+03  0.00000000000E+00 0. -1.
         11    1    1    2    0    0  0.28562349109E+02 -0.27542255676E+02  0.40455755526E+02  0.56666143238E+02  0.00000000000E+00 0.  1.
</event>
<event>
 7    1  0.2648915E-009  0.1723527E+03  0.7561462E-02  0.1175416E+00
          2   -1    0    0  501    0  0.00000000000E+00  0.00000000000E+00  0.18450938047E+04  0.18450938047E+04  0.00000000000E+00 0. -1.
         -2   -1    0    0    0  501 -0.00000000000E+00 -0.00000000000E+00 -0.23583911981E+02  0.23583911981E+02  0.00000000000E+00 0.  1.
         25    2    1    2    0    0 -0.92392503555E+02  0.11077707526E+03  0.14168558112E+04  0.14296614197E+04  0.12507377861E+03 0.  0.
          5    1    3    3  502    0 -0.81986124550E+02  0.13850710079E+03  0.11978191007E+04  0.12085917474E+04  0.41800000000E+01 0. -1.
         -5    1    3    3    0  502 -0.10406379004E+02 -0.27730025525E+02  0.21903671048E+03  0.22106967223E+03  0.41800000000E+01 0. -1.
        -11    1    1    2    0    0  0.73760817643E+02 -0.47282690770E+02  0.13188043158E+03  0.15833116970E+03  0.00000000000E+00 0.  1.
         11    1    1    2    0    0  0.18631685912E+02 -0.63494384490E+02  0.27277365000E+03  0.28068512735E+03  0.00000000000E+00 0. -1.
</event>
<event>
 7    1  0.2648915E-009  0.1758664E+03  0.7561462E-02  0.1171865E+00
         -2   -1    0    0    0  501 -0.00000000000E+00  0.00000000000E+00  0.67417998902E+02  0.67417998902E+02  0.00000000000E+00 0.  1.
          2   -1    0    0  501    0  0.00000000000E+00 -0.00000000000E+00 -0.56890510807E+03  0.56890510807E+03  0.00000000000E+00 0. -1.
         25    2    1    2    0    0 -0.18309073891E+02  0.13906972655E+03 -0.12947078308E+03  0.22821883280E+03  0.12508213679E+03 0.  0.
          5    1    3    3  502    0  0.47422961312E+02  0.27040519842E+02 -0.19964827333E+02  0.58276871084E+02  0.41800000000E+01 0. -1.
         -5    1    3    3    0  502 -0.65732035203E+02  0.11202920671E+03 -0.10950595574E+03  0.16994196172E+03  0.41800000000E+01 0. -1.
        -11    1    1    2    0    0 -0.26638105763E+02 -0.70364268918E+01 -0.48019731116E+02  0.55362392998E+02  0.00000000000E+00 0.  1.
         11    1    1    2    0    0  0.44947179654E+02 -0.13203329966E+03 -0.32399659497E+03  0.35274188117E+03  0.00000000000E+00 0. -1.
</event>
<event>
 7    1  0.2648915E-009  0.2702973E+03  0.7561462E-02  0.1101110E+00
         -2   -1    0    0    0  501 -0.00000000000E+00  0.00000000000E+00  0.18758693149E+03  0.18758693149E+03  0.00000000000E+00 0.  1.
          2   -1    0    0  501    0  0.00000000000E+00 -0.00000000000E+00 -0.47042263564E+03  0.47042263564E+03  0.00000000000E+00 0. -1.
         25    2    1    2    0    0 -0.30712407454E+02  0.26592539832E+03 -0.68887591306E+02  0.30340103860E+03  0.12508845089E+03 0.  0.
          5    1    3    3  502    0 -0.26249749911E+02  0.15105614245E+03  0.24388590251E+02  0.15530384179E+03  0.41800000000E+01 0. -1.
         -5    1    3    3    0  502 -0.44626575429E+01  0.11486925587E+03 -0.93276181558E+02  0.14809719681E+03  0.41800000000E+01 0. -1.
        -11    1    1    2    0    0  0.31556245289E+02 -0.76425304525E+02 -0.23537093986E+02  0.85968706992E+02  0.00000000000E+00 0.  1.
         11    1    1    2    0    0 -0.84383783540E+00 -0.18950009379E+03 -0.19041101885E+03  0.26863982153E+03  0.00000000000E+00 0. -1.
</event>
<event>
 7    1  0.2648915E-009  0.1070739E+03  0.7561462E-02  0.1266087E+00
          2   -1    0    0  501    0  0.00000000000E+00  0.00000000000E+00  0.35339783020E+03  0.35339783020E+03  0.00000000000E+00 0. -1.
         -2   -1    0    0    0  501 -0.00000000000E+00 -0.00000000000E+00 -0.68554459106E+02  0.68554459106E+02  0.00000000000E+00 0.  1.
         25    2    1    2    0    0  0.11710392665E+02 -0.33728005370E+02  0.10790239749E+02  0.13052528436E+03  0.12508280834E+03 0.  0.
          5    1    3    3  502    0  0.27504203979E+02  0.37153340983E+02 -0.21242301593E+02  0.51044683951E+02  0.41800000000E+01 0.  1.
         -5    1    3    3    0  502 -0.15793811314E+02 -0.70881346353E+02  0.32032541342E+02  0.79480600410E+02  0.41800000000E+01 0.  1.
        -11    1    1    2    0    0 -0.37893450825E+02 -0.14129023308E+02  0.77153476116E+02  0.87110285224E+02  0.00000000000E+00 0. -1.
         11    1    1    2    0    0  0.26183058160E+02  0.47857028678E+02  0.19689965523E+03  0.20431671972E+03  0.00000000000E+00 0.  1.
</event>
<event>
 7    1  0.2648915E-009  0.1259315E+03  0.7561462E-02  0.1233621E+00
          1   -1    0    0  501    0  0.00000000000E+00  0.00000000000E+00  0.25216952791E+03  0.25216952791E+03  0.00000000000E+00 0. -1.
         -1   -1    0    0    0  501 -0.00000000000E+00 -0.00000000000E+00 -0.68945559879E+02  0.68945559879E+02  0.00000000000E+00 0.  1.
         25    2    1    2    0    0  0.32866689384E+02  0.66411342428E+02  0.87900260945E+02  0.16989658104E+03  0.12509079383E+03 0.  0.
          5    1    3    3  502    0  0.34416586829E+02 -0.26713773520E+02  0.56605546068E+02  0.71552689609E+02  0.41800000000E+01 0.  1.
         -5    1    3    3    0  502 -0.15498974446E+01  0.93125115948E+02  0.31294714877E+02  0.98343891430E+02  0.41800000000E+01 0.  1.
        -11    1    1    2    0    0 -0.32142419712E+02  0.13562431678E+02  0.44153601590E+02  0.56272686370E+02  0.00000000000E+00 0. -1.
         11    1    1    2    0    0 -0.72426967209E+00 -0.79973774106E+02  0.51170105499E+02  0.94945820382E+02  0.00000000000E+00 0.  1.
</event>
<event>
 7    1  0.2648915E-009  0.1459573E+03  0.7561462E-02  0.1205530E+00
          3   -1    0    0  501    0  0.00000000000E+00  0.00000000000E+00  0.75328572656E+03  0.75328572656E+03  0.00000000000E+00 0. -1.
         -3   -1    0    0    0  501 -0.00000000000E+00 -0.00000000000E+00 -0.50417973448E+02  0.50417973448E+02  0.00000000000E+00 0.  1.
         25    2    1    2    0    0 -0.11288074739E+03 -0.38266289868E+02  0.59474835018E+03  0.61933822741E+03  0.12509143783E+03 0.  0.
          5    1    3    3  502    0  0.27671334771E+01  0.17335109705E+02  0.26291877849E+03  0.26353732096E+03  0.41800000000E+01 0.  1.
         -5    1    3    3    0  502 -0.11564788086E+03 -0.55601399573E+02  0.33182957169E+03  0.35580090645E+03  0.41800000000E+01 0.  1.
        -11    1    1    2    0    0  0.85095341491E+02 -0.14047193165E+02  0.84047899836E+02  0.12042670072E+03  0.00000000000E+00 0. -1.
         11    1    1    2    0    0  0.27785405897E+02  0.52313483033E+02  0.24071503096E+02  0.63938771878E+02  0.00000000000E+00 0.  1.
</event>
<event>
 7    1  0.2648915E-009  0.1623465E+03  0.7561462E-02  0.1186073E+00
          1   -1    0    0  501    0  0.00000000000E+00  0.00000000000E+00  0.13845381762E+04  0.13845381762E+04  0.00000000000E+00 0. -1.
         -1   -1    0    0    0  501 -0.00000000000E+00 -0.00000000000E+00 -0.23066146089E+02  0.23066146089E+02  0.00000000000E+00 0.  1.
         25    2    1    2    0    0  0.13824353759E+03  0.55453976753E+01  0.84988708096E+03  0.87011340816E+03  0.12508903056E+03 0.  0.
          5    1    3    3  502    0 -0.17041929235E+02 -0.22439674739E+02  0.11636217708E+03  0.11979814276E+03  0.41800000000E+01 0.  1.
         -5    1    3    3    0  502  0.15528546683E+03  0.27985072414E+02  0.73352490388E+03  0.75031526540E+03  0.41800000000E+01 0.  1.
        -11    1    1    2    0    0 -0.38323756419E+02 -0.22907267939E+01  0.40068751770E+02  0.55492905887E+02  0.00000000000E+00 0.  1.
         11    1    1    2    0    0 -0.99919781172E+02 -0.32546708814E+01  0.47151619739E+03  0.48199800825E+03  0.00000000000E+00 0. -1.
</event>
<event>
 7    1  0.2648915E-009  0.1190728E+03  0.7561462E-02  0.1244634E+00
          1   -1    0    0  501    0  0.00000000000E+00  0.00000000000E+00  0.65496215203E+02  0.65496215203E+02  0.00000000000E+00 0. -1.
         -1   -1    0    0    0  501 -0.00000000000E+00 -0.00000000000E+00 -0.39881145797E+03  0.39881145797E+03  0.00000000000E+00 0.  1.
         25    2    1    2    0    0  0.79153743542E+02 -0.83885300296E+02 -0.23345542119E+03  0.28887827239E+03  0.12508862399E+03 0.  0.
          5    1    3    3  502    0  0.70236457998E+02 -0.57550971414E+02 -0.50919864281E+02  0.10419011144E+03  0.41800000000E+01 0. -1.
         -5    1    3    3    0  502  0.89172855436E+01 -0.26334328882E+02 -0.18253555691E+03  0.18468816096E+03  0.41800000000E+01 0. -1.
        -11    1    1    2    0    0 -0.45414411084E+02  0.68166058355E+02 -0.15691871973E+02  0.83398531712E+02  0.00000000000E+00 0.  1.
         11    1    1    2    0    0 -0.33739332458E+02  0.15719241942E+02 -0.84167949602E+02  0.92030869072E+02  0.00000000000E+00 0. -1.
</event>
<event>
 7    1  0.2648915E-009  0.1356564E+03  0.7561462E-02  0.1219296E+00
         -1   -1    0    0    0  501 -0.00000000000E+00  0.00000000000E+00  0.34557811783E+02  0.34557811783E+02  0.00000000000E+00 0.  1.
          1   -1    0    0  501    0  0.00000000000E+00 -0.00000000000E+00 -0.65533076433E+03  0.65533076433E+03  0.00000000000E+00 0. -1.
         25    2    1    2    0    0 -0.52143758630E+02  0.79455728142E+02 -0.42062247647E+03  0.44900159689E+03  0.12508789710E+03 0.  0.
          5    1    3    3  502    0  0.73478670710E+01 -0.24072893042E+02 -0.16346379030E+03  0.16544297649E+03  0.41800000000E+01 0. -1.
         -5    1    3    3    0  502 -0.59491625701E+02  0.10352862118E+03 -0.25715868617E+03  0.28355862040E+03  0.41800000000E+01 0. -1.
        -11    1    1    2    0    0  0.68195200971E+02 -0.30322978761E+02 -0.76535582997E+02  0.10690072002E+03  0.00000000000E+00 0.  1.
         11    1    1    2    0    0 -0.16051442341E+02 -0.49132749381E+02 -0.12361489307E+03  0.13398625919E+03  0.00000000000E+00 0. -1.
</event>
<event>
 7    1  0.2648915E-009  0.1057709E+03  0.7561462E-02  0.1268608E+00
         -2   -1    0    0    0  501 -0.00000000000E+00  0.00000000000E+00  0.24890247895E+03  0.24890247895E+03  0.00000000000E+00 0.  1.
          2   -1    0    0  501    0  0.00000000000E+00 -0.00000000000E+00 -0.87424012016E+02  0.87424012016E+02  0.00000000000E+00 0. -1.
         25    2    1    2    0    0 -0.10479305634E+02 -0.57855732219E+02  0.17873242937E+03  0.22593101119E+03  0.12506973619E+03 0.  0.
          5    1    3    3  502    0 -0.55649324994E+02 -0.40021839041E+02  0.15927339625E+03  0.17344763511E+03  0.41800000000E+01 0. -1.
         -5    1    3    3    0  502  0.45170019360E+02 -0.17833893177E+02  0.19459033123E+02  0.52483376081E+02  0.41800000000E+01 0. -1.
        -11    1    1    2    0    0 -0.28773186617E+02  0.43853561530E+02  0.18365261654E+02  0.55572600827E+02  0.00000000000E+00 0.  1.
         11    1    1    2    0    0  0.39252492251E+02  0.14002170688E+02 -0.35619224088E+02  0.54822878952E+02  0.00000000000E+00 0. -1.
</event>
<event>
 7    1  0.2648915E-009  0.1685577E+03  0.7561462E-02  0.1179360E+00
          1   -1    0    0  501    0  0.00000000000E+00  0.00000000000E+00  0.12901343070E+04  0.12901343070E+04  0.00000000000E+00 0. -1.
         -1   -1    0    0    0  501 -0.00000000000E+00 -0.00000000000E+00 -0.25813387076E+02  0.25813387076E+02  0.00000000000E+00 0.  1.
         25    2    1    2    0    0 -0.58416208414E+02  0.12495817571E+03  0.49290622553E+03  0.52690709995E+03  0.12509015044E+03 0.  0.
          5    1    3    3  502    0 -0.41113767089E+01  0.12980894781E+03  0.31380059638E+03  0.33964032893E+03  0.41800000000E+01 0.  1.
         -5    1    3    3    0  502 -0.54304831705E+02 -0.48507720979E+01  0.17910562915E+03  0.18726677102E+03  0.41800000000E+01 0.  1.
        -11    1    1    2    0    0  0.71971167160E+02 -0.91643374071E+02  0.69354380934E+03  0.70326479536E+03  0.00000000000E+00 0. -1.
         11    1    1    2    0    0 -0.13554958746E+02 -0.33314801636E+02  0.77870885068E+02  0.85775798778E+02  0.00000000000E+00 0.  1.
</event>
<event>
 7    1  0.2648915E-009  0.1146997E+03  0.7561462E-02  0.1252106E+00
          2   -1    0    0  501    0  0.00000000000E+00  0.00000000000E+00  0.12133870992E+03  0.12133870992E+03  0.00000000000E+00 0. -1.
         -2   -1    0    0    0  501 -0.00000000000E+00 -0.00000000000E+00 -0.14350935285E+03  0.14350935285E+03  0.00000000000E+00 0.  1.
         25    2    1    2    0    0 -0.46907565001E+02 -0.46757367872E+02  0.20921350591E+02  0.14306479427E+03  0.12507302404E+03 0.  0.
          5    1    3    3  502    0  0.39450127308E+02  0.37841896976E+01  0.15536058740E+02  0.42772352723E+02  0.41800000000E+01 0. -1.
         -5    1    3    3    0  502 -0.86357692308E+02 -0.50541557570E+02  0.53852918512E+01  0.10029244154E+03  0.41800000000E+01 0. -1.
        -11    1    1    2    0    0 -0.30761295729E+01 -0.11925499744E+02 -0.42968294929E+02  0.44698484162E+02  0.00000000000E+00 0.  1.
         11    1    1    2    0    0  0.49983694574E+02  0.58682867616E+02 -0.12369858814E+00  0.77084784337E+02  0.00000000000E+00 0. -1.
</event>
<event>
 7    1  0.4705415E-009  0.1082568E+03  0.7561462E-02  0.1263832E+00
         -1   -1    0    0    0  501 -0.00000000000E+00  0.00000000000E+00  0.42408501641E+02  0.42408501641E+02  0.00000000000E+00 0.  1.
          1   -1    0    0  501    0  0.00000000000E+00 -0.00000000000E+00 -0.37917069262E+03  0.37917069262E+03  0.00000000000E+00 0. -1.
         25    2    1    2    0    0 -0.96471879498E+00 -0.35417391142E+02 -0.27985600401E+03  0.30858235381E+03  0.12509342040E+03 0.  0.
          5    1    3    3  502    0 -0.60354240450E+02 -0.15236663432E+02 -0.18081170489E+03  0.19127241118E+03  0.41800000000E+01 0. -1.
         -5    1    3    3    0  502  0.59389521655E+02 -0.20180727710E+02 -0.99044299118E+02  0.11730994264E+03  0.41800000000E+01 0. -1.
        -11    1    1    2    0    0  0.42000014707E+02  0.25176727719E+02 -0.10259719314E+02  0.50031297150E+02  0.00000000000E+00 0.  1.
         11    1    1    2    0    0 -0.41035295912E+02  0.10240663422E+02 -0.46646467657E+02  0.62965543298E+02  0.00000000000E+00 0. -1.
</event>
<event>
 7    1  0.2648915E-009  0.8213659E+02  0.7561462E-02  0.1323095E+00
         -1   -1    0    0    0  501 -0.00000000000E+00  0.00000000000E+00  0.23351741157E+02  0.23351741157E+02  0.00000000000E+00 0.  1.
          1   -1    0    0  501    0  0.00000000000E+00 -0.00000000000E+00 -0.59801710557E+03  0.59801710557E+03  0.00000000000E+00 0. -1.
         25    2    1    2    0    0  0.30782765226E+02  0.18143590376E+02 -0.43985284841E+03  0.45868709708E+03  0.12508619536E+03 0.  0.
          5    1    3    3  502    0  0.66724240239E+02 -0.14414786824E+02 -0.15105763202E+03  0.16581854814E+03  0.41800000000E+01 0.  1.
         -5    1    3    3    0  502 -0.35941475013E+02  0.32558377201E+02 -0.28879521639E+03  0.29286854895E+03  0.41800000000E+01 0.  1.
        -11    1    1    2    0    0 -0.22228510597E+02  0.47816709679E+01  0.28017535645E+01  0.22908969502E+02  0.00000000000E+00 0.  1.
         11    1    1    2    0    0 -0.85542546288E+01 -0.22925261344E+02 -0.13761426957E+03  0.13977278014E+03  0.00000000000E+00 0. -1.
</event>
<event>
 7    1  0.2648915E-009  0.8441967E+02  0.7561462E-02  0.1316957E+00
          2   -1    0    0  501    0  0.00000000000E+00  0.00000000000E+00  0.17726455316E+03  0.17726455316E+03  0.00000000000E+00 0. -1.
         -2   -1    0    0    0  501 -0.00000000000E+00 -0.00000000000E+00 -0.83445500324E+02  0.83445500324E+02  0.00000000000E+00 0.  1.
         25    2    1    2    0    0  0.32184790241E+02  0.28637074939E+02  0.19534408742E+02  0.13373367779E+03  0.12508861126E+03 0.  0.
          5    1    3    3  502    0  0.45624679771E+02  0.44650866416E+02 -0.36587744542E+02  0.73698349551E+02  0.41800000000E+01 0.  1.
         -5    1    3    3    0  502 -0.13439889530E+02 -0.16013791477E+02  0.56122153284E+02  0.60035328243E+02  0.41800000000E+01 0.  1.
        -11    1    1    2    0    0 -0.55188539511E+02 -0.23444972415E+02  0.13061063068E+02  0.61368012787E+02  0.00000000000E+00 0.  1.
         11    1    1    2    0    0  0.23003749270E+02 -0.51921025243E+01  0.61223581021E+02  0.65608362898E+02  0.00000000000E+00 0. -1.
</event>
<event>
 7    1  0.2648915E-009  0.1782395E+03  0.7561462E-02  0.1169518E+00
         -1   -1    0    0    0  501 -0.00000000000E+00  0.00000000000E+00  0.43940339999E+02  0.43940339999E+02  0.00000000000E+00 0.  1.
          1   -1    0    0  501    0  0.00000000000E+00 -0.00000000000E+00 -0.90754231104E+03  0.90754231104E+03  0.00000000000E+00 0. -1.
         25    2    1    2    0    0 -0.56622858780E+02 -0.14205282986E+03 -0.61463730067E+03  0.64560950439E+03  0.12508983246E+03 0.  0.
          5    1    3    3  502    0 -0.74017452216E+02 -0.36685802555E+02 -0.18114209066E+03  0.19913402711E+03  0.41800000000E+01 0.  1.
         -5    1    3    3    0  502  0.17394593436E+02 -0.10536702730E+03 -0.43349521000E+03  0.44647547729E+03  0.41800000000E+01 0.  1.
        -11    1    1    2    0    0  0.48753088517E+02  0.36149705613E+02 -0.43778311269E+02  0.74834520065E+02  0.00000000000E+00 0.  1.
         11    1    1    2    0    0  0.78697702628E+01  0.10590312425E+03 -0.20518635910E+03  0.23103862658E+03  0.00000000000E+00 0. -1.
</event>
<event>
 7    1  0.2648915E-009  0.1129705E+03  0.7561462E-02  0.1255166E+00
         -4   -1    0    0    0  501 -0.00000000000E+00  0.00000000000E+00  0.64607378632E+03  0.64607378632E+03  0.00000000000E+00 0. -1.
          4   -1    0    0  501    0  0.00000000000E+00 -0.00000000000E+00 -0.29683699403E+02  0.29683699403E+02  0.00000000000E+00 0.  1.
         25    2    1    2    0    0  0.30589693556E+02 -0.41384711625E+02  0.50527197014E+03  0.52306381954E+03  0.12509025457E+03 0.  0.
          5    1    3    3  502    0 -0.44863400989E+02 -0.72110558522E+00  0.24196962976E+03  0.24613008525E+03  0.41800000000E+01 0.  1.
         -5    1    3    3    0  502  0.75453094546E+02 -0.40663606040E+02  0.26330234039E+03  0.27693373429E+03  0.41800000000E+01 0.  1.
        -11    1    1    2    0    0  0.10317634687E+02  0.51826770412E+02  0.92545880406E+02  0.10657020079E+03  0.00000000000E+00 0. -1.
         11    1    1    2    0    0 -0.40907328243E+02 -0.10442058787E+02  0.18572236362E+02  0.46123465386E+02  0.00000000000E+00 0.  1.
</event>
<event>
 7    1  0.2648915E-009  0.9500753E+02  0.7561462E-02  0.1291159E+00
          2   -1    0    0  501    0  0.00000000000E+00  0.00000000000E+00  0.20370471696E+03  0.20370471696E+03  0.00000000000E+00 0. -1.
         -2   -1    0    0    0  501 -0.00000000000E+00 -0.00000000000E+00 -0.22889335712E+03  0.22889335712E+03  0.00000000000E+00 0.  1.
         25    2    1    2    0    0 -0.58765427711E+02  0.97520933084E+01  0.16395263994E+03  0.21465463755E+03  0.12509063300E+03 0.  0.
          5    1    3    3  502    0 -0.51362604631E+02 -0.36705910075E+02  0.15385772848E+03  0.16635839023E+03  0.41800000000E+01 0.  1.
         -5    1    3    3    0  502 -0.74028230801E+01  0.46458003383E+02  0.10094911461E+02  0.48296247321E+02  0.41800000000E+01 0.  1.
        -11    1    1    2    0    0  0.59381116552E+02 -0.24875599720E+02 -0.19202928995E+03  0.20253434441E+03  0.00000000000E+00 0.  1.
         11    1    1    2    0    0 -0.61568884009E+00  0.15123506411E+02  0.28880098513E+01  0.15409092116E+02  0.00000000000E+00 0. -1.
</event>
<event>
 7    1  0.2648915E-009  0.8776083E+02  0.7561462E-02  0.1308367E+00
          1   -1    0    0  501    0  0.00000000000E+00  0.00000000000E+00  0.16984028483E+04  0.16984028483E+04  0.00000000000E+00 0. -1.
         -1   -1    0    0    0  501 -0.00000000000E+00 -0.00000000000E+00 -0.10333632703E+02  0.10333632703E+02  0.00000000000E+00 0.  1.
         25    2    1    2    0    0 -0.24807732395E+02 -0.50172377341E+02  0.12720716741E+04  0.12794322961E+04  0.12509182732E+03 0.  0.
          5    1    3    3  502    0 -0.48026884667E+02 -0.47894525126E+02  0.12235031196E+04  0.12253888457E+04  0.41800000000E+01 0. -1.
         -5    1    3    3    0  502  0.23219152272E+02 -0.22778522151E+01  0.48568554536E+02  0.54043450414E+02  0.41800000000E+01 0. -1.
        -11    1    1    2    0    0  0.81199388869E+01 -0.14746735283E+02  0.14405656361E+02  0.22156771972E+02  0.00000000000E+00 0.  1.
         11    1    1    2    0    0  0.16687793508E+02  0.64919112623E+02  0.40159188515E+03  0.40714741293E+03  0.00000000000E+00 0. -1.
</event>
<event>
 7    1  0.2648915E-009  0.1049235E+03  0.7561462E-02  0.1270270E+00
         -2   -1    0    0    0  501 -0.00000000000E+00  0.00000000000E+00  0.91838608158E+02  0.91838608158E+02  0.00000000000E+00 0.  1.
          2   -1    0    0  501    0  0.00000000000E+00 -0.00000000000E+00 -0.16273300835E+03  0.16273300835E+03  0.00000000000E+00 0. -1.
         25    2    1    2    0    0 -0.72867611189E+01 -0.10679170179E+02  0.19234067805E+02  0.12721793569E+03  0.12508921710E+03 0.  0.
          5    1    3    3  502    0  0.29590552103E+02 -0.56659082346E+02  0.22868445985E+02  0.68016840619E+02  0.41800000000E+01 0.  1.
         -5    1    3    3    0  502 -0.36877313222E+02  0.45979912167E+02 -0.36343781800E+01  0.59201095075E+02  0.41800000000E+01 0.  1.
        -11    1    1    2    0    0  0.42150166921E+02 -0.13515624652E+02 -0.62969659445E+02  0.76970687225E+02  0.00000000000E+00 0. -1.
         11    1    1    2    0    0 -0.34863405802E+02  0.24194794831E+02 -0.27158808551E+02  0.50382993588E+02  0.00000000000E+00 0.  1.
</event>
<event>
 7    1  0.2648915E-009  0.1101379E+03  0.7561462E-02  0.1260315E+00
          2   -1    0    0  501    0  0.00000000000E+00  0.00000000000E+00  0.26041145049E+03  0.26041145049E+03  0.00000000000E+00 0. -1.
         -2   -1    0    0    0  501 -0.00000000000E+00 -0.00000000000E+00 -0.58917898023E+02  0.58917898023E+02  0.00000000000E+00 0.  1.
         25    2    1    2    0    0  0.30683034579E+02  0.53717401270E+02  0.12899129884E+03  0.19003639567E+03  0.12509224073E+03 0.  0.
          5    1    3    3  502    0  0.28793858365E+02 -0.37761082251E+02  0.38432953087E+02  0.61233568370E+02  0.41800000000E+01 0. -1.
         -5    1    3    3    0  502  0.18891762134E+01  0.91478483521E+02  0.90558345758E+02  0.12880282730E+03  0.41800000000E+01 0. -1.
        -11    1    1    2    0    0  0.13245973476E+02 -0.25689503518E+02 -0.10949938195E+02  0.30908049935E+02  0.00000000000E+00 0.  1.
         11    1    1    2    0    0 -0.43929008055E+02 -0.28027897752E+02  0.83452191815E+02  0.98384902906E+02  0.00000000000E+00 0. -1.
</event>
<event>
 7    1  0.2648915E-009  0.1108832E+03  0.7561462E-02  0.1258943E+00
          1   -1    0    0  501    0  0.00000000000E+00  0.00000000000E+00  0.19768951603E+03  0.19768951603E+03  0.00000000000E+00 0. -1.
         -1   -1    0    0    0  501 -0.00000000000E+00 -0.00000000000E+00 -0.97536941725E+02  0.97536941725E+02  0.00000000000E+00 0.  1.
         25    2    1    2    0    0  0.84363779840E+02  0.55086542820E+01  0.32333059662E+02  0.15440489912E+03  0.12509138061E+03 0.  0.
          5    1    3    3  502    0  0.92574274941E+02 -0.80302333868E+01  0.67957768677E+02  0.11519640512E+03  0.41800000000E+01 0.  1.
         -5    1    3    3    0  502 -0.82104951007E+01  0.13538887669E+02 -0.35624709014E+02  0.39208493996E+02  0.41800000000E+01 0.  1.
        -11    1    1    2    0    0 -0.65404328548E+02 -0.37348518167E+02  0.15806442639E+02  0.76957661288E+02  0.00000000000E+00 0.  1.
         11    1    1    2    0    0 -0.18959451293E+02  0.31839863885E+02  0.52013072001E+02  0.63863897348E+02  0.00000000000E+00 0. -1.
</event>
<event>
 7    1  0.2648915E-009  0.1597907E+03  0.7561462E-02  0.1188933E+00
         -2   -1    0    0    0  501 -0.00000000000E+00  0.00000000000E+00  0.12177644354E+03  0.12177644354E+03  0.00000000000E+00 0.  1.
          2   -1    0    0  501    0  0.00000000000E+00 -0.00000000000E+00 -0.30234586907E+03  0.30234586907E+03  0.00000000000E+00 0. -1.
         25    2    1    2    0    0  0.81349532386E+02 -0.12228758712E+03 -0.15630433907E+03  0.24829432692E+03  0.12508807292E+03 0.  0.
          5    1    3    3  502    0  0.83220327650E+02 -0.43892942299E+02 -0.13896936695E+03  0.16787546178E+03  0.41800000000E+01 0. -1.
         -5    1    3    3    0  502 -0.18707952641E+01 -0.78394644823E+02 -0.17334972117E+02  0.80418865138E+02  0.41800000000E+01 0. -1.
        -11    1    1    2    0    0 -0.57813157760E+01  0.87468307293E+01  0.27898529209E+02  0.29803667424E+02  0.00000000000E+00 0.  1.
         11    1    1    2    0    0 -0.75568216610E+02  0.11354075639E+03 -0.52163615677E+02  0.14602431826E+03  0.00000000000E+00 0. -1.
</event>
<event>
 7    1  0.2648915E-009  0.1286791E+03  0.7561462E-02  0.1229429E+00
         -1   -1    0    0    0  501 -0.00000000000E+00  0.00000000000E+00  0.42817710086E+02  0.42817710086E+02  0.00000000000E+00 0.  1.
          1   -1    0    0  501    0  0.00000000000E+00 -0.00000000000E+00 -0.55134388050E+03  0.55134388050E+03  0.00000000000E+00 0. -1.
         25    2    1    2    0    0 -0.98378432668E+02  0.21484975321E+02 -0.34949982872E+03  0.38462708393E+03  0.12509173931E+03 0.  0.
          5    1    3    3  502    0 -0.92366816753E+02  0.60561449179E+02 -0.18599608393E+03  0.21635926973E+03  0.41800000000E+01 0.  1.
         -5    1    3    3    0  502 -0.60116159153E+01 -0.39076473857E+02 -0.16350374479E+03  0.16826781420E+03  0.41800000000E+01 0.  1.
        -11    1    1    2    0    0  0.41649747930E+02 -0.27676040892E+02 -0.11438104791E+02  0.51298099217E+02  0.00000000000E+00 0.  1.
         11    1    1    2    0    0  0.56728684738E+02  0.61910655707E+01 -0.14758823691E+03  0.15823640744E+03  0.00000000000E+00 0. -1.
</event>
<event>
 7    1  0.2648915E-009  0.8783241E+02  0.7561462E-02  0.1308187E+00
         -1   -1    0    0    0  501 -0.00000000000E+00  0.00000000000E+00  0.14167349435E+03  0.14167349435E+03  0.00000000000E+00 0.  1.
          1   -1    0    0  501    0  0.00000000000E+00 -0.00000000000E+00 -0.17027760090E+03  0.17027760090E+03  0.00000000000E+00 0. -1.
         25    2    1    2    0    0 -0.18970923649E+02 -0.85480513456E+01  0.84076422417E+02  0.15215030829E+03  0.12509159196E+03 0.  0.
          5    1    3    3  502    0  0.17481390992E+02 -0.36182660391E+02 -0.14878738855E+02  0.43053840873E+02  0.41800000000E+01 0. -1.
         -5    1    3    3    0  502 -0.36452314641E+02  0.27634609045E+02  0.98955161273E+02  0.10909646741E+03  0.41800000000E+01 0. -1.
        -11    1    1    2    0    0 -0.30636672014E+02  0.22251054688E+02 -0.99809399047E+02  0.10675032199E+03  0.00000000000E+00 0. -1.
         11    1    1    2    0    0  0.49607595664E+02 -0.13703003342E+02 -0.12871129922E+02  0.53050464971E+02  0.00000000000E+00 0.  1.
</event>
<event>
 7    1  0.2648915E-009  0.9052281E+02  0.7561462E-02  0.1301591E+00
          1   -1    0    0  501    0  0.00000000000E+00  0.00000000000E+00  0.76154915444E+02  0.76154915444E+02  0.00000000000E+00 0. -1.
         -1   -1    0    0    0  501 -0.00000000000E+00 -0.00000000000E+00 -0.19411377553E+03  0.19411377553E+03  0.00000000000E+00 0.  1.
         25    2    1    2    0    0 -0.30858507001E+02 -0.38898920283E+02 -0.93585219211E+02  0.16392235131E+03  0.12508785133E+03 0.  0.
          5    1    3    3  502    0  0.47132311040E+02 -0.16991787486E+02 -0.19057943139E+02  0.53766654932E+02  0.41800000000E+01 0. -1.
         -5    1    3    3    0  502 -0.77990818041E+02 -0.21907132796E+02 -0.74527276073E+02  0.11015569638E+03  0.41800000000E+01 0. -1.
        -11    1    1    2    0    0  0.16231615004E+02  0.20621438003E+02 -0.58986201049E+02  0.64560676462E+02  0.00000000000E+00 0.  1.
         11    1    1    2    0    0  0.14626891997E+02  0.18277482279E+02  0.34612560171E+02  0.41785663206E+02  0.00000000000E+00 0. -1.
</event>
<event>
 7    1  0.2648915E-009  0.9836498E+02  0.7561462E-02  0.1283772E+00
         -1   -1    0    0    0  501 -0.00000000000E+00  0.00000000000E+00  0.12305582997E+03  0.12305582997E+03  0.00000000000E+00 0. -1.
          1   -1    0    0  501    0  0.00000000000E+00 -0.00000000000E+00 -0.24780572277E+03  0.24780572277E+03  0.00000000000E+00 0.  1.
         25    2    1    2    0    0  0.72391008173E+02 -0.16834263108E+02 -0.18421577506E+03  0.23474403944E+03  0.12508182040E+03 0.  0.
          5    1    3    3  502    0  0.14977654293E+02  0.22147689402E+01  0.17850028545E+02  0.23776695495E+02  0.41800000000E+01 0. -1.
         -5    1    3    3    0  502  0.57413353879E+02 -0.19049032048E+02 -0.20206580360E+03  0.21096734394E+03  0.41800000000E+01 0. -1.
        -11    1    1    2    0    0 -0.25106837653E+01  0.44981633979E+02  0.34527837615E+02  0.56761100226E+02  0.00000000000E+00 0. -1.
         11    1    1    2    0    0 -0.69880324407E+02 -0.28147370871E+02  0.24938044635E+02  0.79356413077E+02  0.00000000000E+00 0.  1.
</event>
<event>
 7    1  0.2648915E-009  0.1500425E+03  0.7561462E-02  0.1200421E+00
          1   -1    0    0  501    0  0.00000000000E+00  0.00000000000E+00  0.81912230559E+03  0.81912230559E+03  0.00000000000E+00 0. -1.
         -1   -1    0    0    0  501 -0.00000000000E+00 -0.00000000000E+00 -0.35356471204E+02  0.35356471204E+02  0.00000000000E+00 0.  1.
         25    2    1    2    0    0  0.11204864601E+03  0.37430516924E+01  0.58239126372E+03  0.60613264620E+03  0.12509313019E+03 0.  0.
          5    1    3    3  502    0  0.11013147539E+03 -0.44686183874E+02  0.43188404585E+03  0.44795881324E+03  0.41800000000E+01 0.  1.
         -5    1    3    3    0  502  0.19171706119E+01  0.48429235567E+02  0.15050721787E+03  0.15817383296E+03  0.41800000000E+01 0.  1.
        -11    1    1    2    0    0  0.17324609029E+01 -0.17784054073E+02  0.77618363800E+02  0.79648505316E+02  0.00000000000E+00 0. -1.
         11    1    1    2    0    0 -0.11378110691E+03  0.14041002381E+02  0.12375620686E+03  0.16869762528E+03  0.00000000000E+00 0.  1.
</event>
<event>
 7    1  0.2648915E-009  0.8516670E+02  0.7561462E-02  0.1314997E+00
          1   -1    0    0  501    0  0.00000000000E+00  0.00000000000E+00  0.37681106777E+03  0.37681106777E+03  0.00000000000E+00 0. -1.
         -1   -1    0    0    0  501 -0.00000000000E+00 -0.00000000000E+00 -0.45514350928E+02  0.45514350928E+02  0.00000000000E+00 0.  1.
         25    2    1    2    0    0 -0.13919870936E+02 -0.11872166038E+02  0.29767228538E+03  0.32340506186E+03  0.12508930177E+03 0.  0.
          5    1    3    3  502    0 -0.44596271074E+02 -0.38417028102E-01  0.28406736174E+03  0.28757706319E+03  0.41800000000E+01 0.  1.
         -5    1    3    3    0  502  0.30676400138E+02 -0.11833749010E+02  0.13604923646E+02  0.35827998667E+02  0.41800000000E+01 0.  1.
        -11    1    1    2    0    0 -0.21123035758E+02 -0.30695350048E+02  0.79510353009E+01  0.38099949036E+02  0.00000000000E+00 0.  1.
         11    1    1    2    0    0  0.35042906693E+02  0.42567516086E+02  0.25673396161E+02  0.60820407806E+02  0.00000000000E+00 0. -1.
</event>
<event>
 7    1  0.2648915E-009  0.1504892E+03  0.7561462E-02  0.1199873E+00
          1   -1    0    0  501    0  0.00000000000E+00  0.00000000000E+00  0.10276733728E+04  0.10276733728E+04  0.00000000000E+00 0. -1.
         -1   -1    0    0    0  501 -0.00000000000E+00 -0.00000000000E+00 -0.30008224257E+02  0.30008224257E+02  0.00000000000E+00 0.  1.
         25    2    1    2    0    0 -0.12855845967E+03  0.45895811957E+01  0.68233655610E+03  0.70553642763E+03  0.12510049205E+03 0.  0.
          5    1    3    3  502    0 -0.48681653542E+02  0.36673552510E+02  0.10246291162E+03  0.11929364401E+03  0.41800000000E+01 0.  1.
         -5    1    3    3    0  502 -0.79876806128E+02 -0.32083971314E+02  0.57987364449E+03  0.58624278362E+03  0.41800000000E+01 0.  1.
        -11    1    1    2    0    0  0.14109555158E+03 -0.39341609269E+01  0.26469156533E+03  0.29997509406E+03  0.00000000000E+00 0.  1.
         11    1    1    2    0    0 -0.12537091911E+02 -0.65542026874E+00  0.50637027102E+02  0.52170075359E+02  0.00000000000E+00 0. -1.
</event>
<event>
 7    1  0.2648915E-009  0.2331834E+03  0.7561462E-02  0.1124419E+00
          2   -1    0    0  501    0  0.00000000000E+00  0.00000000000E+00  0.14215645812E+04  0.14215645812E+04  0.00000000000E+00 0.  1.
         -2   -1    0    0    0  501 -0.00000000000E+00 -0.00000000000E+00 -0.47149166479E+02  0.47149166479E+02  0.00000000000E+00 0. -1.
         25    2    1    2    0    0 -0.66953068215E+01 -0.21453948670E+03  0.97575954377E+03  0.10068892672E+04  0.12508913108E+03 0.  0.
          5    1    3    3  502    0 -0.60837027852E+02 -0.83980708354E+02  0.49516694463E+03  0.50592655474E+03  0.41800000000E+01 0. -1.
         -5    1    3    3    0  502  0.54141721030E+02 -0.13055877834E+03  0.48059259914E+03  0.50096271249E+03  0.41800000000E+01 0. -1.
        -11    1    1    2    0    0  0.26573522014E+02  0.63469518187E+02  0.19971340299E+03  0.21123440805E+03  0.00000000000E+00 0.  1.
         11    1    1    2    0    0 -0.19878215193E+02  0.15106996851E+03  0.19894246794E+03  0.25059007238E+03  0.00000000000E+00 0. -1.
</event>
<event>
 7    1  0.2648915E-009  0.8117231E+02  0.7561462E-02  0.1325757E+00
         -1   -1    0    0    0  501 -0.00000000000E+00  0.00000000000E+00  0.10269599964E+03  0.10269599964E+03  0.00000000000E+00 0.  1.
          1   -1    0    0  501    0  0.00000000000E+00 -0.00000000000E+00 -0.13552104452E+03  0.13552104452E+03  0.00000000000E+00 0. -1.
         25    2    1    2    0    0 -0.29408195953E+02 -0.19168041060E+02 -0.49809064892E+02  0.13914196647E+03  0.12508912064E+03 0.  0.
          5    1    3    3  502    0 -0.46260719315E+02 -0.14671274823E+02 -0.85950860806E+02  0.98794348673E+02  0.41800000000E+01 0. -1.
         -5    1    3    3    0  502  0.16852523362E+02 -0.44967662375E+01  0.36141795914E+02  0.40347617800E+02  0.41800000000E+01 0. -1.
        -11    1    1    2    0    0  0.27518589702E+02 -0.33297915941E+02  0.17408516747E+02  0.46573387686E+02  0.00000000000E+00 0.  1.
         11    1    1    2    0    0  0.18896062508E+01  0.52465957001E+02 -0.42449673314E+00  0.52501690004E+02  0.00000000000E+00 0. -1.
</event>
<event>
 7    1  0.2648915E-009  0.7887804E+02  0.7561462E-02  0.1332266E+00
         -4   -1    0    0    0  501 -0.00000000000E+00  0.00000000000E+00  0.50393014152E+03  0.50393014152E+03  0.00000000000E+00 0.  1.
          4   -1    0    0  501    0  0.00000000000E+00 -0.00000000000E+00 -0.34195651937E+02  0.34195651937E+02  0.00000000000E+00 0. -1.
         25    2    1    2    0    0  0.91357740699E+01  0.37243886775E+02  0.38851030582E+03  0.40994894699E+03  0.12508921590E+03 0.  0.
          5    1    3    3  502    0  0.25606609278E+02  0.31473016466E+02  0.29134302658E+02  0.50125135367E+02  0.41800000000E+01 0. -1.
         -5    1    3    3    0  502 -0.16470835208E+02  0.57708703095E+01  0.35937600317E+03  0.35982381162E+03  0.41800000000E+01 0. -1.
        -11    1    1    2    0    0  0.13890476406E+01 -0.67228617980E+02  0.58238953729E+02  0.88957249622E+02  0.00000000000E+00 0.  1.
         11    1    1    2    0    0 -0.10524821711E+02  0.29984731205E+02  0.22985230028E+02  0.39219596848E+02  0.00000000000E+00 0. -1.
</event>
<event>
 7    1  0.2648915E-009  0.1047461E+03  0.7561462E-02  0.1270621E+00
         -1   -1    0    0    0  501 -0.00000000000E+00  0.00000000000E+00  0.70143755897E+02  0.70143755897E+02  0.00000000000E+00 0.  1.
          1   -1    0    0  501    0  0.00000000000E+00 -0.00000000000E+00 -0.27280500965E+03  0.27280500965E+03  0.00000000000E+00 0. -1.
         25    2    1    2    0    0 -0.66666978571E+02  0.52474262584E+02 -0.10752864497E+03  0.18549720426E+03  0.12509504000E+03 0.  0.
          5    1    3    3  502    0 -0.32660315195E+02  0.75991256327E+02 -0.15137375929E+02  0.84190140615E+02  0.41800000000E+01 0. -1.
         -5    1    3    3    0  502 -0.34006663376E+02 -0.23516993742E+02 -0.92391269042E+02  0.10130706364E+03  0.41800000000E+01 0. -1.
        -11    1    1    2    0    0  0.51679652570E+02 -0.36886947212E+02 -0.11285709272E+03  0.12949191767E+03  0.00000000000E+00 0. -1.
         11    1    1    2    0    0  0.14987326000E+02 -0.15587315373E+02  0.17724483930E+02  0.27959643627E+02  0.00000000000E+00 0.  1.
</event>
<event>
 7    1  0.2648915E-009  0.1037359E+03  0.7561462E-02  0.1272630E+00
         -1   -1    0    0    0  501 -0.00000000000E+00  0.00000000000E+00  0.26188523875E+03  0.26188523875E+03  0.00000000000E+00 0.  1.
          1   -1    0    0  501    0  0.00000000000E+00 -0.00000000000E+00 -0.64954358459E+02  0.64954358459E+02  0.00000000000E+00 0. -1.
         25    2    1    2    0    0 -0.59311132233E+02 -0.39829405348E+02  0.92026694740E+02  0.17094097972E+03  0.12509082327E+03 0.  0.
          5    1    3    3  502    0 -0.75775794435E+02  0.10848792608E+02  0.16505578189E+02  0.78419218528E+02  0.41800000000E+01 0. -1.
         -5    1    3    3    0  502  0.16464662202E+02 -0.50678197955E+02  0.75521116551E+02  0.92521761194E+02  0.41800000000E+01 0. -1.
        -11    1    1    2    0    0  0.41165354074E+02  0.42326238031E+02  0.11896251078E+03  0.13280879404E+03  0.00000000000E+00 0.  1.
         11    1    1    2    0    0  0.18145778159E+02 -0.24968326834E+01 -0.14058325233E+02  0.23089823447E+02  0.00000000000E+00 0. -1.
</event>
<event>
 7    1  0.2648915E-009  0.2642836E+03  0.7561462E-02  0.1104597E+00
          4   -1    0    0  501    0  0.00000000000E+00  0.00000000000E+00  0.40048970069E+03  0.40048970069E+03  0.00000000000E+00 0. -1.
         -4   -1    0    0    0  501 -0.00000000000E+00 -0.00000000000E+00 -0.30009459311E+03  0.30009459311E+03  0.00000000000E+00 0.  1.
         25    2    1    2    0    0 -0.14478920125E+03 -0.19503558486E+03 -0.17328830140E+03  0.32354121172E+03  0.12508912069E+03 0.  0.
          5    1    3    3  502    0 -0.87842393655E+02 -0.19581769577E+03 -0.12270691803E+03  0.24725556866E+03  0.41800000000E+01 0.  1.
         -5    1    3    3    0  502 -0.56946807595E+02  0.78211091394E+00 -0.50581383375E+02  0.76285643059E+02  0.41800000000E+01 0.  1.
        -11    1    1    2    0    0  0.14749218444E+03  0.14545799110E+03  0.24004280656E+03  0.31706863709E+03  0.00000000000E+00 0. -1.
         11    1    1    2    0    0 -0.27029831924E+01  0.49577593755E+02  0.33640602425E+02  0.59974444993E+02  0.00000000000E+00 0.  1.
</event>
<event>
 7    1  0.2648915E-009  0.8166559E+02  0.7561462E-02  0.1324390E+00
          2   -1    0    0  501    0  0.00000000000E+00  0.00000000000E+00  0.13635726663E+03  0.13635726663E+03  0.00000000000E+00 0. -1.
         -2   -1    0    0    0  501 -0.00000000000E+00 -0.00000000000E+00 -0.11245277697E+03  0.11245277697E+03  0.00000000000E+00 0.  1.
         25    2    1    2    0    0  0.34390536413E+02  0.47397820205E+02  0.27260212672E+02  0.14077447450E+03  0.12508025872E+03 0.  0.
          5    1    3    3  502    0  0.16366585960E+02  0.16787984666E+02  0.76383112429E+02  0.80009710845E+02  0.41800000000E+01 0. -1.
         -5    1    3    3    0  502  0.18023950453E+02  0.30609835539E+02 -0.49122899757E+02  0.60764763656E+02  0.41800000000E+01 0. -1.
        -11    1    1    2    0    0  0.24747519212E+02 -0.35741055476E+02  0.13369990453E+02  0.45482077771E+02  0.00000000000E+00 0. -1.
         11    1    1    2    0    0 -0.59138055625E+02 -0.11656764729E+02 -0.16725713460E+02  0.62553491332E+02  0.00000000000E+00 0.  1.
</event>
<event>
 7    1  0.2648915E-009  0.6618748E+02  0.7561462E-02  0.1373560E+00
         -1   -1    0    0    0  501 -0.00000000000E+00  0.00000000000E+00  0.39924266959E+02  0.39924266959E+02  0.00000000000E+00 0.  1.
          1   -1    0    0  501    0  0.00000000000E+00 -0.00000000000E+00 -0.39751011221E+03  0.39751011221E+03  0.00000000000E+00 0. -1.
         25    2    1    2    0    0  0.59834707605E+02 -0.59929430412E+01 -0.23108340893E+03  0.26956199333E+03  0.12509204117E+03 0.  0.
          5    1    3    3  502    0  0.58302216561E+02 -0.29360864634E+01 -0.24643444054E+03  0.25328871855E+03  0.41800000000E+01 0.  1.
         -5    1    3    3    0  502  0.15324910433E+01 -0.30568565778E+01  0.15351031604E+02  0.16273274785E+02  0.41800000000E+01 0.  1.
        -11    1    1    2    0    0 -0.52894325515E+02  0.16893357946E+02 -0.13913221278E+03  0.14980309692E+03  0.00000000000E+00 0. -1.
         11    1    1    2    0    0 -0.69403820896E+01 -0.10900414904E+02  0.12629776459E+02  0.18069288919E+02  0.00000000000E+00 0.  1.
</event>
<event>
 7    1  0.2648915E-009  0.2952212E+03  0.7561462E-02  0.1087654E+00
         -1   -1    0    0    0  501 -0.00000000000E+00  0.00000000000E+00  0.25781351328E+03  0.25781351328E+03  0.00000000000E+00 0.  1.
          1   -1    0    0  501    0  0.00000000000E+00 -0.00000000000E+00 -0.37847812318E+03  0.37847812318E+03  0.00000000000E+00 0. -1.
         25    2    1    2    0    0 -0.25370276214E+03  0.14497893197E+03 -0.40210510190E+02  0.32038642202E+03  0.12508633840E+03 0.  0.
          5    1    3    3  502    0 -0.92663859184E+02  0.34514717198E+02 -0.72130210277E+02  0.12246671440E+03  0.41800000000E+01 0.  1.
         -5    1    3    3    0  502 -0.16103890296E+03  0.11046421477E+03  0.31919700086E+02  0.19791970762E+03  0.41800000000E+01 0.  1.
        -11    1    1    2    0    0  0.17227553351E+03 -0.71712927718E+02 -0.12547287448E+02  0.18702683730E+03  0.00000000000E+00 0.  1.
         11    1    1    2    0    0  0.81427228637E+02 -0.73266004247E+02 -0.67906812262E+02  0.12887837714E+03  0.00000000000E+00 0. -1.
</event>
<event>
 7    1  0.2648915E-009  0.1589700E+03  0.7561462E-02  0.1189865E+00
         -1   -1    0    0    0  501 -0.00000000000E+00  0.00000000000E+00  0.13270952650E+03  0.13270952650E+03  0.00000000000E+00 0.  1.
          1   -1    0    0  501    0  0.00000000000E+00 -0.00000000000E+00 -0.23091902203E+03  0.23091902203E+03  0.00000000000E+00 0. -1.
         25    2    1    2    0    0 -0.11599351205E+03 -0.68315684704E+02 -0.35670257100E+02  0.18719203532E+03  0.12508782208E+03 0.  0.
          5    1    3    3  502    0  0.26599790212E+02 -0.66724404692E+01  0.30341017305E-01  0.27740649266E+02  0.41800000000E+01 0.  1.
         -5    1    3    3    0  502 -0.14259330226E+03 -0.61643244235E+02 -0.35700598117E+02  0.15945138606E+03  0.41800000000E+01 0.  1.
        -11    1    1    2    0    0  0.35467448114E+02  0.17215941054E+02 -0.70457059508E+02  0.80737387477E+02  0.00000000000E+00 0. -1.
         11    1    1    2    0    0  0.80526063937E+02  0.51099743650E+02  0.79178210750E+01  0.95699125726E+02  0.00000000000E+00 0.  1.
</event>
<event>
 7    1  0.2648915E-009  0.5088627E+02  0.7561462E-02  0.1440619E+00
          2   -1    0    0  501    0  0.00000000000E+00  0.00000000000E+00  0.13687796292E+03  0.13687796292E+03  0.00000000000E+00 0. -1.
         -2   -1    0    0    0  501 -0.00000000000E+00 -0.00000000000E+00 -0.87475585814E+02  0.87475585814E+02  0.00000000000E+00 0.  1.
         25    2    1    2    0    0 -0.49525026478E+01  0.70990883053E+01  0.44949256770E+02  0.13320317968E+03  0.12509087519E+03 0.  0.
          5    1    3    3  502    0 -0.96702275833E+01 -0.43832269390E+01 -0.42895518743E+02  0.44387204329E+02  0.41800000000E+01 0.  1.
         -5    1    3    3    0  502  0.47177249355E+01  0.11482315244E+02  0.87844775513E+02  0.88815975348E+02  0.41800000000E+01 0.  1.
        -11    1    1    2    0    0 -0.11888212491E+02 -0.39227276119E+02  0.26398389122E+02  0.48754320180E+02  0.00000000000E+00 0. -1.
         11    1    1    2    0    0  0.16840715139E+02  0.32128187813E+02 -0.21945268784E+02  0.42396048879E+02  0.00000000000E+00 0.  1.
</event>
<event>
 7    1  0.2648915E-009  0.9767731E+02  0.7561462E-02  0.1285257E+00
          3   -1    0    0  501    0  0.00000000000E+00  0.00000000000E+00  0.15560162609E+04  0.15560162609E+04  0.00000000000E+00 0. -1.
         -3   -1    0    0    0  501 -0.00000000000E+00 -0.00000000000E+00 -0.22396891192E+02  0.22396891192E+02  0.00000000000E+00 0.  1.
         25    2    1    2    0    0 -0.42908448302E+02 -0.43980575989E+02  0.13926318701E+04  0.13995877838E+04  0.12508802123E+03 0.  0.
          5    1    3    3  502    0 -0.63448780964E+02 -0.72067499586E+02  0.77073334388E+03  0.77670253770E+03  0.41800000000E+01 0.  1.
         -5    1    3    3    0  502  0.20540332663E+02  0.28086923596E+02  0.62189852619E+03  0.62288524611E+03  0.41800000000E+01 0.  1.
        -11    1    1    2    0    0  0.18741317196E+02  0.32332325391E+02  0.21646018486E+01  0.37433965013E+02  0.00000000000E+00 0.  1.
         11    1    1    2    0    0  0.24167131106E+02  0.11648250598E+02  0.13882289775E+03  0.14139140323E+03  0.00000000000E+00 0. -1.
</event>
<event>
 7    1  0.2648915E-009  0.1469545E+03  0.7561462E-02  0.1204266E+00
         -2   -1    0    0    0  501 -0.00000000000E+00  0.00000000000E+00  0.50028396171E+02  0.50028396171E+02  0.00000000000E+00 0.  1.
          2   -1    0    0  501    0  0.00000000000E+00 -0.00000000000E+00 -0.49186008850E+03  0.49186008850E+03  0.00000000000E+00 0. -1.
         25    2    1    2    0    0 -0.86598053990E+02 -0.72070194195E+02 -0.26079386175E+03  0.31041108493E+03  0.12509303527E+03 0.  0.
          5    1    3    3  502    0 -0.11267555564E+03 -0.30651920759E+02 -0.15828999722E+03  0.19674480096E+03  0.41800000000E+01 0. -1.
         -5    1    3    3    0  502  0.26077501654E+02 -0.41418273436E+02 -0.10250386453E+03  0.11366628397E+03  0.41800000000E+01 0. -1.
        -11    1    1    2    0    0  0.63711208401E+02  0.13592642500E+02 -0.38380822741E+02  0.75610618039E+02  0.00000000000E+00 0.  1.
         11    1    1    2    0    0  0.22886845589E+02  0.58477551695E+02 -0.14265700784E+03  0.15586678171E+03  0.00000000000E+00 0. -1.
</event>
<event>
 7    1  0.2648915E-009  0.1236594E+03  0.7561462E-02  0.1237179E+00
          1   -1    0    0  501    0  0.00000000000E+00  0.00000000000E+00  0.39966774926E+03  0.39966774926E+03  0.00000000000E+00 0. -1.
         -1   -1    0    0    0  501 -0.00000000000E+00 -0.00000000000E+00 -0.70952536270E+02  0.70952536270E+02  0.00000000000E+00 0.  1.
         25    2    1    2    0    0 -0.30599151370E+02  0.11720672994E+03  0.11356241807E+03  0.20788939212E+03  0.12509137039E+03 0.  0.
          5    1    3    3  502    0 -0.76842936677E+01  0.26458941962E+02 -0.27106483293E+02  0.38876185711E+02  0.41800000000E+01 0.  1.
         -5    1    3    3    0  502 -0.22914857703E+02  0.90747787982E+02  0.14066890137E+03  0.16901320640E+03  0.41800000000E+01 0.  1.
        -11    1    1    2    0    0  0.26943767557E+02 -0.38619548085E+02  0.17915656571E+02  0.50382604685E+02  0.00000000000E+00 0.  1.
         11    1    1    2    0    0  0.36553838133E+01 -0.78587181860E+02  0.19723713834E+03  0.21234828873E+03  0.00000000000E+00 0. -1.
</event>
<event>
 7    1  0.2648915E-009  0.1659907E+03  0.7561462E-02  0.1182095E+00
          2   -1    0    0  501    0  0.00000000000E+00  0.00000000000E+00  0.73124047079E+03  0.73124047079E+03  0.00000000000E+00 0. -1.
         -2   -1    0    0    0  501 -0.00000000000E+00 -0.00000000000E+00 -0.48074927533E+02  0.48074927533E+02  0.00000000000E+00 0.  1.
         25    2    1    2    0    0  0.12901506864E+03 -0.59415478718E+02  0.46807992978E+03  0.50489737417E+03  0.12508977071E+03 0.  0.
          5    1    3    3  502    0  0.43210387932E+02  0.37714195248E+02  0.11118222066E+03  0.12517370627E+03  0.41800000000E+01 0. -1.
         -5    1    3    3    0  502  0.85804680705E+02 -0.97129673965E+02  0.35689770912E+03  0.37972366791E+03  0.41800000000E+01 0. -1.
        -11    1    1    2    0    0 -0.10119081827E+03  0.32989726174E+02  0.77708180775E+02  0.13178188455E+03  0.00000000000E+00 0.  1.
         11    1    1    2    0    0 -0.27824250367E+02  0.26425752543E+02  0.13737743270E+03  0.14263613961E+03  0.00000000000E+00 0. -1.
</event>
<event>
 7    1  0.2648915E-009  0.6794041E+02  0.7561462E-02  0.1367240E+00
          4   -1    0    0  501    0  0.00000000000E+00  0.00000000000E+00  0.37334927742E+03  0.37334927742E+03  0.00000000000E+00 0.  1.
         -4   -1    0    0    0  501 -0.00000000000E+00 -0.00000000000E+00 -0.31539419431E+02  0.31539419431E+02  0.00000000000E+00 0. -1.
         25    2    1    2    0    0  0.60868313489E+01 -0.16397297197E+01  0.21870026544E+03  0.25202306398E+03  0.12508429336E+03 0.  0.
          5    1    3    3  502    0  0.20075372431E+02 -0.36777537389E+02  0.14846547037E+02  0.44648630366E+02  0.41800000000E+01 0. -1.
         -5    1    3    3    0  502 -0.13988541082E+02  0.35137807669E+02  0.20385371840E+03  0.20737443361E+03  0.41800000000E+01 0. -1.
        -11    1    1    2    0    0 -0.30708330065E+02  0.40902264458E+01  0.12429163616E+03  0.12809427117E+03  0.00000000000E+00 0.  1.
         11    1    1    2    0    0  0.24621498716E+02 -0.24504967260E+01 -0.11820436143E+01  0.24771361697E+02  0.00000000000E+00 0. -1.
</event>
<event>
 7    1  0.2648915E-009  0.9395041E+02  0.7561462E-02  0.1293558E+00
          1   -1    0    0  501    0  0.00000000000E+00  0.00000000000E+00  0.28415938972E+03  0.28415938972E+03  0.00000000000E+00 0. -1.
         -1   -1    0    0    0  501 -0.00000000000E+00 -0.00000000000E+00 -0.45628281005E+02  0.45628281005E+02  0.00000000000E+00 0.  1.
         25    2    1    2    0    0 -0.10807915844E+02 -0.32338355600E+02  0.15338463196E+03  0.20083872341E+03  0.12508703854E+03 0.  0.
          5    1    3    3  502    0 -0.51421381080E+02 -0.72142629529E+01  0.14243919495E+03  0.15166608283E+03  0.41800000000E+01 0.  1.
         -5    1    3    3    0  502  0.40613465236E+02 -0.25124092647E+02  0.10945437007E+02  0.49172640575E+02  0.41800000000E+01 0.  1.
        -11    1    1    2    0    0  0.79047795074E+01  0.59766774583E+02  0.30110552238E+02  0.67388413241E+02  0.00000000000E+00 0.  1.
         11    1    1    2    0    0  0.29031363361E+01 -0.27428418983E+02  0.55035924517E+02  0.61560534078E+02  0.00000000000E+00 0. -1.
</event>
<event>
 7    1  0.2648915E-009  0.1430768E+03  0.7561462E-02  0.1209248E+00
          1   -1    0    0  501    0  0.00000000000E+00  0.00000000000E+00  0.51348026629E+02  0.51348026629E+02  0.00000000000E+00 0. -1.
         -1   -1    0    0    0  501 -0.00000000000E+00 -0.00000000000E+00 -0.63461824640E+03  0.63461824640E+03  0.00000000000E+00 0.  1.
         25    2    1    2    0    0 -0.37203831144E+02 -0.12762154403E+03 -0.41316368519E+03  0.45168933214E+03  0.12509052107E+03 0.  0.
          5    1    3    3  502    0  0.18212913329E+02 -0.62034276182E+02 -0.31326487513E+03  0.31989422631E+03  0.41800000000E+01 0. -1.
         -5    1    3    3    0  502 -0.55416744473E+02 -0.65587267853E+02 -0.99898810056E+02  0.13179510584E+03  0.41800000000E+01 0. -1.
        -11    1    1    2    0    0  0.14576253800E+01  0.49133136914E+02 -0.68366950968E+01  0.49627917694E+02  0.00000000000E+00 0. -1.
         11    1    1    2    0    0  0.35746205764E+02  0.78488407121E+02 -0.16326983949E+03  0.18464902319E+03  0.00000000000E+00 0.  1.
</event>
<event>
 7    1  0.2648915E-009  0.1202253E+03  0.7561462E-02  0.1242726E+00
         -2   -1    0    0    0  501 -0.00000000000E+00  0.00000000000E+00  0.12990189724E+02  0.12990189724E+02  0.00000000000E+00 0. -1.
          2   -1    0    0  501    0  0.00000000000E+00 -0.00000000000E+00 -0.16577746685E+04  0.16577746685E+04  0.00000000000E+00 0.  1.
         25    2    1    2    0    0 -0.83826734304E+00  0.83317504292E+02 -0.11848858139E+04  0.11943802169E+04  0.12508877342E+03 0.  0.
          5    1    3    3  502    0  0.40939452046E+02  0.95300217308E+02 -0.71933992990E+03  0.72679128868E+03  0.41800000000E+01 0. -1.
         -5    1    3    3    0  502 -0.41777719389E+02 -0.11982713016E+02 -0.46554588400E+03  0.46758892818E+03  0.41800000000E+01 0. -1.
        -11    1    1    2    0    0  0.10914823089E+02 -0.82111409421E+02 -0.45875339511E+03  0.46617174351E+03  0.00000000000E+00 0.  1.
         11    1    1    2    0    0 -0.10076555746E+02 -0.12060948703E+01 -0.11452698094E+01  0.10212897898E+02  0.00000000000E+00 0. -1.
</event>
<event>
 7    1  0.2648915E-009  0.1807849E+03  0.7561462E-02  0.1167046E+00
          1   -1    0    0  501    0  0.00000000000E+00  0.00000000000E+00  0.10245633817E+04  0.10245633817E+04  0.00000000000E+00 0. -1.
         -1   -1    0    0    0  501 -0.00000000000E+00 -0.00000000000E+00 -0.38735039132E+02  0.38735039132E+02  0.00000000000E+00 0.  1.
         25    2    1    2    0    0 -0.15381647918E+03  0.55569381178E+02  0.43622975318E+03  0.48238224368E+03  0.12509502816E+03 0.  0.
          5    1    3    3  502    0 -0.60545232836E+02  0.81035878149E+02  0.15657217161E+03  0.18645336170E+03  0.41800000000E+01 0.  1.
         -5    1    3    3    0  502 -0.93271246340E+02 -0.25466496971E+02  0.27965758157E+03  0.29592888198E+03  0.41800000000E+01 0.  1.
        -11    1    1    2    0    0  0.48261495846E+02 -0.16790718072E+02  0.61147695044E+02  0.79687770730E+02  0.00000000000E+00 0.  1.
         11    1    1    2    0    0  0.10555498333E+03 -0.38778663106E+02  0.48845089440E+03  0.50122840647E+03  0.00000000000E+00 0. -1.
</event>
<event>
 7    1  0.2648915E-009  0.9164401E+02  0.7561462E-02  0.1298919E+00
         -1   -1    0    0    0  501 -0.00000000000E+00  0.00000000000E+00  0.39403851500E+02  0.39403851500E+02  0.00000000000E+00 0.  1.
          1   -1    0    0  501    0  0.00000000000E+00 -0.00000000000E+00 -0.34223281822E+03  0.34223281822E+03  0.00000000000E+00 0. -1.
         25    2    1    2    0    0 -0.12789608405E+02 -0.39633017009E+02 -0.20227825990E+03  0.24145050777E+03  0.12508998025E+03 0.  0.
          5    1    3    3  502    0 -0.55268296278E+02 -0.19325992145E+02 -0.17974360612E+03  0.18908546979E+03  0.41800000000E+01 0.  1.
         -5    1    3    3    0  502  0.42478687873E+02 -0.20307024863E+02 -0.22534653778E+02  0.52365037985E+02  0.41800000000E+01 0.  1.
        -11    1    1    2    0    0  0.39541390432E+02  0.21570466223E+02 -0.97941323521E+02  0.10780217727E+03  0.00000000000E+00 0. -1.
         11    1    1    2    0    0 -0.26751782027E+02  0.18062550785E+02 -0.26093833055E+01  0.32383984679E+02  0.00000000000E+00 0.  1.
</event>
<event>
 7    1  0.2648915E-009  0.8622552E+02  0.7561462E-02  0.1312258E+00
          1   -1    0    0  501    0  0.00000000000E+00  0.00000000000E+00  0.50205719876E+02  0.50205719876E+02  0.00000000000E+00 0. -1.
         -1   -1    0    0    0  501 -0.00000000000E+00 -0.00000000000E+00 -0.35526829558E+03  0.35526829558E+03  0.00000000000E+00 0.  1.
         25    2    1    2    0    0  0.91365741901E+01 -0.63332820344E+02 -0.23361722344E+03  0.27261351618E+03  0.12508636614E+03 0.  0.
          5    1    3    3  502    0  0.27597485370E+02 -0.93855001179E+01  0.26128669894E+01  0.29563631122E+02  0.41800000000E+01 0.  1.
         -5    1    3    3    0  502 -0.18460911180E+02 -0.53947320226E+02 -0.23623009043E+03  0.24304988506E+03  0.41800000000E+01 0.  1.
        -11    1    1    2    0    0 -0.32140959771E+02  0.49403826915E+02 -0.84454015743E+02  0.10298669906E+03  0.00000000000E+00 0.  1.
         11    1    1    2    0    0  0.23004385581E+02  0.13928993429E+02  0.13008663477E+02  0.29873800217E+02  0.00000000000E+00 0. -1.
</event>
<event>
 7    1  0.2648915E-009  0.7920465E+02  0.7561462E-02  0.1331324E+00
          3   -1    0    0  501    0  0.00000000000E+00  0.00000000000E+00  0.67773673328E+02  0.67773673328E+02  0.00000000000E+00 0. -1.
         -3   -1    0    0    0  501 -0.00000000000E+00 -0.00000000000E+00 -0.26062538171E+03  0.26062538171E+03  0.00000000000E+00 0.  1.
         25    2    1    2    0    0  0.28096524338E+02 -0.90541765380E+01 -0.13045684674E+03  0.18313507416E+03  0.12509226089E+03 0.  0.
          5    1    3    3  502    0 -0.48667187071E+01 -0.63399663451E+02 -0.53252722844E+02  0.83045332000E+02  0.41800000000E+01 0. -1.
         -5    1    3    3    0  502  0.32963243045E+02  0.54345486913E+02 -0.77204123896E+02  0.10008974216E+03  0.41800000000E+01 0. -1.
        -11    1    1    2    0    0 -0.16001239113E+02  0.99774293736E+01 -0.10205895628E+03  0.10378641195E+03  0.00000000000E+00 0.  1.
         11    1    1    2    0    0 -0.12095285225E+02 -0.92325283557E+00  0.39664094634E+02  0.41477568921E+02  0.00000000000E+00 0. -1.
</event>
<event>
 7    1  0.2648915E-009  0.9929992E+02  0.7561462E-02  0.1281775E+00
         -4   -1    0    0    0  501 -0.00000000000E+00  0.00000000000E+00  0.67488927721E+02  0.67488927721E+02  0.00000000000E+00 0. -1.
          4   -1    0    0  501    0  0.00000000000E+00 -0.00000000000E+00 -0.32551508696E+03  0.32551508696E+03  0.00000000000E+00 0.  1.
         25    2    1    2    0    0 -0.17054443643E+02  0.90863647686E+02 -0.19287875320E+03  0.24777433442E+03  0.12507138299E+03 0.  0.
          5    1    3    3  502    0 -0.34673314258E+02  0.68195762537E+02 -0.20305464903E+03  0.21702894655E+03  0.41800000000E+01 0. -1.
         -5    1    3    3    0  502  0.17618870614E+02  0.22667885149E+02  0.10175895833E+02  0.30745387863E+02  0.41800000000E+01 0. -1.
        -11    1    1    2    0    0  0.37186312149E-03 -0.22841062094E+02 -0.71264614224E+02  0.74835548760E+02  0.00000000000E+00 0.  1.
         11    1    1    2    0    0  0.17054071780E+02 -0.68022585592E+02  0.61172081776E+01  0.70394131508E+02  0.00000000000E+00 0. -1.
</event>
<event>
 7    1  0.2648915E-009  0.2945381E+03  0.7561462E-02  0.1088003E+00
          1   -1    0    0  501    0  0.00000000000E+00  0.00000000000E+00  0.12670860783E+04  0.12670860783E+04  0.00000000000E+00 0. -1.
         -1   -1    0    0    0  501 -0.00000000000E+00 -0.00000000000E+00 -0.11111210326E+03  0.11111210326E+03  0.00000000000E+00 0.  1.
         25    2    1    2    0    0 -0.63913307613E+01  0.27661305818E+03  0.10051268535E+04  0.10499913869E+04  0.12508512230E+03 0.  0.
          5    1    3    3  502    0 -0.54103218853E+02  0.22590739388E+03  0.81522786355E+03  0.84768818018E+03  0.41800000000E+01 0.  1.
         -5    1    3    3    0  502  0.47711888091E+02  0.50705664296E+02  0.18989899000E+03  0.20230320674E+03  0.41800000000E+01 0.  1.
        -11    1    1    2    0    0  0.33147205465E+02 -0.58441086172E+02  0.12086123611E+02  0.68265453686E+02  0.00000000000E+00 0.  1.
         11    1    1    2    0    0 -0.26755874703E+02 -0.21817197201E+03  0.13876099787E+03  0.25994134094E+03  0.00000000000E+00 0. -1.
</event>
<event>
 7    1  0.2648915E-009  0.1534446E+03  0.7561462E-02  0.1196303E+00
          1   -1    0    0  501    0  0.00000000000E+00  0.00000000000E+00  0.13577177972E+03  0.13577177972E+03  0.00000000000E+00 0. -1.
         -1   -1    0    0    0  501 -0.00000000000E+00 -0.00000000000E+00 -0.24220355329E+03  0.24220355329E+03  0.00000000000E+00 0.  1.
         25    2    1    2    0    0 -0.83110440713E+02  0.11822708501E+03 -0.69997831012E+02  0.20355038763E+03  0.12509226585E+03 0.  0.
          5    1    3    3  502    0  0.40371320838E+01  0.15825969161E+02  0.31027248017E+02  0.35311786344E+02  0.41800000000E+01 0.  1.
         -5    1    3    3    0  502 -0.87147572796E+02  0.10240111584E+03 -0.10102507903E+03  0.16823860129E+03  0.41800000000E+01 0.  1.
        -11    1    1    2    0    0  0.84858999174E+02 -0.78078426122E+02 -0.57715495360E+02  0.12895103246E+03  0.00000000000E+00 0.  1.
         11    1    1    2    0    0 -0.17485584617E+01 -0.40148658883E+02  0.21281552801E+02  0.45473912922E+02  0.00000000000E+00 0. -1.
</event>
<event>
 7    1  0.2648915E-009  0.1060156E+03  0.7561462E-02  0.1268131E+00
          2   -1    0    0  501    0  0.00000000000E+00  0.00000000000E+00  0.13898269350E+03  0.13898269350E+03  0.00000000000E+00 0. -1.
         -2   -1    0    0    0  501 -0.00000000000E+00 -0.00000000000E+00 -0.14905835490E+03  0.14905835490E+03  0.00000000000E+00 0.  1.
         25    2    1    2    0    0  0.61901638069E+02  0.59307748435E+02  0.30703993757E+02  0.15472402346E+03  0.12509023296E+03 0.  0.
          5    1    3    3  502    0  0.13431565176E+02  0.42710535158E+02 -0.44739926636E+02  0.63432879424E+02  0.41800000000E+01 0. -1.
         -5    1    3    3    0  502  0.48470072893E+02  0.16597213277E+02  0.75443920393E+02  0.91291144035E+02  0.41800000000E+01 0. -1.
        -11    1    1    2    0    0 -0.99335952524E+01 -0.62794792186E+02  0.52708315031E+01  0.63793760706E+02  0.00000000000E+00 0. -1.
         11    1    1    2    0    0 -0.51968042817E+02  0.34870437512E+01 -0.46050486665E+02  0.69523264239E+02  0.00000000000E+00 0.  1.
</event>
<event>
 7    1  0.2648915E-009  0.1965801E+03  0.7561462E-02  0.1152657E+00
          2   -1    0    0  501    0  0.00000000000E+00  0.00000000000E+00  0.57579131015E+02  0.57579131015E+02  0.00000000000E+00 0.  1.
         -2   -1    0    0    0  501 -0.00000000000E+00 -0.00000000000E+00 -0.81509842687E+03  0.81509842687E+03  0.00000000000E+00 0. -1.
         25    2    1    2    0    0 -0.44462180641E+02  0.17777776626E+03 -0.31762372383E+03  0.38744729003E+03  0.12509497564E+03 0.  0.
          5    1    3    3  502    0 -0.13641909181E+02 -0.11231471994E+02 -0.80993409467E+02  0.83003930186E+02  0.41800000000E+01 0. -1.
         -5    1    3    3    0  502 -0.30820271460E+02  0.18900923826E+03 -0.23663031436E+03  0.30444335985E+03  0.41800000000E+01 0. -1.
        -11    1    1    2    0    0  0.26338794332E+02 -0.12168929698E+03 -0.38518784336E+03  0.40481068632E+03  0.00000000000E+00 0. -1.
         11    1    1    2    0    0  0.18123386309E+02 -0.56088469288E+02 -0.54707728673E+02  0.80419581539E+02  0.00000000000E+00 0.  1.
</event>
<event>
 7    1  0.2648915E-009  0.1252478E+03  0.7561462E-02  0.1234682E+00
         -2   -1    0    0    0  501 -0.00000000000E+00  0.00000000000E+00  0.30960711708E+02  0.30960711708E+02  0.00000000000E+00 0.  1.
          2   -1    0    0  501    0  0.00000000000E+00 -0.00000000000E+00 -0.75484413217E+03  0.75484413217E+03  0.00000000000E+00 0. -1.
         25    2    1    2    0    0 -0.61134068324E+02 -0.48633544196E+02 -0.19905014154E+03  0.24773364853E+03  0.12509358830E+03 0.  0.
          5    1    3    3  502    0 -0.83899144468E+01  0.33179511854E+02 -0.11162798430E+03  0.11683128841E+03  0.41800000000E+01 0.  1.
         -5    1    3    3    0  502 -0.52744153877E+02 -0.81813056050E+02 -0.87422157240E+02  0.13090236012E+03  0.41800000000E+01 0.  1.
        -11    1    1    2    0    0  0.18719339485E+02 -0.26418693658E+02 -0.13769648254E+03  0.14145204965E+03  0.00000000000E+00 0.  1.
         11    1    1    2    0    0  0.42414728839E+02  0.75052237854E+02 -0.38713679638E+03  0.39661914570E+03  0.00000000000E+00 0. -1.
</event>
<event>
 7    1  0.2648915E-009  0.1174028E+03  0.7561462E-02  0.1247444E+00
          2   -1    0    0  501    0  0.00000000000E+00  0.00000000000E+00  0.10457618348E+04  0.10457618348E+04  0.00000000000E+00 0. -1.
         -2   -1    0    0    0  501 -0.00000000000E+00 -0.00000000000E+00 -0.17196122616E+02  0.17196122616E+02  0.00000000000E+00 0.  1.
         25    2    1    2    0    0  0.47515638030E+02 -0.47427310933E+02  0.77504282432E+03  0.78794031158E+03  0.12510583281E+03 0.  0.
          5    1    3    3  502    0 -0.33997360742E+02  0.74951727953E+01  0.10466087926E+03  0.11037830493E+03  0.41800000000E+01 0. -1.
         -5    1    3    3    0  502  0.81512998772E+02 -0.54922483728E+02  0.67038194506E+03  0.67756200665E+03  0.41800000000E+01 0. -1.
        -11    1    1    2    0    0 -0.28353218061E+01  0.55828217285E+02  0.96248940256E+02  0.11130448057E+03  0.00000000000E+00 0.  1.
         11    1    1    2    0    0 -0.44680316224E+02 -0.84009063521E+01  0.15727394764E+03  0.16371316530E+03  0.00000000000E+00 0. -1.
</event>
<event>
 7    1  0.2648915E-009  0.1069072E+03  0.7561462E-02  0.1266407E+00
         -3   -1    0    0    0  501 -0.00000000000E+00  0.00000000000E+00  0.19338673683E+03  0.19338673683E+03  0.00000000000E+00 0.  1.
          3   -1    0    0  501    0  0.00000000000E+00 -0.00000000000E+00 -0.69054823619E+02  0.69054823619E+02  0.00000000000E+00 0. -1.
         25    2    1    2    0    0  0.13242020913E+02 -0.36810980414E+02  0.68513743784E+02  0.14789337344E+03  0.12509163611E+03 0.  0.
          5    1    3    3  502    0  0.25133469562E+02  0.33683263856E+02  0.63294022726E+02  0.76091124772E+02  0.41800000000E+01 0. -1.
         -5    1    3    3    0  502 -0.11891448649E+02 -0.70494244270E+02  0.52197210573E+01  0.71802248670E+02  0.41800000000E+01 0. -1.
        -11    1    1    2    0    0 -0.16316404741E+02 -0.29432834906E+02  0.16925311092E+02  0.37669390622E+02  0.00000000000E+00 0.  1.
         11    1    1    2    0    0  0.30743838278E+01  0.66243815320E+02  0.38892858335E+02  0.76878796385E+02  0.00000000000E+00 0. -1.
</event>
<event>
 7    1  0.2648915E-009  0.1089381E+03  0.7561462E-02  0.1262549E+00
         -2   -1    0    0    0  501 -0.00000000000E+00  0.00000000000E+00  0.10834166667E+03  0.10834166667E+03  0.00000000000E+00 0.  1.
          2   -1    0    0  501    0  0.00000000000E+00 -0.00000000000E+00 -0.11467329370E+03  0.11467329370E+03  0.00000000000E+00 0. -1.
         25    2    1    2    0    0 -0.34657435153E+02 -0.54749719086E+02 -0.72280051726E+01  0.14106134586E+03  0.12508952668E+03 0.  0.
          5    1    3    3  502    0  0.60737460247E+01 -0.85947306424E+02 -0.18829369588E+02  0.88294096243E+02  0.41800000000E+01 0.  1.
         -5    1    3    3    0  502 -0.40731181177E+02  0.31197587337E+02  0.11601364415E+02  0.52767249616E+02  0.41800000000E+01 0.  1.
        -11    1    1    2    0    0  0.41267740853E+02  0.22076210540E+02  0.89723098503E+01  0.47653833539E+02  0.00000000000E+00 0.  1.
         11    1    1    2    0    0 -0.66103057000E+01  0.32673508546E+02 -0.80759317096E+01  0.34299780978E+02  0.00000000000E+00 0. -1.
</event>
<event>
 7    1  0.2648915E-009  0.2356953E+03  0.7561462E-02  0.1122694E+00
         -1   -1    0    0    0  501 -0.00000000000E+00  0.00000000000E+00  0.40583086806E+03  0.40583086806E+03  0.00000000000E+00 0.  1.
          1   -1    0    0  501    0  0.00000000000E+00 -0.00000000000E+00 -0.16595088522E+03  0.16595088522E+03  0.00000000000E+00 0. -1.
         25    2    1    2    0    0  0.19492700336E+03  0.11429143587E+03  0.51217277708E+02  0.26330767931E+03  0.12509458620E+03 0.  0.
          5    1    3    3  502    0  0.20365039573E+02  0.77469588126E+00  0.50956674798E+02  0.55039895503E+02  0.41800000000E+01 0. -1.
         -5    1    3    3    0  502  0.17456196378E+03  0.11351673999E+03  0.26060291028E+00  0.20826778381E+03  0.41800000000E+01 0. -1.
        -11    1    1    2    0    0 -0.43236231623E+02 -0.73442585959E+02  0.49202166432E+02  0.98407511598E+02  0.00000000000E+00 0. -1.
         11    1    1    2    0    0 -0.15169077173E+03 -0.40848849914E+02  0.13946053870E+03  0.21006656237E+03  0.00000000000E+00 0.  1.
</event>
<event>
 7    1  0.2648915E-009  0.1082744E+03  0.7561462E-02  0.1263799E+00
          2   -1    0    0  501    0  0.00000000000E+00  0.00000000000E+00  0.16568951276E+03  0.16568951276E+03  0.00000000000E+00 0. -1.
         -2   -1    0    0    0  501 -0.00000000000E+00 -0.00000000000E+00 -0.10894382093E+03  0.10894382093E+03  0.00000000000E+00 0.  1.
         25    2    1    2    0    0  0.23203853208E+02  0.73853497499E+02  0.18460354051E+02  0.14826655667E+03  0.12509767887E+03 0.  0.
          5    1    3    3  502    0 -0.14110276418E+02  0.62819035614E+02  0.62168920849E+02  0.89597869705E+02  0.41800000000E+01 0.  1.
         -5    1    3    3    0  502  0.37314129627E+02  0.11034461885E+02 -0.43708566797E+02  0.58668686967E+02  0.41800000000E+01 0.  1.
        -11    1    1    2    0    0 -0.53414341412E+02 -0.35780977970E+02 -0.32904987423E+00  0.64292134253E+02  0.00000000000E+00 0.  1.
         11    1    1    2    0    0  0.30210488203E+02 -0.38072519529E+02  0.38614387655E+02  0.62074642768E+02  0.00000000000E+00 0. -1.
</event>
<event>
 7    1  0.2648915E-009  0.1145081E+03  0.7561462E-02  0.1252442E+00
         -4   -1    0    0    0  501 -0.00000000000E+00  0.00000000000E+00  0.20757822235E+03  0.20757822235E+03  0.00000000000E+00 0.  1.
          4   -1    0    0  501    0  0.00000000000E+00 -0.00000000000E+00 -0.89695346075E+02  0.89695346075E+02  0.00000000000E+00 0. -1.
         25    2    1    2    0    0  0.22386517502E+02 -0.76624560393E+02  0.61851494442E+02  0.16076668000E+03  0.12509132109E+03 0.  0.
          5    1    3    3  502    0  0.62298581654E+02 -0.80400317085E+02  0.22128851990E+02  0.10417525020E+03  0.41800000000E+01 0.  1.
         -5    1    3    3    0  502 -0.39912064153E+02  0.37757566915E+01  0.39722642452E+02  0.56591429801E+02  0.41800000000E+01 0.  1.
        -11    1    1    2    0    0  0.92764506462E+01  0.15240065059E+02 -0.24567130294E+02  0.30362081788E+02  0.00000000000E+00 0. -1.
         11    1    1    2    0    0 -0.31662968148E+02  0.61384495334E+02  0.80598512130E+02  0.10614480664E+03  0.00000000000E+00 0.  1.
</event>
<event>
 7    1  0.2940865E-009  0.1590946E+03  0.7561462E-02  0.1189723E+00
          2   -1    0    0  501    0  0.00000000000E+00  0.00000000000E+00  0.63826416397E+03  0.63826416397E+03  0.00000000000E+00 0. -1.
         -2   -1    0    0    0  501 -0.00000000000E+00 -0.00000000000E+00 -0.54184880070E+02  0.54184880070E+02  0.00000000000E+00 0.  1.
         25    2    1    2    0    0  0.16562576117E+02 -0.11810481811E+03  0.13615266629E+03  0.22001341532E+03  0.12508112325E+03 0.  0.
          5    1    3    3  502    0  0.60754105654E+02 -0.21358762923E+02  0.36185001943E+02  0.73987058821E+02  0.41800000000E+01 0.  1.
         -5    1    3    3    0  502 -0.44191529537E+02 -0.96746055185E+02  0.99967664343E+02  0.14602635649E+03  0.41800000000E+01 0.  1.
        -11    1    1    2    0    0 -0.52162592149E+02  0.73858284678E+02  0.31874582650E+03  0.33132293031E+03  0.00000000000E+00 0. -1.
         11    1    1    2    0    0  0.35600016032E+02  0.44246533430E+02  0.12918079111E+03  0.14111269842E+03  0.00000000000E+00 0.  1.
</event>
<event>
 7    1  0.2648915E-009  0.1553079E+03  0.7561462E-02  0.1194098E+00
          1   -1    0    0  501    0  0.00000000000E+00  0.00000000000E+00  0.11289838261E+03  0.11289838261E+03  0.00000000000E+00 0. -1.
         -1   -1    0    0    0  501 -0.00000000000E+00 -0.00000000000E+00 -0.22602348368E+03  0.22602348368E+03  0.00000000000E+00 0.  1.
         25    2    1    2    0    0  0.36689188726E+02 -0.10463286676E+03 -0.10014272260E+03  0.19486337068E+03  0.12509610293E+03 0.  0.
          5    1    3    3  502    0  0.80612745865E+02 -0.89481660891E+02 -0.72015534764E+02  0.14038907393E+03  0.41800000000E+01 0.  1.
         -5    1    3    3    0  502 -0.43923557139E+02 -0.15151205867E+02 -0.28127187831E+02  0.54474296749E+02  0.41800000000E+01 0.  1.
        -11    1    1    2    0    0 -0.63454478539E+02  0.44117794415E+02 -0.58497800226E+01  0.77505293736E+02  0.00000000000E+00 0.  1.
         11    1    1    2    0    0  0.26765289813E+02  0.60515072343E+02 -0.71325984471E+01  0.66553201877E+02  0.00000000000E+00 0. -1.
</event>
<event>
 7    1  0.2648915E-009  0.1787525E+03  0.7561462E-02  0.1169016E+00
          2   -1    0    0  501    0  0.00000000000E+00  0.00000000000E+00  0.41364600785E+03  0.41364600785E+03  0.00000000000E+00 0. -1.
         -2   -1    0    0    0  501 -0.00000000000E+00 -0.00000000000E+00 -0.95403615405E+02  0.95403615405E+02  0.00000000000E+00 0.  1.
         25    2    1    2    0    0  0.66409644178E+02 -0.15052721680E+03  0.20010023456E+03  0.28767529558E+03  0.12509311723E+03 0.  0.
          5    1    3    3  502    0 -0.19621328449E+02 -0.67749493768E+02  0.13314115951E+03  0.15072833573E+03  0.41800000000E+01 0.  1.
         -5    1    3    3    0  502  0.86030972627E+02 -0.82777723031E+02  0.66959075054E+02  0.13694695985E+03  0.41800000000E+01 0.  1.
        -11    1    1    2    0    0 -0.53525368451E+02  0.83862331195E+02  0.11684677906E+03  0.15346343355E+03  0.00000000000E+00 0. -1.
         11    1    1    2    0    0 -0.12884275727E+02  0.66664885604E+02  0.12953788201E+01  0.67910894118E+02  0.00000000000E+00 0.  1.
</event>
<event>
 7    1  0.2648915E-009  0.7197596E+02  0.7561462E-02  0.1353500E+00
         -1   -1    0    0    0  501 -0.00000000000E+00  0.00000000000E+00  0.16386340117E+03  0.16386340117E+03  0.00000000000E+00 0.  1.
          1   -1    0    0  501    0  0.00000000000E+00 -0.00000000000E+00 -0.10670130538E+03  0.10670130538E+03  0.00000000000E+00 0. -1.
         25    2    1    2    0    0  0.22994352825E+02 -0.12623583180E+02 -0.46243062542E+02  0.13591957578E+03  0.12509042782E+03 0.  0.
          5    1    3    3  502    0  0.60388262384E+02  0.10227470955E+02  0.12361269974E+02  0.62622813665E+02  0.41800000000E+01 0.  1.
         -5    1    3    3    0  502 -0.37393909559E+02 -0.22851054135E+02 -0.58604332516E+02  0.73296762117E+02  0.41800000000E+01 0.  1.
        -11    1    1    2    0    0 -0.18534126558E+02 -0.59278682540E+01  0.11202915260E+03  0.11370657193E+03  0.00000000000E+00 0.  1.
         11    1    1    2    0    0 -0.44602262671E+01  0.18551451434E+02 -0.86239942688E+01  0.20938558828E+02  0.00000000000E+00 0. -1.
</event>
<event>
 7    1  0.2648915E-009  0.1564458E+03  0.7561462E-02  0.1192769E+00
          2   -1    0    0  501    0  0.00000000000E+00  0.00000000000E+00  0.16381261711E+04  0.16381261711E+04  0.00000000000E+00 0. -1.
         -2   -1    0    0    0  501 -0.00000000000E+00 -0.00000000000E+00 -0.19224222440E+02  0.19224222440E+02  0.00000000000E+00 0.  1.
         25    2    1    2    0    0  0.12818145172E+03  0.34277235750E+02  0.10770280440E+04  0.10923562673E+04  0.12508954227E+03 0.  0.
          5    1    3    3  502    0 -0.11787325858E+01  0.49388856033E+02  0.22305250845E+03  0.22849626350E+03  0.41800000000E+01 0.  1.
         -5    1    3    3    0  502  0.12936018430E+03 -0.15111620283E+02  0.85397553558E+03  0.86386000377E+03  0.41800000000E+01 0.  1.
        -11    1    1    2    0    0 -0.10665066119E+03 -0.24886848413E+02  0.52441146722E+03  0.53572484141E+03  0.00000000000E+00 0. -1.
         11    1    1    2    0    0 -0.21530790530E+02 -0.93903873372E+01  0.17462437415E+02  0.29269284850E+02  0.00000000000E+00 0.  1.
</event>
<event>
 7    1  0.2648915E-009  0.1044246E+03  0.7561462E-02  0.1271258E+00
         -1   -1    0    0    0  501 -0.00000000000E+00  0.00000000000E+00  0.42108120023E+03  0.42108120023E+03  0.00000000000E+00 0.  1.
          1   -1    0    0  501    0  0.00000000000E+00 -0.00000000000E+00 -0.31959406620E+02  0.31959406620E+02  0.00000000000E+00 0. -1.
         25    2    1    2    0    0  0.30332533346E+02 -0.27068417201E+02  0.20572323939E+03  0.24417725370E+03  0.12509083984E+03 0.  0.
          5    1    3    3  502    0  0.75459997305E+02 -0.10878982464E+02  0.16227256439E+03  0.17933884411E+03  0.41800000000E+01 0. -1.
         -5    1    3    3    0  502 -0.45127463958E+02 -0.16189434737E+02  0.43450674995E+02  0.64838409589E+02  0.41800000000E+01 0. -1.
        -11    1    1    2    0    0 -0.54607790410E+02  0.24839190659E+02  0.66973398232E+02  0.89913470831E+02  0.00000000000E+00 0. -1.
         11    1    1    2    0    0  0.24275257064E+02  0.22292265424E+01  0.11642515600E+03  0.11894988232E+03  0.00000000000E+00 0.  1.
</event>
<event>
 7    1  0.2648915E-009  0.1039845E+03  0.7561462E-02  0.1272133E+00
         -2   -1    0    0    0  501 -0.00000000000E+00  0.00000000000E+00  0.76948644054E+02  0.76948644054E+02  0.00000000000E+00 0.  1.
          2   -1    0    0  501    0  0.00000000000E+00 -0.00000000000E+00 -0.22439572103E+03  0.22439572103E+03  0.00000000000E+00 0. -1.
         25    2    1    2    0    0  0.69951334140E+02 -0.16440343013E+02 -0.98288803310E+02  0.17455600070E+03  0.12508251075E+03 0.  0.
          5    1    3    3  502    0  0.89525410459E+02 -0.45544733985E+02 -0.96243933134E+02  0.13917431148E+03  0.41800000000E+01 0. -1.
         -5    1    3    3    0  502 -0.19574076319E+02  0.29104390972E+02 -0.20448701758E+01  0.35381689214E+02  0.41800000000E+01 0. -1.
        -11    1    1    2    0    0 -0.35606372711E+02  0.11494243407E+02 -0.74804614511E+02  0.83640072700E+02  0.00000000000E+00 0. -1.
         11    1    1    2    0    0 -0.34344961429E+02  0.49460996057E+01  0.25646340845E+02  0.43148291688E+02  0.00000000000E+00 0.  1.
</event>
<event>
 7    1  0.2648915E-009  0.1725731E+03  0.7561462E-02  0.1175191E+00
          2   -1    0    0  501    0  0.00000000000E+00  0.00000000000E+00  0.15479896115E+04  0.15479896115E+04  0.00000000000E+00 0. -1.
         -2   -1    0    0    0  501 -0.00000000000E+00 -0.00000000000E+00 -0.33331787025E+02  0.33331787025E+02  0.00000000000E+00 0.  1.
         25    2    1    2    0    0  0.92126436985E+02 -0.12519513284E+03  0.12176821255E+04  0.12339195837E+04  0.12508668430E+03 0.  0.
          5    1    3    3  502    0 -0.17687933622E+02 -0.48050298448E+02  0.16783787000E+03  0.17552412137E+03  0.41800000000E+01 0. -1.
         -5    1    3    3    0  502  0.10981437061E+03 -0.77144834394E+02  0.10498442555E+04  0.10583954623E+04  0.41800000000E+01 0. -1.
        -11    1    1    2    0    0 -0.53955900650E+02  0.10042468594E+03  0.12356764003E+03  0.16812292652E+03  0.00000000000E+00 0.  1.
         11    1    1    2    0    0 -0.38170536334E+02  0.24770446901E+02  0.17340805900E+03  0.17927888836E+03  0.00000000000E+00 0. -1.
</event>
<event>
 7    1  0.2648915E-009  0.1498442E+03  0.7561462E-02  0.1200665E+00
         -1   -1    0    0    0  501 -0.00000000000E+00  0.00000000000E+00  0.98166805178E+02  0.98166805178E+02  0.00000000000E+00 0.  1.
          1   -1    0    0  501    0  0.00000000000E+00 -0.00000000000E+00 -0.27748327147E+03  0.27748327147E+03  0.00000000000E+00 0. -1.
         25    2    1    2    0    0 -0.76789556098E+02 -0.95298068027E+02 -0.11472840054E+03  0.20925828550E+03  0.12509223183E+03 0.  0.
          5    1    3    3  502    0 -0.63534198070E+02 -0.12583819236E+03 -0.98229460261E+02  0.17186722853E+03  0.41800000000E+01 0. -1.
         -5    1    3    3    0  502 -0.13255358027E+02  0.30540124334E+02 -0.16498940281E+02  0.37391056968E+02  0.41800000000E+01 0. -1.
        -11    1    1    2    0    0  0.66113034566E+02  0.93129265606E+02 -0.85596732714E+02  0.14272629086E+03  0.00000000000E+00 0. -1.
         11    1    1    2    0    0  0.10676521532E+02  0.21688024214E+01  0.21008666965E+02  0.23665500282E+02  0.00000000000E+00 0.  1.
</event>
<event>
 7    1  0.2648915E-009  0.1727009E+03  0.7561462E-02  0.1175060E+00
         -2   -1    0    0    0  501 -0.00000000000E+00  0.00000000000E+00  0.43189428255E+02  0.43189428255E+02  0.00000000000E+00 0.  1.
          2   -1    0    0  501    0  0.00000000000E+00 -0.00000000000E+00 -0.87398612721E+03  0.87398612721E+03  0.00000000000E+00 0. -1.
         25    2    1    2    0    0 -0.30153467737E+02 -0.13274209168E+03 -0.23459539223E+03  0.29868242429E+03  0.12508596246E+03 0.  0.
          5    1    3    3  502    0 -0.75199782842E+02 -0.64688012622E+02 -0.97962382643E+02  0.13947633179E+03  0.41800000000E+01 0. -1.
         -5    1    3    3    0  502  0.45046315105E+02 -0.68054079058E+02 -0.13663300959E+03  0.15920609250E+03  0.41800000000E+01 0. -1.
        -11    1    1    2    0    0  0.24653689372E+02 -0.61420351126E+01 -0.10216816989E+03  0.10527993130E+03  0.00000000000E+00 0. -1.
         11    1    1    2    0    0  0.54997783649E+01  0.13888412679E+03 -0.49403313684E+03  0.51321319988E+03  0.00000000000E+00 0.  1.
</event>
<event>
 7    1  0.2648915E-009  0.8179653E+02  0.7561462E-02  0.1324029E+00
         -1   -1    0    0    0  501 -0.00000000000E+00  0.00000000000E+00  0.53224080392E+02  0.53224080392E+02  0.00000000000E+00 0.  1.
          1   -1    0    0  501    0  0.00000000000E+00 -0.00000000000E+00 -0.25000274140E+03  0.25000274140E+03  0.00000000000E+00 0. -1.
         25    2    1    2    0    0  0.21972674667E+02 -0.23760938819E+02 -0.10727282590E+03  0.16793602031E+03  0.12509063552E+03 0.  0.
          5    1    3    3  502    0 -0.15425396924E+02 -0.33181101217E+02  0.14917491633E+02  0.39735781165E+02  0.41800000000E+01 0.  1.
         -5    1    3    3    0  502  0.37398071591E+02  0.94201623982E+01 -0.12219031753E+03  0.12820023915E+03  0.41800000000E+01 0.  1.
        -11    1    1    2    0    0 -0.51649083790E+02  0.26713963928E+02 -0.87940562399E+02  0.10542678142E+03  0.00000000000E+00 0. -1.
         11    1    1    2    0    0  0.29676409123E+02 -0.29530251089E+01 -0.15652727099E+01  0.29864020064E+02  0.00000000000E+00 0.  1.
</event>
<event>
 7    1  0.2648915E-009  0.1917987E+03  0.7561462E-02  0.1156849E+00
          2   -1    0    0  501    0  0.00000000000E+00  0.00000000000E+00  0.86370295552E+03  0.86370295552E+03  0.00000000000E+00 0. -1.
         -2   -1    0    0    0  501 -0.00000000000E+00 -0.00000000000E+00 -0.48551917257E+02  0.48551917257E+02  0.00000000000E+00 0.  1.
         25    2    1    2    0    0  0.17036196912E+03  0.13611895532E+02  0.38105073533E+03  0.43595756509E+03  0.12510336304E+03 0.  0.
          5    1    3    3  502    0  0.15502848270E+03  0.57151394153E+02  0.30465757714E+03  0.34660326601E+03  0.41800000000E+01 0. -1.
         -5    1    3    3    0  502  0.15333486419E+02 -0.43539498621E+02  0.76393158193E+02  0.89354299083E+02  0.41800000000E+01 0. -1.
        -11    1    1    2    0    0 -0.10126443420E+03 -0.17479584336E+02  0.36222734819E+03  0.37652180983E+03  0.00000000000E+00 0. -1.
         11    1    1    2    0    0 -0.69097534921E+02  0.38676888039E+01  0.71872954747E+02  0.99775497859E+02  0.00000000000E+00 0.  1.
</event>
<event>
 7    1  0.2648915E-009  0.1632311E+03  0.7561462E-02  0.1185096E+00
         -1   -1    0    0    0  501 -0.00000000000E+00  0.00000000000E+00  0.43459941447E+02  0.43459941447E+02  0.00000000000E+00 0.  1.
          1   -1    0    0  501    0  0.00000000000E+00 -0.00000000000E+00 -0.62689020534E+03  0.62689020534E+03  0.00000000000E+00 0. -1.
         25    2    1    2    0    0 -0.11511090282E+03  0.46040920003E+02 -0.29598002168E+03  0.34441721448E+03  0.12509499643E+03 0.  0.
          5    1    3    3  502    0 -0.21897262726E+01  0.59069790641E+02 -0.13368810887E+03  0.14623275255E+03  0.41800000000E+01 0.  1.
         -5    1    3    3    0  502 -0.11292117655E+03 -0.13028870638E+02 -0.16229191281E+03  0.19818446192E+03  0.41800000000E+01 0.  1.
        -11    1    1    2    0    0  0.53430614975E+02 -0.69327138822E+02 -0.17173191804E+03  0.19275096489E+03  0.00000000000E+00 0.  1.
         11    1    1    2    0    0  0.61680287845E+02  0.23286218819E+02 -0.11571832418E+03  0.13318196742E+03  0.00000000000E+00 0. -1.
</event>
<event>
 7    1  0.2648915E-009  0.1389341E+03  0.7561462E-02  0.1214770E+00
          2   -1    0    0  501    0  0.00000000000E+00  0.00000000000E+00  0.52885696765E+03  0.52885696765E+03  0.00000000000E+00 0. -1.
         -2   -1    0    0    0  501 -0.00000000000E+00 -0.00000000000E+00 -0.38749668193E+02  0.38749668193E+02  0.00000000000E+00 0.  1.
         25    2    1    2    0    0 -0.43424537041E+02  0.82386162681E+02  0.25296335821E+03  0.29716904076E+03  0.12508320419E+03 0.  0.
          5    1    3    3  502    0 -0.51615694898E+02  0.10848087077E+03  0.15967706899E+03  0.19986625039E+03  0.41800000000E+01 0.  1.
         -5    1    3    3    0  502  0.81911578570E+01 -0.26094708093E+02  0.93286289216E+02  0.97302790367E+02  0.41800000000E+01 0.  1.
        -11    1    1    2    0    0  0.59936955726E+02 -0.16637983513E+02  0.11245524453E+03  0.12851242423E+03  0.00000000000E+00 0.  1.
         11    1    1    2    0    0 -0.16512418685E+02 -0.65748179168E+02  0.12468869671E+03  0.14192517086E+03  0.00000000000E+00 0. -1.
</event>
<event>
 7    1  0.2648915E-009  0.1060812E+03  0.7561462E-02  0.1268004E+00
          1   -1    0    0  501    0  0.00000000000E+00  0.00000000000E+00  0.14144937637E+03  0.14144937637E+03  0.00000000000E+00 0. -1.
         -1   -1    0    0    0  501 -0.00000000000E+00 -0.00000000000E+00 -0.11359677546E+03  0.11359677546E+03  0.00000000000E+00 0.  1.
         25    2    1    2    0    0  0.27342312704E+02 -0.44658339714E+02  0.57549765002E+02  0.14731358241E+03  0.12508935502E+03 0.  0.
          5    1    3    3  502    0  0.75674585878E+02 -0.42780419331E+02  0.35507251509E+02  0.93994917606E+02  0.41800000000E+01 0. -1.
         -5    1    3    3    0  502 -0.48332273175E+02 -0.18779203837E+01  0.22042513492E+02  0.53318664802E+02  0.41800000000E+01 0. -1.
        -11    1    1    2    0    0 -0.20197230795E+02  0.58017839285E+02 -0.52192966386E+02  0.80610815325E+02  0.00000000000E+00 0.  1.
         11    1    1    2    0    0 -0.71450819082E+01 -0.13359499571E+02  0.22495802294E+02  0.27121754093E+02  0.00000000000E+00 0. -1.
</event>
<event>
 7    1  0.2648915E-009  0.1478161E+03  0.7561462E-02  0.1203183E+00
         -1   -1    0    0    0  501 -0.00000000000E+00  0.00000000000E+00  0.11862954739E+02  0.11862954739E+02  0.00000000000E+00 0.  1.
          1   -1    0    0  501    0  0.00000000000E+00 -0.00000000000E+00 -0.21005977858E+04  0.21005977858E+04  0.00000000000E+00 0. -1.
         25    2    1    2    0    0 -0.25138987483E+02 -0.98011229453E+02 -0.14894574335E+04  0.14981216643E+04  0.12508758962E+03 0.  0.
          5    1    3    3  502    0  0.26843050526E+02 -0.10449031212E+03 -0.10485247208E+04  0.10540684689E+04  0.41800000000E+01 0. -1.
         -5    1    3    3    0  502 -0.51982038009E+02  0.64790826717E+01 -0.44093271272E+03  0.44405319539E+03  0.41800000000E+01 0. -1.
        -11    1    1    2    0    0 -0.20767224376E+01  0.10656793424E+03 -0.46374932442E+03  0.47584080667E+03  0.00000000000E+00 0. -1.
         11    1    1    2    0    0  0.27215709921E+02 -0.85567047909E+01 -0.13552807312E+03  0.13849826955E+03  0.00000000000E+00 0.  1.
</event>
<event>
 7    1  0.2648915E-009  0.1152180E+03  0.7561462E-02  0.1251201E+00
         -1   -1    0    0    0  501 -0.00000000000E+00  0.00000000000E+00  0.25080135163E+03  0.25080135163E+03  0.00000000000E+00 0.  1.
          1   -1    0    0  501    0  0.00000000000E+00 -0.00000000000E+00 -0.16398995889E+03  0.16398995889E+03  0.00000000000E+00 0. -1.
         25    2    1    2    0    0 -0.33047578102E+02  0.10777967144E+03  0.17714408017E+03  0.24441072202E+03  0.12509186986E+03 0.  0.
          5    1    3    3  502    0 -0.21723123861E+02  0.22608576128E+02 -0.14160132158E+02  0.34655786928E+02  0.41800000000E+01 0. -1.
         -5    1    3    3    0  502 -0.11324454241E+02  0.85171095316E+02  0.19130421233E+03  0.20975493509E+03  0.41800000000E+01 0. -1.
        -11    1    1    2    0    0  0.21844488696E+02 -0.65647630033E+02 -0.10380632074E+03  0.12474993083E+03  0.00000000000E+00 0. -1.
         11    1    1    2    0    0  0.11203089407E+02 -0.42132041411E+02  0.13473633313E+02  0.45630657680E+02  0.00000000000E+00 0.  1.
</event>
<event>
 7    1  0.2648915E-009  0.1153656E+03  0.7561462E-02  0.1250944E+00
         -2   -1    0    0    0  501 -0.00000000000E+00  0.00000000000E+00  0.25510908684E+02  0.25510908684E+02  0.00000000000E+00 0.  1.
          2   -1    0    0  501    0  0.00000000000E+00 -0.00000000000E+00 -0.89457415023E+03  0.89457415023E+03  0.00000000000E+00 0. -1.
         25    2    1    2    0    0  0.10577295628E+01  0.87137485800E+02 -0.64193092683E+03  0.65978624243E+03  0.12509400725E+03 0.  0.
          5    1    3    3  502    0  0.23737794133E+02  0.72263530062E+02 -0.61998586282E+03  0.62464825554E+03  0.41800000000E+01 0.  1.
         -5    1    3    3    0  502 -0.22680064571E+02  0.14873955737E+02 -0.21945064009E+02  0.35137986888E+02  0.41800000000E+01 0.  1.
        -11    1    1    2    0    0 -0.46711416956E+02 -0.40116553103E+02 -0.11310559171E+03  0.12877953713E+03  0.00000000000E+00 0. -1.
         11    1    1    2    0    0  0.45653687393E+02 -0.47020932696E+02 -0.11402672300E+03  0.13151927936E+03  0.00000000000E+00 0.  1.
</event>
<event>
 7    1  0.2648915E-009  0.2580716E+03  0.7561462E-02  0.1108307E+00
          2   -1    0    0  501    0  0.00000000000E+00  0.00000000000E+00  0.89279590061E+02  0.89279590061E+02  0.00000000000E+00 0. -1.
         -2   -1    0    0    0  501 -0.00000000000E+00 -0.00000000000E+00 -0.84964797421E+03  0.84964797421E+03  0.00000000000E+00 0.  1.
         25    2    1    2    0    0  0.18830124950E+03  0.14070623584E+03 -0.54588443093E+03  0.60736552780E+03  0.12508983593E+03 0.  0.
          5    1    3    3  502    0  0.16964349918E+03  0.16400750159E+03 -0.49001795851E+03  0.54388643066E+03  0.41800000000E+01 0.  1.
         -5    1    3    3    0  502  0.18657750319E+02 -0.23301265750E+02 -0.55866472420E+02  0.63479097136E+02  0.41800000000E+01 0.  1.
        -11    1    1    2    0    0 -0.28741736515E+02 -0.69631687054E+02 -0.88364683068E+02  0.11611621968E+03  0.00000000000E+00 0.  1.
         11    1    1    2    0    0 -0.15955951299E+03 -0.71074548788E+02 -0.12611927015E+03  0.21544581679E+03  0.00000000000E+00 0. -1.
</event>
<event>
 7    1  0.2648915E-009  0.1134763E+03  0.7561462E-02  0.1254264E+00
         -2   -1    0    0    0  501 -0.00000000000E+00  0.00000000000E+00  0.35146177471E+02  0.35146177471E+02  0.00000000000E+00 0.  1.
          2   -1    0    0  501    0  0.00000000000E+00 -0.00000000000E+00 -0.62336221074E+03  0.62336221074E+03  0.00000000000E+00 0. -1.
         25    2    1    2    0    0  0.62000120367E+02 -0.30002510350E+02 -0.48205313567E+03  0.50275892858E+03  0.12508856504E+03 0.  0.
          5    1    3    3  502    0  0.38958551065E+02 -0.62679223491E+02 -0.13967404163E+03  0.15802773195E+03  0.41800000000E+01 0. -1.
         -5    1    3    3    0  502  0.23041569302E+02  0.32676713141E+02 -0.34237909404E+03  0.34473119663E+03  0.41800000000E+01 0. -1.
        -11    1    1    2    0    0 -0.53289436929E+02 -0.23776360103E+02 -0.65796755444E+02  0.87944825970E+02  0.00000000000E+00 0. -1.
         11    1    1    2    0    0 -0.87106834385E+01  0.53778870454E+02 -0.40366142152E+02  0.67804633658E+02  0.00000000000E+00 0.  1.
</event>
<event>
 7    1  0.2648915E-009  0.9773458E+02  0.7561462E-02  0.1285133E+00
         -2   -1    0    0    0  501 -0.00000000000E+00  0.00000000000E+00  0.28809832853E+02  0.28809832853E+02  0.00000000000E+00 0.  1.
          2   -1    0    0  501    0  0.00000000000E+00 -0.00000000000E+00 -0.49624180365E+03  0.49624180365E+03  0.00000000000E+00 0. -1.
         25    2    1    2    0    0 -0.79614632128E+01 -0.30874733785E+01 -0.37821251339E+03  0.39845254561E+03  0.12508720332E+03 0.  0.
          5    1    3    3  502    0 -0.34298115280E+02  0.51270370131E+02 -0.23434953285E+03  0.24236787641E+03  0.41800000000E+01 0.  1.
         -5    1    3    3    0  502  0.26336652067E+02 -0.54357843509E+02 -0.14386298054E+03  0.15608466921E+03  0.41800000000E+01 0.  1.
        -11    1    1    2    0    0  0.38454712113E+02 -0.10275280848E+02 -0.83928188905E+02  0.92888573964E+02  0.00000000000E+00 0. -1.
         11    1    1    2    0    0 -0.30493248900E+02  0.13362754226E+02 -0.52912685039E+01  0.33710516925E+02  0.00000000000E+00 0.  1.
</event>
<event>
 7    1  0.2648915E-009  0.1226702E+03  0.7561462E-02  0.1238756E+00
         -2   -1    0    0    0  501 -0.00000000000E+00  0.00000000000E+00  0.13023646942E+02  0.13023646942E+02  0.00000000000E+00 0.  1.
          2   -1    0    0  501    0  0.00000000000E+00 -0.00000000000E+00 -0.12676073880E+04  0.12676073880E+04  0.00000000000E+00 0. -1.
         25    2    1    2    0    0  0.51340377685E+02 -0.32153947181E+02 -0.87390143992E+03  0.88488444466E+03  0.12508814097E+03 0.  0.
          5    1    3    3  502    0 -0.33394587214E+02 -0.39945266799E+02 -0.27033420535E+03  0.27533412026E+03  0.41800000000E+01 0.  1.
         -5    1    3    3    0  502  0.84734964900E+02  0.77913196183E+01 -0.60356723456E+03  0.60955032440E+03  0.41800000000E+01 0.  1.
        -11    1    1    2    0    0  0.11751295322E+02 -0.21885661472E+02 -0.99123609212E+02  0.10218886937E+03  0.00000000000E+00 0. -1.
         11    1    1    2    0    0 -0.63091673007E+02  0.54039608653E+02 -0.28155869193E+03  0.29355772092E+03  0.00000000000E+00 0.  1.
</event>
<event>
 7    1  0.2648915E-009  0.1652558E+03  0.7561462E-02  0.1182888E+00
          2   -1    0    0  501    0  0.00000000000E+00  0.00000000000E+00  0.13382837020E+04  0.13382837020E+04  0.00000000000E+00 0. -1.
         -2   -1    0    0    0  501 -0.00000000000E+00 -0.00000000000E+00 -0.30713875370E+02  0.30713875370E+02  0.00000000000E+00 0.  1.
         25    2    1    2    0    0  0.14135996996E+03 -0.89093652218E+01  0.10102987630E+04  0.10278188753E+04  0.12508409991E+03 0.  0.
          5    1    3    3  502    0  0.12951113204E+03  0.20521520505E+02  0.95467156081E+03  0.96364388004E+03  0.41800000000E+01 0. -1.
         -5    1    3    3    0  502  0.11848837922E+02 -0.29430885727E+02  0.55627202151E+02  0.64174995239E+02  0.41800000000E+01 0. -1.
        -11    1    1    2    0    0 -0.38475147202E+02 -0.38148417509E+02  0.10219044818E+03  0.11566558006E+03  0.00000000000E+00 0.  1.
         11    1    1    2    0    0 -0.10288482276E+03  0.47057782731E+02  0.19508061550E+03  0.22551312204E+03  0.00000000000E+00 0. -1.
</event>
<event>
 7    1  0.2648915E-009  0.8038981E+02  0.7561462E-02  0.1327949E+00
         -2   -1    0    0    0  501 -0.00000000000E+00  0.00000000000E+00  0.34050897283E+02  0.34050897283E+02  0.00000000000E+00 0.  1.
          2   -1    0    0  501    0  0.00000000000E+00 -0.00000000000E+00 -0.38316284114E+03  0.38316284114E+03  0.00000000000E+00 0. -1.
         25    2    1    2    0    0  0.34185687758E+02 -0.51053178667E+01 -0.21195629637E+03  0.24852906826E+03  0.12508597316E+03 0.  0.
          5    1    3    3  502    0  0.54383718854E+02  0.88503708818E+01 -0.26277058624E+02  0.61187205779E+02  0.41800000000E+01 0.  1.
         -5    1    3    3    0  502 -0.20198031096E+02 -0.13955688749E+02 -0.18567923775E+03  0.18734186248E+03  0.41800000000E+01 0.  1.
        -11    1    1    2    0    0 -0.53160915275E+02  0.19685361300E+02 -0.13275718305E+03  0.14435396085E+03  0.00000000000E+00 0. -1.
         11    1    1    2    0    0  0.18975227517E+02 -0.14580043434E+02 -0.43984644312E+01  0.24330709303E+02  0.00000000000E+00 0.  1.
</event>
<event>
 7    1  0.2648915E-009  0.1361220E+03  0.7561462E-02  0.1218644E+00
          2   -1    0    0  501    0  0.00000000000E+00  0.00000000000E+00  0.44692301223E+03  0.44692301223E+03  0.00000000000E+00 0. -1.
         -2   -1    0    0    0  501 -0.00000000000E+00 -0.00000000000E+00 -0.70282794265E+02  0.70282794265E+02  0.00000000000E+00 0.  1.
         25    2    1    2    0    0 -0.64876189423E+02 -0.92487648015E+02  0.31981995518E+03  0.36151879311E+03  0.12509256194E+03 0.  0.
          5    1    3    3  502    0 -0.90533532621E+02 -0.59553765436E+02  0.14121003780E+03  0.17804695640E+03  0.41800000000E+01 0.  1.
         -5    1    3    3    0  502  0.25657343198E+02 -0.32933882579E+02  0.17860991738E+03  0.18347183671E+03  0.41800000000E+01 0.  1.
        -11    1    1    2    0    0  0.10398366858E+02  0.54361936113E+02  0.68615060055E+02  0.88155388931E+02  0.00000000000E+00 0. -1.
         11    1    1    2    0    0  0.54477822565E+02  0.38125711902E+02 -0.11794797263E+02  0.67531624457E+02  0.00000000000E+00 0.  1.
</event>
<event>
 7    1  0.2648915E-009  0.1244353E+03  0.7561462E-02  0.1235954E+00
         -1   -1    0    0    0  501 -0.00000000000E+00  0.00000000000E+00  0.84856524034E+02  0.84856524034E+02  0.00000000000E+00 0.  1.
          1   -1    0    0  501    0  0.00000000000E+00 -0.00000000000E+00 -0.22329954862E+03  0.22329954862E+03  0.00000000000E+00 0. -1.
         25    2    1    2    0    0 -0.76527200027E+02  0.35234229646E+02 -0.80291980351E+02  0.17085620466E+03  0.12508867766E+03 0.  0.
          5    1    3    3  502    0 -0.33516808752E+02 -0.38265098153E+02 -0.67524500265E+02  0.84644106361E+02  0.41800000000E+01 0.  1.
         -5    1    3    3    0  502 -0.43010391275E+02  0.73499327799E+02 -0.12767480086E+02  0.86212098294E+02  0.41800000000E+01 0.  1.
        -11    1    1    2    0    0 -0.10021800019E+02 -0.23091667452E+02 -0.41189524752E+02  0.48272544274E+02  0.00000000000E+00 0.  1.
         11    1    1    2    0    0  0.86549000046E+02 -0.12142562194E+02 -0.16961519478E+02  0.89027323720E+02  0.00000000000E+00 0. -1.
</event>
<event>
 7    1  0.2648915E-009  0.7531291E+02  0.7561462E-02  0.1342905E+00
         -2   -1    0    0    0  501 -0.00000000000E+00  0.00000000000E+00  0.29271181243E+02  0.29271181243E+02  0.00000000000E+00 0.  1.
          2   -1    0    0  501    0  0.00000000000E+00 -0.00000000000E+00 -0.42099546366E+03  0.42099546366E+03  0.00000000000E+00 0. -1.
         25    2    1    2    0    0  0.67190707890E+01  0.21088883401E+02 -0.20620296369E+03  0.24219146666E+03  0.12508859808E+03 0.  0.
          5    1    3    3  502    0 -0.22389673779E+02  0.33412506500E+01 -0.20656301816E+03  0.20784180119E+03  0.41800000000E+01 0.  1.
         -5    1    3    3    0  502  0.29108744568E+02  0.17747632751E+02  0.36005447295E+00  0.34349665469E+02  0.41800000000E+01 0.  1.
        -11    1    1    2    0    0 -0.87067499678E+01  0.35541533070E+02 -0.58720886560E+02  0.69189237504E+02  0.00000000000E+00 0. -1.
         11    1    1    2    0    0  0.19876791788E+01 -0.56630416471E+02 -0.12680043217E+03  0.13888594074E+03  0.00000000000E+00 0.  1.
</event>
<event>
 7    1  0.2648915E-009  0.9126580E+02  0.7561462E-02  0.1299815E+00
          1   -1    0    0  501    0  0.00000000000E+00  0.00000000000E+00  0.51508016045E+03  0.51508016045E+03  0.00000000000E+00 0. -1.
         -1   -1    0    0    0  501 -0.00000000000E+00 -0.00000000000E+00 -0.28450092841E+02  0.28450092841E+02  0.00000000000E+00 0.  1.
         25    2    1    2    0    0 -0.61278057408E+02 -0.50384330756E+01  0.29073633563E+03  0.32242774846E+03  0.12510655456E+03 0.  0.
          5    1    3    3  502    0  0.48599620936E+01  0.12260923571E+02  0.23138729345E+03  0.23180056395E+03  0.41800000000E+01 0.  1.
         -5    1    3    3    0  502 -0.66138019502E+02 -0.17299356647E+02  0.59349042178E+02  0.90627184506E+02  0.41800000000E+01 0.  1.
        -11    1    1    2    0    0  0.22034585391E+02  0.41276439993E+02  0.11510835610E+03  0.12425458179E+03  0.00000000000E+00 0.  1.
         11    1    1    2    0    0  0.39243472018E+02 -0.36238006918E+02  0.80785375881E+02  0.96847923042E+02  0.00000000000E+00 0. -1.
</event>
<event>
 7    1  0.2648915E-009  0.1208602E+03  0.7561462E-02  0.1241685E+00
          1   -1    0    0  501    0  0.00000000000E+00  0.00000000000E+00  0.72168939922E+03  0.72168939922E+03  0.00000000000E+00 0. -1.
         -1   -1    0    0    0  501 -0.00000000000E+00 -0.00000000000E+00 -0.34285008080E+02  0.34285008080E+02  0.00000000000E+00 0.  1.
         25    2    1    2    0    0  0.59249405619E+02  0.37852333084E+01  0.58171772493E+03  0.59796978813E+03  0.12509011139E+03 0.  0.
          5    1    3    3  502    0  0.96853253217E+02  0.63423520505E+01  0.47167813855E+03  0.48157919066E+03  0.41800000000E+01 0.  1.
         -5    1    3    3    0  502 -0.37603847598E+02 -0.25571187420E+01  0.11003958638E+03  0.11639059747E+03  0.41800000000E+01 0.  1.
        -11    1    1    2    0    0  0.21258338958E+01 -0.36864687976E+02  0.76606760439E+01  0.37712204215E+02  0.00000000000E+00 0.  1.
         11    1    1    2    0    0 -0.61375239514E+02  0.33079454668E+02  0.98025990171E+02  0.12029241495E+03  0.00000000000E+00 0. -1.
</event>
<event>
 7    1  0.2648915E-009  0.1522117E+03  0.7561462E-02  0.1197781E+00
          2   -1    0    0  501    0  0.00000000000E+00  0.00000000000E+00  0.25245464654E+03  0.25245464654E+03  0.00000000000E+00 0. -1.
         -2   -1    0    0    0  501 -0.00000000000E+00 -0.00000000000E+00 -0.10328483182E+03  0.10328483182E+03  0.00000000000E+00 0.  1.
         25    2    1    2    0    0  0.27024000458E+02 -0.11560519591E+03  0.90888009899E+02  0.19494396082E+03  0.12509060553E+03 0.  0.
          5    1    3    3  502    0 -0.27283676353E+02 -0.93110019362E+02  0.14075643832E+02  0.98129867268E+02  0.41800000000E+01 0.  1.
         -5    1    3    3    0  502  0.54307676811E+02 -0.22495176552E+02  0.76812366067E+02  0.96814093548E+02  0.41800000000E+01 0.  1.
        -11    1    1    2    0    0  0.14765193411E+01 -0.14810523966E+02 -0.59268926969E+00  0.14895737984E+02  0.00000000000E+00 0.  1.
         11    1    1    2    0    0 -0.28500519799E+02  0.13041571988E+03  0.58874494093E+02  0.14589977956E+03  0.00000000000E+00 0. -1.
</event>
<event>
 7    1  0.2648915E-009  0.1355591E+03  0.7561462E-02  0.1219433E+00
          2   -1    0    0  501    0  0.00000000000E+00  0.00000000000E+00  0.12089522994E+04  0.12089522994E+04  0.00000000000E+00 0. -1.
         -2   -1    0    0    0  501 -0.00000000000E+00 -0.00000000000E+00 -0.24294339922E+02  0.24294339922E+02  0.00000000000E+00 0.  1.
         25    2    1    2    0    0  0.38978599599E+02 -0.12245831745E+03  0.75632636892E+03  0.77729806287E+03  0.12508929398E+03 0.  0.
          5    1    3    3  502    0  0.19334093911E+02 -0.22625223830E+02  0.50820019335E+03  0.50908802466E+03  0.41800000000E+01 0.  1.
         -5    1    3    3    0  502  0.19644505688E+02 -0.99833093622E+02  0.24812617558E+03  0.26821003820E+03  0.41800000000E+01 0.  1.
        -11    1    1    2    0    0 -0.41732800978E+02  0.43702603206E+02  0.88925313941E+02  0.10751397892E+03  0.00000000000E+00 0.  1.
         11    1    1    2    0    0  0.27542013786E+01  0.78755714246E+02  0.33940627659E+03  0.34843459751E+03  0.00000000000E+00 0. -1.
</event>
<event>
 7    1  0.2648915E-009  0.8926352E+02  0.7561462E-02  0.1304645E+00
         -2   -1    0    0    0  501 -0.00000000000E+00  0.00000000000E+00  0.54835027803E+02  0.54835027803E+02  0.00000000000E+00 0.  1.
          2   -1    0    0  501    0  0.00000000000E+00 -0.00000000000E+00 -0.44796474569E+03  0.44796474569E+03  0.00000000000E+00 0. -1.
         25    2    1    2    0    0  0.52129349889E+02  0.32370779561E+02 -0.36375652643E+03  0.38952725256E+03  0.12508930202E+03 0.  0.
          5    1    3    3  502    0  0.52786293612E+02 -0.24115181278E+02 -0.29383655569E+03  0.29954186455E+03  0.41800000000E+01 0. -1.
         -5    1    3    3    0  502 -0.65694372354E+00  0.56485960839E+02 -0.69919970742E+02  0.89985388011E+02  0.41800000000E+01 0. -1.
        -11    1    1    2    0    0 -0.31898282978E+02 -0.29152633713E+02  0.28577361321E+02  0.51807741597E+02  0.00000000000E+00 0.  1.
         11    1    1    2    0    0 -0.20231066910E+02 -0.32181458476E+01 -0.57950552775E+02  0.61464779329E+02  0.00000000000E+00 0. -1.
</event>
<event>
 7    1  0.2648915E-009  0.6868003E+02  0.7561462E-02  0.1364640E+00
          1   -1    0    0  501    0  0.00000000000E+00  0.00000000000E+00  0.37939288417E+02  0.37939288417E+02  0.00000000000E+00 0. -1.
         -1   -1    0    0    0  501 -0.00000000000E+00 -0.00000000000E+00 -0.43762236605E+03  0.43762236605E+03  0.00000000000E+00 0.  1.
         25    2    1    2    0    0  0.21232689481E+02  0.46824784303E+02 -0.30857877173E+03  0.33691497785E+03  0.12508979339E+03 0.  0.
          5    1    3    3  502    0  0.19458327773E+01  0.61003238750E+02 -0.55279766599E+02  0.82453055725E+02  0.41800000000E+01 0.  1.
         -5    1    3    3    0  502  0.19286856704E+02 -0.14178454446E+02 -0.25329900513E+03  0.25446192212E+03  0.41800000000E+01 0.  1.
        -11    1    1    2    0    0 -0.10232952707E+02 -0.30725552845E+02  0.11378474841E+02  0.34325538721E+02  0.00000000000E+00 0. -1.
         11    1    1    2    0    0 -0.10999736774E+02 -0.16099231458E+02 -0.10248278075E+03  0.10432113790E+03  0.00000000000E+00 0.  1.
</event>
<event>
 7    1  0.2648915E-009  0.6889621E+02  0.7561462E-02  0.1363887E+00
          2   -1    0    0  501    0  0.00000000000E+00  0.00000000000E+00  0.12868762652E+03  0.12868762652E+03  0.00000000000E+00 0. -1.
         -2   -1    0    0    0  501 -0.00000000000E+00 -0.00000000000E+00 -0.10552646070E+03  0.10552646070E+03  0.00000000000E+00 0.  1.
         25    2    1    2    0    0 -0.23722524745E+02 -0.28085262766E+02  0.35043954949E+02  0.13501061848E+03  0.12509295807E+03 0.  0.
          5    1    3    3  502    0 -0.82072627039E+00 -0.11653542794E+02  0.80451503319E+02  0.81402674634E+02  0.41800000000E+01 0. -1.
         -5    1    3    3    0  502 -0.22901798475E+02 -0.16431719972E+02 -0.45407548370E+02  0.53607943848E+02  0.41800000000E+01 0. -1.
        -11    1    1    2    0    0  0.40267933777E+02 -0.20769919277E+02  0.33158718697E+01  0.45430067617E+02  0.00000000000E+00 0.  1.
         11    1    1    2    0    0 -0.16545409032E+02  0.48855182043E+02 -0.15198660999E+02  0.53773401126E+02  0.00000000000E+00 0. -1.
</event>
<event>
 7    1  0.2648915E-009  0.9594727E+02  0.7561462E-02  0.1289057E+00
          2   -1    0    0  501    0  0.00000000000E+00  0.00000000000E+00  0.42022122654E+03  0.42022122654E+03  0.00000000000E+00 0. -1.
         -2   -1    0    0    0  501 -0.00000000000E+00 -0.00000000000E+00 -0.30897103375E+02  0.30897103375E+02  0.00000000000E+00 0.  1.
         25    2    1    2    0    0 -0.24820509753E+02  0.14049005439E+02  0.18681866895E+03  0.22662704817E+03  0.12508066052E+03 0.  0.
          5    1    3    3  502    0 -0.69137708981E+02 -0.16852058027E+02  0.12899399428E+03  0.14738024842E+03  0.41800000000E+01 0.  1.
         -5    1    3    3    0  502  0.44317199228E+02  0.30901063465E+02  0.57824674669E+02  0.79246799754E+02  0.41800000000E+01 0.  1.
        -11    1    1    2    0    0 -0.19133568315E+02  0.28230342671E+01  0.30809418790E+01  0.19584564376E+02  0.00000000000E+00 0.  1.
         11    1    1    2    0    0  0.43954078068E+02 -0.16872039706E+02  0.19942451233E+03  0.20490671737E+03  0.00000000000E+00 0. -1.
</event>
<event>
 7    1  0.2648915E-009  0.1428989E+03  0.7561462E-02  0.1209481E+00
          4   -1    0    0  501    0  0.00000000000E+00  0.00000000000E+00  0.63584322999E+02  0.63584322999E+02  0.00000000000E+00 0. -1.
         -4   -1    0    0    0  501 -0.00000000000E+00 -0.00000000000E+00 -0.44812486773E+03  0.44812486773E+03  0.00000000000E+00 0.  1.
         25    2    1    2    0    0  0.31982425976E+02 -0.82210525746E+02 -0.29124456352E+03  0.32901603044E+03  0.12508679543E+03 0.  0.
          5    1    3    3  502    0 -0.27204930873E+01  0.28097362959E+02 -0.11267774826E+03  0.11623515063E+03  0.41800000000E+01 0.  1.
         -5    1    3    3    0  502  0.34702919064E+02 -0.11030788871E+03 -0.17856681525E+03  0.21278087981E+03  0.41800000000E+01 0.  1.
        -11    1    1    2    0    0  0.40205145845E+02  0.14989274620E+02 -0.68756893201E+02  0.81047162003E+02  0.00000000000E+00 0. -1.
         11    1    1    2    0    0 -0.72187571821E+02  0.67221251126E+02 -0.24539088017E+02  0.10164599829E+03  0.00000000000E+00 0.  1.
</event>
<event>
 7    1  0.2648915E-009  0.1006264E+03  0.7561462E-02  0.1278984E+00
         -3   -1    0    0    0  501 -0.00000000000E+00  0.00000000000E+00  0.14729995689E+03  0.14729995689E+03  0.00000000000E+00 0.  1.
          3   -1    0    0  501    0  0.00000000000E+00 -0.00000000000E+00 -0.99776962692E+02  0.99776962692E+02  0.00000000000E+00 0. -1.
         25    2    1    2    0    0  0.12984955312E+02  0.53645366748E+02  0.32741386165E+02  0.14059226870E+03  0.12509097974E+03 0.  0.
          5    1    3    3  502    0  0.62834329737E+02  0.38110758679E+02 -0.82642914120E+01  0.74069925295E+02  0.41800000000E+01 0. -1.
         -5    1    3    3    0  502 -0.49849374425E+02  0.15534608069E+02  0.41005677577E+02  0.66522343404E+02  0.41800000000E+01 0. -1.
        -11    1    1    2    0    0  0.90289161361E+01 -0.52446484787E+02 -0.26676023583E+02  0.59529533237E+02  0.00000000000E+00 0. -1.
         11    1    1    2    0    0 -0.22013871448E+02 -0.11988819602E+01  0.41457631621E+02  0.46955117652E+02  0.00000000000E+00 0.  1.
</event>
<event>
 7    1  0.2648915E-009  0.1275735E+03  0.7561462E-02  0.1231101E+00
          3   -1    0    0  501    0  0.00000000000E+00  0.00000000000E+00  0.46941858842E+03  0.46941858842E+03  0.00000000000E+00 0. -1.
         -3   -1    0    0    0  501 -0.00000000000E+00 -0.00000000000E+00 -0.50309622652E+02  0.50309622652E+02  0.00000000000E+00 0.  1.
         25    2    1    2    0    0  0.78079054668E+02  0.48170676928E+02  0.24587150285E+03  0.29071949743E+03  0.12509307488E+03 0.  0.
          5    1    3    3  502    0  0.91508521157E+02  0.46101417384E+02  0.25429539373E+03  0.27419476618E+03  0.41800000000E+01 0. -1.
         -5    1    3    3    0  502 -0.13429466490E+02  0.20692595434E+01 -0.84238908845E+01  0.16524731250E+02  0.41800000000E+01 0. -1.
        -11    1    1    2    0    0 -0.27502252741E+02  0.32866300846E+02  0.17461063767E+02  0.46275872601E+02  0.00000000000E+00 0.  1.
         11    1    1    2    0    0 -0.50576801926E+02 -0.81036977774E+02  0.15577639915E+03  0.18273284103E+03  0.00000000000E+00 0. -1.
</event>
<event>
 7    1  0.3919540E-009  0.1027667E+03  0.7561462E-02  0.1274583E+00
         -2   -1    0    0    0  501 -0.00000000000E+00  0.00000000000E+00  0.16196838087E+02  0.16196838087E+02  0.00000000000E+00 0.  1.
          2   -1    0    0  501    0  0.00000000000E+00 -0.00000000000E+00 -0.83522645322E+03  0.83522645322E+03  0.00000000000E+00 0. -1.
         25    2    1    2    0    0  0.35450367884E+02 -0.19456923233E+02 -0.51750833623E+03  0.53394550656E+03  0.12509046914E+03 0.  0.
          5    1    3    3  502    0 -0.32153333297E+02  0.21174005015E+02 -0.74629842806E+02  0.84078898468E+02  0.41800000000E+01 0.  1.
         -5    1    3    3    0  502  0.67603701180E+02 -0.40630928248E+02 -0.44287849342E+03  0.44986660810E+03  0.41800000000E+01 0.  1.
        -11    1    1    2    0    0  0.18977138649E+02  0.26867463794E+02 -0.48766916665E+02  0.58823503492E+02  0.00000000000E+00 0.  1.
         11    1    1    2    0    0 -0.54427506532E+02 -0.74105405610E+01 -0.25275436224E+03  0.25865428125E+03  0.00000000000E+00 0. -1.
</event>
<event>
 7    1  0.2648915E-009  0.1205782E+03  0.7561462E-02  0.1242146E+00
         -1   -1    0    0    0  501 -0.00000000000E+00  0.00000000000E+00  0.10861530780E+03  0.10861530780E+03  0.00000000000E+00 0.  1.
          1   -1    0    0  501    0  0.00000000000E+00 -0.00000000000E+00 -0.21213389935E+03  0.21213389935E+03  0.00000000000E+00 0. -1.
         25    2    1    2    0    0  0.88423466128E+02  0.82241285260E+01  0.37636848609E+01  0.15345164895E+03  0.12508755969E+03 0.  0.
          5    1    3    3  502    0  0.35106275086E+02  0.64687494393E+02 -0.10252427741E+02  0.74427865453E+02  0.41800000000E+01 0. -1.
         -5    1    3    3    0  502  0.53317191042E+02 -0.56463365867E+02  0.14016112602E+02  0.79023783497E+02  0.41800000000E+01 0. -1.
        -11    1    1    2    0    0 -0.62570504114E+02 -0.11463882092E+02 -0.12184366999E+03  0.13744951252E+03  0.00000000000E+00 0. -1.
         11    1    1    2    0    0 -0.25852962013E+02  0.32397535663E+01  0.14561393572E+02  0.29848045678E+02  0.00000000000E+00 0.  1.
</event>
<event>
 7    1  0.2648915E-009  0.1160254E+03  0.7561462E-02  0.1249802E+00
          2   -1    0    0  501    0  0.00000000000E+00  0.00000000000E+00  0.22053496104E+03  0.22053496104E+03  0.00000000000E+00 0. -1.
         -2   -1    0    0    0  501 -0.00000000000E+00 -0.00000000000E+00 -0.79534695009E+02  0.79534695009E+02  0.00000000000E+00 0.  1.
         25    2    1    2    0    0 -0.56289829749E+02 -0.51645593959E+02  0.85225400729E+02  0.16954843342E+03  0.12508992781E+03 0.  0.
          5    1    3    3  502    0 -0.78880353044E+02 -0.69397087097E+02  0.33713340297E+02  0.11041796732E+03  0.41800000000E+01 0.  1.
         -5    1    3    3    0  502  0.22590523295E+02  0.17751493138E+02  0.51512060433E+02  0.59130466102E+02  0.41800000000E+01 0.  1.
        -11    1    1    2    0    0  0.40452858936E+02 -0.33984071918E+01  0.60709927944E+02  0.73032036248E+02  0.00000000000E+00 0.  1.
         11    1    1    2    0    0  0.15836970813E+02  0.55044001151E+02 -0.49350626397E+01  0.57489186379E+02  0.00000000000E+00 0. -1.
</event>
<event>
 7    1  0.2648915E-009  0.1657715E+03  0.7561462E-02  0.1182331E+00
          1   -1    0    0  501    0  0.00000000000E+00  0.00000000000E+00  0.38317045290E+02  0.38317045290E+02  0.00000000000E+00 0. -1.
         -1   -1    0    0    0  501 -0.00000000000E+00 -0.00000000000E+00 -0.80628746115E+03  0.80628746115E+03  0.00000000000E+00 0.  1.
         25    2    1    2    0    0 -0.11627896200E+03  0.69751954003E+02 -0.35733638785E+03  0.40214368089E+03  0.12507643226E+03 0.  0.
          5    1    3    3  502    0 -0.13111413682E+03  0.43145528736E+02 -0.33970110100E+03  0.36669710109E+03  0.41800000000E+01 0.  1.
         -5    1    3    3    0  502  0.14835174822E+02  0.26606425267E+02 -0.17635286848E+02  0.35446579803E+02  0.41800000000E+01 0.  1.
        -11    1    1    2    0    0  0.12889480543E+03 -0.47975122181E+02 -0.31796320360E+03  0.34643337319E+03  0.00000000000E+00 0. -1.
         11    1    1    2    0    0 -0.12615843431E+02 -0.21776831822E+02 -0.92670824407E+02  0.96027452356E+02  0.00000000000E+00 0.  1.
</event>
<event>
 7    1  0.2648915E-009  0.1595915E+03  0.7561462E-02  0.1189159E+00
          2   -1    0    0  501    0  0.00000000000E+00  0.00000000000E+00  0.39893013362E+03  0.39893013362E+03  0.00000000000E+00 0. -1.
         -2   -1    0    0    0  501 -0.00000000000E+00 -0.00000000000E+00 -0.77593127552E+02  0.77593127552E+02  0.00000000000E+00 0.  1.
         25    2    1    2    0    0 -0.83187551575E+02 -0.10686773692E+03  0.13254434363E+03  0.22706741043E+03  0.12510285337E+03 0.  0.
          5    1    3    3  502    0 -0.10111927672E+03 -0.99374554897E+02  0.63835198345E+02  0.15554039743E+03  0.41800000000E+01 0.  1.
         -5    1    3    3    0  502  0.17931725144E+02 -0.74931820195E+01  0.68709145285E+02  0.71527013003E+02  0.41800000000E+01 0.  1.
        -11    1    1    2    0    0  0.92314568108E+02  0.11341369424E+03  0.18802557286E+03  0.23819794620E+03  0.00000000000E+00 0. -1.
         11    1    1    2    0    0 -0.91270165335E+01 -0.65459573258E+01  0.76708958150E+00  0.11257904536E+02  0.00000000000E+00 0.  1.
</event>
<event>
 7    1  0.2648915E-009  0.1088975E+03  0.7561462E-02  0.1262625E+00
          1   -1    0    0  501    0  0.00000000000E+00  0.00000000000E+00  0.31832629757E+02  0.31832629757E+02  0.00000000000E+00 0. -1.
         -1   -1    0    0    0  501 -0.00000000000E+00 -0.00000000000E+00 -0.40734144902E+03  0.40734144902E+03  0.00000000000E+00 0.  1.
         25    2    1    2    0    0  0.67718149689E+01  0.19847162500E+02 -0.26641047662E+03  0.29506352844E+03  0.12509267134E+03 0.  0.
          5    1    3    3  502    0 -0.78047330524E+01 -0.52063162820E+02 -0.98211840737E+02  0.11151020062E+03  0.41800000000E+01 0.  1.
         -5    1    3    3    0  502  0.14576548021E+02  0.71910325319E+02 -0.16819863589E+03  0.18355332782E+03  0.41800000000E+01 0.  1.
        -11    1    1    2    0    0  0.33336057122E+02 -0.35261299271E+02 -0.74665520942E+02  0.89048256290E+02  0.00000000000E+00 0. -1.
         11    1    1    2    0    0 -0.40107872091E+02  0.15414136771E+02 -0.34432821701E+02  0.55062294053E+02  0.00000000000E+00 0.  1.
</event>
<event>
 7    1  0.2648915E-009  0.9889494E+02  0.7561462E-02  0.1282637E+00
         -2   -1    0    0    0  501 -0.00000000000E+00  0.00000000000E+00  0.13594774166E+03  0.13594774166E+03  0.00000000000E+00 0.  1.
          2   -1    0    0  501    0  0.00000000000E+00 -0.00000000000E+00 -0.15062156833E+03  0.15062156833E+03  0.00000000000E+00 0. -1.
         25    2    1    2    0    0 -0.38510272361E+02 -0.38922985425E+02  0.66973444411E+02  0.15208607536E+03  0.12508673867E+03 0.  0.
          5    1    3    3  502    0 -0.56150824827E+02 -0.45268386282E+02 -0.98342802136E+01  0.72913149655E+02  0.41800000000E+01 0. -1.
         -5    1    3    3    0  502  0.17640552465E+02  0.63454008566E+01  0.76807724625E+02  0.79172925709E+02  0.41800000000E+01 0. -1.
        -11    1    1    2    0    0  0.66516977210E+02  0.12202702325E+02 -0.45399764441E+02  0.81452764302E+02  0.00000000000E+00 0.  1.
         11    1    1    2    0    0 -0.28006704848E+02  0.26720283100E+02 -0.36247506639E+02  0.53030470326E+02  0.00000000000E+00 0. -1.
</event>
<event>
 7    1  0.2648915E-009  0.2322092E+03  0.7561462E-02  0.1125094E+00
         -2   -1    0    0    0  501 -0.00000000000E+00  0.00000000000E+00  0.83149860431E+02  0.83149860431E+02  0.00000000000E+00 0.  1.
          2   -1    0    0  501    0  0.00000000000E+00 -0.00000000000E+00 -0.71816456577E+03  0.71816456577E+03  0.00000000000E+00 0. -1.
         25    2    1    2    0    0  0.20972977494E+03  0.31034797300E+02 -0.41247182975E+03  0.48034326226E+03  0.12508757779E+03 0.  0.
          5    1    3    3  502    0  0.11848353269E+03  0.69455425916E+02 -0.17124168486E+03  0.21955316154E+03  0.41800000000E+01 0. -1.
         -5    1    3    3    0  502  0.91246242254E+02 -0.38420628616E+02 -0.24123014489E+03  0.26079010072E+03  0.41800000000E+01 0. -1.
        -11    1    1    2    0    0 -0.14807901692E+03  0.17971430013E+02 -0.11863679199E+03  0.19059133234E+03  0.00000000000E+00 0.  1.
         11    1    1    2    0    0 -0.61650758024E+02 -0.49006227313E+02 -0.10390608359E+03  0.13037983160E+03  0.00000000000E+00 0. -1.
</event>
<event>
 7    1  0.4158893E-009  0.1344478E+03  0.7561462E-02  0.1221001E+00
         -2   -1    0    0    0  501 -0.00000000000E+00  0.00000000000E+00  0.12940202064E+03  0.12940202064E+03  0.00000000000E+00 0.  1.
          2   -1    0    0  501    0  0.00000000000E+00 -0.00000000000E+00 -0.17303445786E+03  0.17303445786E+03  0.00000000000E+00 0. -1.
         25    2    1    2    0    0  0.75600862669E+02  0.69478086424E+02 -0.12014182131E+02  0.16227451575E+03  0.12508390368E+03 0.  0.
          5    1    3    3  502    0  0.10355794802E+03  0.68049486395E+02 -0.31484027161E+02  0.12792066902E+03  0.41800000000E+01 0. -1.
         -5    1    3    3    0  502 -0.27957085350E+02  0.14286000294E+01  0.19469845030E+02  0.34353846725E+02  0.41800000000E+01 0. -1.
        -11    1    1    2    0    0 -0.48511834739E+02 -0.76597212643E+01  0.22143313164E+02  0.53873887529E+02  0.00000000000E+00 0.  1.
         11    1    1    2    0    0 -0.27089027930E+02 -0.61818365160E+02 -0.53761568251E+02  0.86288075225E+02  0.00000000000E+00 0. -1.
</event>
<event>
 7    1  0.2648915E-009  0.1191004E+03  0.7561462E-02  0.1244589E+00
         -2   -1    0    0    0  501 -0.00000000000E+00  0.00000000000E+00  0.39564432782E+02  0.39564432782E+02  0.00000000000E+00 0.  1.
          2   -1    0    0  501    0  0.00000000000E+00 -0.00000000000E+00 -0.50588182126E+03  0.50588182126E+03  0.00000000000E+00 0. -1.
         25    2    1    2    0    0  0.77069753157E+02  0.31594879862E+02 -0.32089798480E+03  0.35434487403E+03  0.12508712891E+03 0.  0.
          5    1    3    3  502    0  0.53505956677E+02 -0.22073791501E+02 -0.48348751116E+02  0.75532865732E+02  0.41800000000E+01 0.  1.
         -5    1    3    3    0  502  0.23563796479E+02  0.53668671362E+02 -0.27254923369E+03  0.27881200830E+03  0.41800000000E+01 0.  1.
        -11    1    1    2    0    0 -0.76606574406E+02  0.12232538291E+02 -0.11074939229E+03  0.13521697426E+03  0.00000000000E+00 0.  1.
         11    1    1    2    0    0 -0.46317875092E+00 -0.43827418152E+02 -0.34670011384E+02  0.55884405748E+02  0.00000000000E+00 0. -1.
</event>
<event>
 7    1  0.2648915E-009  0.1276003E+03  0.7561462E-02  0.1231060E+00
          1   -1    0    0  501    0  0.00000000000E+00  0.00000000000E+00  0.55252218837E+03  0.55252218837E+03  0.00000000000E+00 0. -1.
         -1   -1    0    0    0  501 -0.00000000000E+00 -0.00000000000E+00 -0.34174023605E+02  0.34174023605E+02  0.00000000000E+00 0.  1.
         25    2    1    2    0    0 -0.75412224384E+01  0.84717102269E+02  0.27229261834E+03  0.31148784280E+03  0.12509016252E+03 0.  0.
          5    1    3    3  502    0  0.19201824238E+02  0.10059485626E+03  0.12880795450E+03  0.16461165421E+03  0.41800000000E+01 0. -1.
         -5    1    3    3    0  502 -0.26743046676E+02 -0.15877753992E+02  0.14348466385E+03  0.14687618860E+03  0.41800000000E+01 0. -1.
        -11    1    1    2    0    0 -0.36759502704E+02 -0.17235375385E+02  0.10666767096E+03  0.11413286657E+03  0.00000000000E+00 0. -1.
         11    1    1    2    0    0  0.44300725143E+02 -0.67481726884E+02  0.13938787546E+03  0.16107550260E+03  0.00000000000E+00 0.  1.
</event>
<event>
 7    1  0.2648915E-009  0.7396098E+02  0.7561462E-02  0.1347119E+00
         -2   -1    0    0    0  501 -0.00000000000E+00  0.00000000000E+00  0.41527676241E+03  0.41527676241E+03  0.00000000000E+00 0.  1.
          2   -1    0    0  501    0  0.00000000000E+00 -0.00000000000E+00 -0.55116015525E+02  0.55116015525E+02  0.00000000000E+00 0. -1.
         25    2    1    2    0    0 -0.19348178915E+02  0.35958621753E+02  0.32851310696E+03  0.35388689371E+03  0.12509075739E+03 0.  0.
          5    1    3    3  502    0 -0.84293633325E+01  0.29031804130E+02  0.60186103987E+01  0.31106203374E+02  0.41800000000E+01 0.  1.
         -5    1    3    3    0  502 -0.10918815583E+02  0.69268176225E+01  0.32249449656E+03  0.32278069033E+03  0.41800000000E+01 0.  1.
        -11    1    1    2    0    0 -0.33619521727E+02  0.84815560511E+01 -0.96236719896E+01  0.35983664304E+02  0.00000000000E+00 0. -1.
         11    1    1    2    0    0  0.52967700642E+02 -0.44440177804E+02  0.41271311906E+02  0.80522219921E+02  0.00000000000E+00 0.  1.
</event>
<event>
 7    1  0.2648915E-009  0.6567452E+02  0.7561462E-02  0.1375452E+00
         -1   -1    0    0    0  501 -0.00000000000E+00  0.00000000000E+00  0.68509871166E+02  0.68509871166E+02  0.00000000000E+00 0.  1.
          1   -1    0    0  501    0  0.00000000000E+00 -0.00000000000E+00 -0.21294563126E+03  0.21294563126E+03  0.00000000000E+00 0. -1.
         25    2    1    2    0    0 -0.15163047402E+02 -0.39900428271E+02 -0.62090978189E+02  0.14602766567E+03  0.12508727907E+03 0.  0.
          5    1    3    3  502    0  0.34752806072E+01 -0.12537486396E+02 -0.96869574678E+02  0.97828692308E+02  0.41800000000E+01 0. -1.
         -5    1    3    3    0  502 -0.18638328009E+02 -0.27362941874E+02  0.34778596490E+02  0.48198973358E+02  0.41800000000E+01 0. -1.
        -11    1    1    2    0    0  0.35333798716E+02  0.50416835593E+02 -0.13644632350E+02  0.63059580041E+02  0.00000000000E+00 0.  1.
         11    1    1    2    0    0 -0.20170751314E+02 -0.10516407323E+02 -0.68700149555E+02  0.72368256718E+02  0.00000000000E+00 0. -1.
</event>
<event>
 7    1  0.2648915E-009  0.9094015E+02  0.7561462E-02  0.1300591E+00
         -2   -1    0    0    0  501 -0.00000000000E+00  0.00000000000E+00  0.48895914171E+02  0.48895914171E+02  0.00000000000E+00 0. -1.
          2   -1    0    0  501    0  0.00000000000E+00 -0.00000000000E+00 -0.31030969372E+03  0.31030969372E+03  0.00000000000E+00 0.  1.
         25    2    1    2    0    0 -0.18961654270E+02 -0.34087382312E+02 -0.20554717582E+03  0.24375215793E+03  0.12507589312E+03 0.  0.
          5    1    3    3  502    0 -0.16673551049E+02 -0.56807840401E+02 -0.29679208876E+02  0.66358615681E+02  0.41800000000E+01 0. -1.
         -5    1    3    3    0  502 -0.22881032212E+01  0.22720458090E+02 -0.17586796695E+03  0.17739354225E+03  0.41800000000E+01 0. -1.
        -11    1    1    2    0    0 -0.31020873032E+02 -0.10075373977E+02 -0.86787781650E+01  0.33750983910E+02  0.00000000000E+00 0.  1.
         11    1    1    2    0    0  0.49982527302E+02  0.44162756289E+02 -0.47187825565E+02  0.81702466059E+02  0.00000000000E+00 0. -1.
</event>
<event>
 7    1  0.2648915E-009  0.1004349E+03  0.7561462E-02  0.1279384E+00
         -1   -1    0    0    0  501 -0.00000000000E+00  0.00000000000E+00  0.55636214865E+02  0.55636214865E+02  0.00000000000E+00 0.  1.
          1   -1    0    0  501    0  0.00000000000E+00 -0.00000000000E+00 -0.27584136213E+03  0.27584136213E+03  0.00000000000E+00 0. -1.
         25    2    1    2    0    0  0.55185198155E+02  0.13907620824E+02 -0.15286439511E+03  0.20555772854E+03  0.12509048108E+03 0.  0.
          5    1    3    3  502    0 -0.25311344807E+02  0.39863772065E+02 -0.83819272212E+02  0.96296039864E+02  0.41800000000E+01 0. -1.
         -5    1    3    3    0  502  0.80496542963E+02 -0.25956151241E+02 -0.69045122896E+02  0.10926168867E+03  0.41800000000E+01 0. -1.
        -11    1    1    2    0    0 -0.26245978557E+02  0.12980970677E+02 -0.79392175498E+02  0.84619587097E+02  0.00000000000E+00 0. -1.
         11    1    1    2    0    0 -0.28939219599E+02 -0.26888591501E+02  0.12051423340E+02  0.41300261360E+02  0.00000000000E+00 0.  1.
</event>
<event>
 7    1  0.2648915E-009  0.1267191E+03  0.7561462E-02  0.1232407E+00
          1   -1    0    0  501    0  0.00000000000E+00  0.00000000000E+00  0.37762599408E+03  0.37762599408E+03  0.00000000000E+00 0. -1.
         -1   -1    0    0    0  501 -0.00000000000E+00 -0.00000000000E+00 -0.52502904350E+02  0.52502904350E+02  0.00000000000E+00 0.  1.
         25    2    1    2    0    0 -0.93992434783E+02 -0.21860007678E+01  0.15250805058E+03  0.21850708154E+03  0.12508909943E+03 0.  0.
          5    1    3    3  502    0 -0.58960943644E+02  0.60475744454E+02  0.81423215659E+02  0.11739216750E+03  0.41800000000E+01 0.  1.
         -5    1    3    3    0  502 -0.35031491139E+02 -0.62661745221E+02  0.71084834921E+02  0.10111491404E+03  0.41800000000E+01 0.  1.
        -11    1    1    2    0    0  0.59569767371E+02  0.12822499457E+02  0.36967391469E+02  0.71271043973E+02  0.00000000000E+00 0.  1.
         11    1    1    2    0    0  0.34422667412E+02 -0.10636498689E+02  0.13564764768E+03  0.14035077291E+03  0.00000000000E+00 0. -1.
</event>
<event>
 7    1  0.2648915E-009  0.2217917E+03  0.7561462E-02  0.1132554E+00
          1   -1    0    0  501    0  0.00000000000E+00  0.00000000000E+00  0.13890548989E+03  0.13890548989E+03  0.00000000000E+00 0. -1.
         -1   -1    0    0    0  501 -0.00000000000E+00 -0.00000000000E+00 -0.45630676194E+03  0.45630676194E+03  0.00000000000E+00 0.  1.
         25    2    1    2    0    0 -0.10550671507E+03  0.17620144961E+03 -0.28247941351E+03  0.37097124057E+03  0.12508566867E+03 0.  0.
          5    1    3    3  502    0 -0.11392385221E+03  0.88102880608E+02 -0.21834341481E+03  0.26159526155E+03  0.41800000000E+01 0. -1.
         -5    1    3    3    0  502  0.84171371446E+01  0.88098569002E+02 -0.64135998700E+02  0.10937597902E+03  0.41800000000E+01 0. -1.
        -11    1    1    2    0    0  0.53923386355E+01 -0.47733240061E+02 -0.38142232979E+02  0.61338156635E+02  0.00000000000E+00 0.  1.
         11    1    1    2    0    0  0.10011437643E+03 -0.12846820955E+03  0.32203744376E+01  0.16290285462E+03  0.00000000000E+00 0. -1.
</event>
<event>
 7    1  0.2648915E-009  0.2665723E+03  0.7561462E-02  0.1103258E+00
         -2   -1    0    0    0  501 -0.00000000000E+00  0.00000000000E+00  0.20587437346E+03  0.20587437346E+03  0.00000000000E+00 0.  1.
          2   -1    0    0  501    0  0.00000000000E+00 -0.00000000000E+00 -0.35500273846E+03  0.35500273846E+03  0.00000000000E+00 0. -1.
         25    2    1    2    0    0 -0.15910959353E+03  0.18670847859E+03 -0.43132201149E+02  0.27871887713E+03  0.12509159430E+03 0.  0.
          5    1    3    3  502    0  0.16542496100E+02  0.38050244316E+02 -0.23161212639E+02  0.47701042343E+02  0.41800000000E+01 0.  1.
         -5    1    3    3    0  502 -0.17565208963E+03  0.14865823427E+03 -0.19970988510E+02  0.23101783479E+03  0.41800000000E+01 0.  1.
        -11    1    1    2    0    0  0.10333228248E+03 -0.52396003050E+02 -0.41511579242E+02  0.12306954517E+03  0.00000000000E+00 0.  1.
         11    1    1    2    0    0  0.55777311054E+02 -0.13431247554E+03 -0.64484584606E+02  0.15908868962E+03  0.00000000000E+00 0. -1.
</event>
<event>
 7    1  0.2648915E-009  0.4400058E+02  0.7561462E-02  0.1480679E+00
          1   -1    0    0  501    0  0.00000000000E+00  0.00000000000E+00  0.23902207512E+03  0.23902207512E+03  0.00000000000E+00 0. -1.
         -1   -1    0    0    0  501 -0.00000000000E+00 -0.00000000000E+00 -0.43329373057E+02  0.43329373057E+02  0.00000000000E+00 0.  1.
         25    2    1    2    0    0  0.15750526816E+02 -0.11040457185E+02  0.14927925573E+03  0.19570695274E+03  0.12508774668E+03 0.  0.
          5    1    3    3  502    0  0.24615394790E+02 -0.82410975507E+01  0.17031461313E+03  0.17233215949E+03  0.41800000000E+01 0. -1.
         -5    1    3    3    0  502 -0.88648679743E+01 -0.27993596347E+01 -0.21035357397E+02  0.23374793248E+02  0.41800000000E+01 0. -1.
        -11    1    1    2    0    0 -0.21137205034E+02  0.27219847774E+02 -0.27842074137E+01  0.34575328783E+02  0.00000000000E+00 0.  1.
         11    1    1    2    0    0  0.53866782181E+01 -0.16179390589E+02  0.49197653741E+02  0.52069166651E+02  0.00000000000E+00 0. -1.
</event>
<event>
 7    1  0.2648915E-009  0.1024500E+03  0.7561462E-02  0.1275227E+00
         -1   -1    0    0    0  501 -0.00000000000E+00  0.00000000000E+00  0.11994923162E+02  0.11994923162E+02  0.00000000000E+00 0.  1.
          1   -1    0    0  501    0  0.00000000000E+00 -0.00000000000E+00 -0.25093982807E+04  0.25093982807E+04  0.00000000000E+00 0. -1.
         25    2    1    2    0    0 -0.40116942015E+02  0.69936658795E+02 -0.21122652357E+04  0.21175014082E+04  0.12508909716E+03 0.  0.
          5    1    3    3  502    0 -0.76486488373E+01  0.41321338887E+02 -0.19165247640E+04  0.19169899839E+04  0.41800000000E+01 0.  1.
         -5    1    3    3    0  502 -0.32468293177E+02  0.28615319908E+02 -0.19574047173E+03  0.20051142429E+03  0.41800000000E+01 0.  1.
        -11    1    1    2    0    0 -0.25616787704E+02 -0.37193180861E+01 -0.12158990802E+03  0.12431475725E+03  0.00000000000E+00 0. -1.
         11    1    1    2    0    0  0.65733729718E+02 -0.66217340709E+02 -0.26354821381E+03  0.27957703846E+03  0.00000000000E+00 0.  1.
</event>
<event>
 7    1  0.2648915E-009  0.1087357E+03  0.7561462E-02  0.1262929E+00
          1   -1    0    0  501    0  0.00000000000E+00  0.00000000000E+00  0.98312658621E+02  0.98312658621E+02  0.00000000000E+00 0. -1.
         -1   -1    0    0    0  501 -0.00000000000E+00 -0.00000000000E+00 -0.14549360759E+03  0.14549360759E+03  0.00000000000E+00 0.  1.
         25    2    1    2    0    0  0.13382995757E+02 -0.42525030889E+02  0.25439089428E+01  0.13282402326E+03  0.12509303280E+03 0.  0.
          5    1    3    3  502    0 -0.47744983361E+02 -0.63007494934E+00  0.26575397969E+02  0.54806063604E+02  0.41800000000E+01 0. -1.
         -5    1    3    3    0  502  0.61127979118E+02 -0.41894955940E+02 -0.24031489026E+02  0.78017959657E+02  0.41800000000E+01 0. -1.
        -11    1    1    2    0    0 -0.20072061710E+02 -0.22382127927E+02 -0.30804093019E+02  0.43043460113E+02  0.00000000000E+00 0.  1.
         11    1    1    2    0    0  0.66890659530E+01  0.64907158816E+02 -0.18920764892E+02  0.67938782834E+02  0.00000000000E+00 0. -1.
</event>
<event>
 7    1  0.2648915E-009  0.1836723E+03  0.7561462E-02  0.1164296E+00
          2   -1    0    0  501    0  0.00000000000E+00  0.00000000000E+00  0.30849159744E+02  0.30849159744E+02  0.00000000000E+00 0. -1.
         -2   -1    0    0    0  501 -0.00000000000E+00 -0.00000000000E+00 -0.13707896070E+04  0.13707896070E+04  0.00000000000E+00 0.  1.
         25    2    1    2    0    0 -0.14253137893E+03 -0.81185950382E+02 -0.49624738738E+03  0.53741938472E+03  0.12510704644E+03 0.  0.
          5    1    3    3  502    0 -0.10086757425E+03  0.78373616548E+01 -0.31918843409E+03  0.33486477962E+03  0.41800000000E+01 0. -1.
         -5    1    3    3    0  502 -0.41663804684E+02 -0.89023312036E+02 -0.17705895329E+03  0.20255460510E+03  0.41800000000E+01 0. -1.
        -11    1    1    2    0    0  0.10757428704E+03  0.77442891171E+02 -0.78249007379E+03  0.79363741357E+03  0.00000000000E+00 0.  1.
         11    1    1    2    0    0  0.34957091885E+02  0.37430592104E+01 -0.61202986035E+02  0.70581968413E+02  0.00000000000E+00 0. -1.
</event>
<event>
 7    1  0.2648915E-009  0.2055206E+03  0.7561462E-02  0.1145163E+00
          2   -1    0    0  501    0  0.00000000000E+00  0.00000000000E+00  0.35931477843E+03  0.35931477843E+03  0.00000000000E+00 0. -1.
         -2   -1    0    0    0  501 -0.00000000000E+00 -0.00000000000E+00 -0.15606092564E+03  0.15606092564E+03  0.00000000000E+00 0.  1.
         25    2    1    2    0    0  0.69995611064E+01 -0.20430599348E+03  0.15763922202E+03  0.28685458590E+03  0.12508195834E+03 0.  0.
          5    1    3    3  502    0 -0.47375284099E+01 -0.12294933593E+03  0.17521814595E+02  0.12435220049E+03  0.41800000000E+01 0.  1.
         -5    1    3    3    0  502  0.11737089516E+02 -0.81356657555E+02  0.14011740743E+03  0.16250238541E+03  0.41800000000E+01 0.  1.
        -11    1    1    2    0    0  0.80868056060E+01  0.79348813059E+02  0.62763973054E+02  0.10149358045E+03  0.00000000000E+00 0. -1.
         11    1    1    2    0    0 -0.15086366712E+02  0.12495718042E+03 -0.17149342292E+02  0.12702753773E+03  0.00000000000E+00 0.  1.
</event>
<event>
 7    1  0.2648915E-009  0.1096653E+03  0.7561462E-02  0.1261191E+00
          2   -1    0    0  501    0  0.00000000000E+00  0.00000000000E+00  0.86481986567E+02  0.86481986567E+02  0.00000000000E+00 0. -1.
         -2   -1    0    0    0  501 -0.00000000000E+00 -0.00000000000E+00 -0.16565891032E+03  0.16565891032E+03  0.00000000000E+00 0.  1.
         25    2    1    2    0    0  0.15823732786E+02 -0.26238198452E+02 -0.88085939898E+02  0.15602957987E+03  0.12508902194E+03 0.  0.
          5    1    3    3  502    0 -0.30364108937E+02 -0.59425564761E+02 -0.26037797563E+02  0.71755251798E+02  0.41800000000E+01 0. -1.
         -5    1    3    3    0  502  0.46187841723E+02  0.33187366309E+02 -0.62048142335E+02  0.84274328076E+02  0.41800000000E+01 0. -1.
        -11    1    1    2    0    0 -0.52467209509E+02  0.41014854294E+01  0.84266186709E+01  0.53297637458E+02  0.00000000000E+00 0.  1.
         11    1    1    2    0    0  0.36643476723E+02  0.22136713023E+02  0.48239747199E+00  0.42813679556E+02  0.00000000000E+00 0. -1.
</event>
<event>
 7    1  0.2648915E-009  0.1215538E+03  0.7561462E-02  0.1240556E+00
          2   -1    0    0  501    0  0.00000000000E+00  0.00000000000E+00  0.59240567048E+03  0.59240567048E+03  0.00000000000E+00 0. -1.
         -2   -1    0    0    0  501 -0.00000000000E+00 -0.00000000000E+00 -0.41464114057E+02  0.41464114057E+02  0.00000000000E+00 0.  1.
         25    2    1    2    0    0  0.75493079758E+02 -0.83010489589E+02  0.32711638064E+03  0.36775378566E+03  0.12509106247E+03 0.  0.
          5    1    3    3  502    0  0.50489014776E+02 -0.17309908860E+02  0.27917499159E+02  0.60379075160E+02  0.41800000000E+01 0.  1.
         -5    1    3    3    0  502  0.25004064982E+02 -0.65700580728E+02  0.29919888148E+03  0.30737471050E+03  0.41800000000E+01 0.  1.
        -11    1    1    2    0    0 -0.41148642714E+02  0.16576905207E+02  0.19359389944E+02  0.48402381784E+02  0.00000000000E+00 0.  1.
         11    1    1    2    0    0 -0.34344437044E+02  0.66433584382E+02  0.20446578583E+03  0.21771361709E+03  0.00000000000E+00 0. -1.
</event>
<event>
 7    1  0.2648915E-009  0.1426714E+03  0.7561462E-02  0.1209779E+00
          1   -1    0    0  501    0  0.00000000000E+00  0.00000000000E+00  0.20125153508E+03  0.20125153508E+03  0.00000000000E+00 0. -1.
         -1   -1    0    0    0  501 -0.00000000000E+00 -0.00000000000E+00 -0.10967368757E+03  0.10967368757E+03  0.00000000000E+00 0.  1.
         25    2    1    2    0    0  0.20895052782E+02  0.91967219304E+02  0.83070908357E+02  0.17732210326E+03  0.12509108614E+03 0.  0.
          5    1    3    3  502    0  0.47521986723E+02  0.11030786914E+03  0.80434269970E+02  0.14461434715E+03  0.41800000000E+01 0. -1.
         -5    1    3    3    0  502 -0.26626933941E+02 -0.18340649836E+02  0.26366383865E+01  0.32707756106E+02  0.41800000000E+01 0. -1.
        -11    1    1    2    0    0 -0.53879644915E+02 -0.81972272978E+02 -0.37149768863E-01  0.98094194800E+02  0.00000000000E+00 0. -1.
         11    1    1    2    0    0  0.32984592133E+02 -0.99949463262E+01  0.85440889296E+01  0.35508924595E+02  0.00000000000E+00 0.  1.
</event>
<event>
 7    1  0.2648915E-009  0.1721440E+03  0.7561462E-02  0.1175630E+00
         -2   -1    0    0    0  501 -0.00000000000E+00  0.00000000000E+00  0.17195256718E+03  0.17195256718E+03  0.00000000000E+00 0.  1.
          2   -1    0    0  501    0  0.00000000000E+00 -0.00000000000E+00 -0.26909475865E+03  0.26909475865E+03  0.00000000000E+00 0. -1.
         25    2    1    2    0    0  0.13208625289E+03 -0.66315643982E+02 -0.16577727593E+03  0.25489622608E+03  0.12508172534E+03 0.  0.
          5    1    3    3  502    0 -0.17351373913E+02 -0.31520231353E+02 -0.13425337150E+02  0.38630392682E+02  0.41800000000E+01 0.  1.
         -5    1    3    3    0  502  0.14943762680E+03 -0.34795412629E+02 -0.15235193878E+03  0.21626583340E+03  0.41800000000E+01 0.  1.
        -11    1    1    2    0    0 -0.15002750646E+02 -0.68674633852E+01  0.42547293590E+02  0.45634600602E+02  0.00000000000E+00 0.  1.
         11    1    1    2    0    0 -0.11708350224E+03  0.73183107367E+02  0.26087790874E+02  0.14051649915E+03  0.00000000000E+00 0. -1.
</event>
<event>
 7    1  0.2648915E-009  0.1126064E+03  0.7561462E-02  0.1255818E+00
          2   -1    0    0  501    0  0.00000000000E+00  0.00000000000E+00  0.18634551995E+03  0.18634551995E+03  0.00000000000E+00 0. -1.
         -2   -1    0    0    0  501 -0.00000000000E+00 -0.00000000000E+00 -0.16139529308E+03  0.16139529308E+03  0.00000000000E+00 0.  1.
         25    2    1    2    0    0  0.60890622549E+02 -0.24202620130E+02  0.13258399684E+03  0.19369578400E+03  0.12508439465E+03 0.  0.
          5    1    3    3  502    0  0.86649016926E+02 -0.25610258646E+02  0.13986769205E+03  0.16656644669E+03  0.41800000000E+01 0.  1.
         -5    1    3    3    0  502 -0.25758394377E+02  0.14076385159E+01 -0.72836952115E+01  0.27129337313E+02  0.41800000000E+01 0.  1.
        -11    1    1    2    0    0 -0.86976435542E+00  0.45073850081E+02 -0.32136147681E+02  0.55363710488E+02  0.00000000000E+00 0.  1.
         11    1    1    2    0    0 -0.60020858194E+02 -0.20871229951E+02 -0.75497622288E+02  0.98681318542E+02  0.00000000000E+00 0. -1.
</event>
<event>
 7    1  0.2648915E-009  0.1267595E+03  0.7561462E-02  0.1232345E+00
          2   -1    0    0  501    0  0.00000000000E+00  0.00000000000E+00  0.92901654193E+02  0.92901654193E+02  0.00000000000E+00 0.  1.
         -2   -1    0    0    0  501 -0.00000000000E+00 -0.00000000000E+00 -0.22724076305E+03  0.22724076305E+03  0.00000000000E+00 0. -1.
         25    2    1    2    0    0  0.67877552613E+02  0.45598334339E+02 -0.16022845613E+02  0.15030959178E+03  0.12509864731E+03 0.  0.
          5    1    3    3  502    0 -0.24466015523E+02 -0.12480261051E+02  0.21224156965E+02  0.34961122269E+02  0.41800000000E+01 0.  1.
         -5    1    3    3    0  502  0.92343568135E+02  0.58078595390E+02 -0.37247002578E+02  0.11534846952E+03  0.41800000000E+01 0.  1.
        -11    1    1    2    0    0 -0.83740571601E+02 -0.52958115178E+02 -0.11540809407E+03  0.15210546825E+03  0.00000000000E+00 0. -1.
         11    1    1    2    0    0  0.15863018988E+02  0.73597808386E+01 -0.29081691690E+01  0.17727357201E+02  0.00000000000E+00 0.  1.
</event>
<event>
 7    1  0.2648915E-009  0.2139332E+03  0.7561462E-02  0.1138489E+00
         -2   -1    0    0    0  501 -0.00000000000E+00  0.00000000000E+00  0.21568724456E+04  0.21568724456E+04  0.00000000000E+00 0.  1.
          2   -1    0    0  501    0  0.00000000000E+00 -0.00000000000E+00 -0.23771181597E+02  0.23771181597E+02  0.00000000000E+00 0. -1.
         25    2    1    2    0    0  0.92926187780E+02  0.17509967509E+03  0.10766072676E+04  0.11018274490E+04  0.12508135867E+03 0.  0.
          5    1    3    3  502    0 -0.10775443459E+02  0.35507576883E+02  0.61686205602E+02  0.72107964604E+02  0.41800000000E+01 0. -1.
         -5    1    3    3    0  502  0.10370163124E+03  0.13959209821E+03  0.10149210620E+04  0.10297194844E+04  0.41800000000E+01 0. -1.
        -11    1    1    2    0    0 -0.59488079012E+02 -0.28040454091E+02  0.38678692384E+03  0.39233814888E+03  0.00000000000E+00 0.  1.
         11    1    1    2    0    0 -0.33438108768E+02 -0.14705922100E+03  0.66970707261E+03  0.68647802929E+03  0.00000000000E+00 0. -1.
</event>
<event>
 7    1  0.2648915E-009  0.1118521E+03  0.7561462E-02  0.1257178E+00
         -2   -1    0    0    0  501 -0.00000000000E+00  0.00000000000E+00  0.41704897568E+02  0.41704897568E+02  0.00000000000E+00 0. -1.
          2   -1    0    0  501    0  0.00000000000E+00 -0.00000000000E+00 -0.60772511596E+03  0.60772511596E+03  0.00000000000E+00 0.  1.
         25    2    1    2    0    0  0.25247315123E+02 -0.96397873996E+02 -0.18109886524E+03  0.24160756693E+03  0.12508972929E+03 0.  0.
          5    1    3    3  502    0  0.17677582528E+02 -0.80799907246E+02 -0.19948500100E+03  0.21599273126E+03  0.41800000000E+01 0.  1.
         -5    1    3    3    0  502  0.75697325950E+01 -0.15597966750E+02  0.18386135755E+02  0.25614835667E+02  0.41800000000E+01 0.  1.
        -11    1    1    2    0    0  0.14638451630E+02  0.77583691772E+02 -0.15768682773E+03  0.17634809082E+03  0.00000000000E+00 0.  1.
         11    1    1    2    0    0 -0.39885766753E+02  0.18814182223E+02 -0.22723452542E+03  0.23147435578E+03  0.00000000000E+00 0. -1.
</event>
<event>
 7    1  0.3287071E-009  0.1119252E+03  0.7561462E-02  0.1257046E+00
         -2   -1    0    0    0  501 -0.00000000000E+00  0.00000000000E+00  0.59909134086E+02  0.59909134086E+02  0.00000000000E+00 0.  1.
          2   -1    0    0  501    0  0.00000000000E+00 -0.00000000000E+00 -0.33361650092E+03  0.33361650092E+03  0.00000000000E+00 0. -1.
         25    2    1    2    0    0  0.17643691791E+02  0.88403216175E+02 -0.14917156279E+03  0.21453543023E+03  0.12508743817E+03 0.  0.
          5    1    3    3  502    0 -0.24504249988E+02  0.22114566397E+01 -0.10660732215E+03  0.10948946225E+03  0.41800000000E+01 0. -1.
         -5    1    3    3    0  502  0.42147941778E+02  0.86191759535E+02 -0.42564240642E+02  0.10504596798E+03  0.41800000000E+01 0. -1.
        -11    1    1    2    0    0 -0.23235919672E+02 -0.11817663175E+02  0.67212747444E+01  0.26921007784E+02  0.00000000000E+00 0.  1.
         11    1    1    2    0    0  0.55922278812E+01 -0.76585553000E+02 -0.13125707879E+03  0.15206919699E+03  0.00000000000E+00 0. -1.
</event>
<event>
 7    1  0.2648915E-009  0.2671721E+03  0.7561462E-02  0.1102909E+00
         -2   -1    0    0    0  501 -0.00000000000E+00  0.00000000000E+00  0.58057276654E+03  0.58057276654E+03  0.00000000000E+00 0.  1.
          2   -1    0    0  501    0  0.00000000000E+00 -0.00000000000E+00 -0.12345235935E+03  0.12345235935E+03  0.00000000000E+00 0. -1.
         25    2    1    2    0    0 -0.13030194107E+02 -0.24351307608E+03  0.24792256027E+03  0.36956951159E+03  0.12509046256E+03 0.  0.
          5    1    3    3  502    0  0.10689149050E+01 -0.25484956336E+03  0.22431880774E+03  0.33953768926E+03  0.41800000000E+01 0. -1.
         -5    1    3    3    0  502 -0.14099109012E+02  0.11336487279E+02  0.23603752537E+02  0.30031822332E+02  0.41800000000E+01 0. -1.
        -11    1    1    2    0    0  0.52860137032E+02  0.12035743706E+03  0.10910002910E+03  0.17083010008E+03  0.00000000000E+00 0.  1.
         11    1    1    2    0    0 -0.39829942925E+02  0.12315563902E+03  0.10009781781E+03  0.16362551423E+03  0.00000000000E+00 0. -1.
</event>
<event>
 7    1  0.2648915E-009  0.2264095E+03  0.7561462E-02  0.1129193E+00
          2   -1    0    0  501    0  0.00000000000E+00  0.00000000000E+00  0.10769960055E+04  0.10769960055E+04  0.00000000000E+00 0. -1.
         -2   -1    0    0    0  501 -0.00000000000E+00 -0.00000000000E+00 -0.53890385827E+02  0.53890385827E+02  0.00000000000E+00 0.  1.
         25    2    1    2    0    0 -0.20754408905E+03  0.14605519205E+02  0.64852315499E+03  0.69247263190E+03  0.12509273872E+03 0.  0.
          5    1    3    3  502    0 -0.83752766088E+02  0.66616723582E+02  0.32405993638E+03  0.34129844484E+03  0.41800000000E+01 0.  1.
         -5    1    3    3    0  502 -0.12379132296E+03 -0.52011204378E+02  0.32446321861E+03  0.35117418705E+03  0.41800000000E+01 0.  1.
        -11    1    1    2    0    0  0.88973732492E+01  0.73312990625E+01 -0.23593761345E+01  0.11767661298E+02  0.00000000000E+00 0.  1.
         11    1    1    2    0    0  0.19864671580E+03 -0.21936818267E+02  0.37694184087E+03  0.42664609818E+03  0.00000000000E+00 0. -1.
</event>
<event>
 7    1  0.2648915E-009  0.9744334E+02  0.7561462E-02  0.1285766E+00
          2   -1    0    0  501    0  0.00000000000E+00  0.00000000000E+00  0.51083341138E+03  0.51083341138E+03  0.00000000000E+00 0.  1.
         -2   -1    0    0    0  501 -0.00000000000E+00 -0.00000000000E+00 -0.25761514441E+02  0.25761514441E+02  0.00000000000E+00 0. -1.
         25    2    1    2    0    0 -0.29891991540E+01  0.23939593188E+02  0.35420825548E+03  0.37642225353E+03  0.12509270670E+03 0.  0.
          5    1    3    3  502    0 -0.63405911376E+02  0.41261234989E+01  0.17644940444E+03  0.18758784401E+03  0.41800000000E+01 0. -1.
         -5    1    3    3    0  502  0.60416712222E+02  0.19813469689E+02  0.17775885104E+03  0.18883440952E+03  0.41800000000E+01 0. -1.
        -11    1    1    2    0    0  0.19703227206E+02 -0.39823859198E+02  0.12968434306E+03  0.13708459344E+03  0.00000000000E+00 0.  1.
         11    1    1    2    0    0 -0.16714028052E+02  0.15884266010E+02  0.11792984025E+01  0.23088078853E+02  0.00000000000E+00 0. -1.
</event>
<event>
 7    1  0.2648915E-009  0.1101102E+03  0.7561462E-02  0.1260366E+00
         -3   -1    0    0    0  501 -0.00000000000E+00  0.00000000000E+00  0.13960710619E+03  0.13960710619E+03  0.00000000000E+00 0.  1.
          3   -1    0    0  501    0  0.00000000000E+00 -0.00000000000E+00 -0.13103429856E+03  0.13103429856E+03  0.00000000000E+00 0. -1.
         25    2    1    2    0    0 -0.19179181752E+02 -0.61914466700E+02  0.46348756707E+02  0.14831199292E+03  0.12508796024E+03 0.  0.
          5    1    3    3  502    0 -0.66262474545E+02 -0.23104653551E+02 -0.20336612430E+01  0.70328861263E+02  0.41800000000E+01 0.  1.
         -5    1    3    3    0  502  0.47083292793E+02 -0.38809813149E+02  0.48382417950E+02  0.77983131661E+02  0.41800000000E+01 0.  1.
        -11    1    1    2    0    0  0.29264104046E+02  0.34884646270E+01 -0.53419977795E+02  0.61010254865E+02  0.00000000000E+00 0. -1.
         11    1    1    2    0    0 -0.10084922294E+02  0.58426002073E+02  0.15644028722E+02  0.61319156962E+02  0.00000000000E+00 0.  1.
</event>
<event>
 7    1  0.2648915E-009  0.1066964E+03  0.7561462E-02  0.1266813E+00
         -2   -1    0    0    0  501 -0.00000000000E+00  0.00000000000E+00  0.31283960871E+02  0.31283960871E+02  0.00000000000E+00 0.  1.
          2   -1    0    0  501    0  0.00000000000E+00 -0.00000000000E+00 -0.75433694717E+03  0.75433694717E+03  0.00000000000E+00 0. -1.
         25    2    1    2    0    0 -0.96517966868E+02 -0.17741897767E+02 -0.49287363217E+03  0.51788403743E+03  0.12509582755E+03 0.  0.
          5    1    3    3  502    0 -0.65284527531E+02 -0.15553812320E+02 -0.47846213439E+03  0.48316402707E+03  0.41800000000E+01 0. -1.
         -5    1    3    3    0  502 -0.31233439338E+02 -0.21880854470E+01 -0.14411497777E+02  0.34720010353E+02  0.41800000000E+01 0. -1.
        -11    1    1    2    0    0  0.26655927944E+02 -0.21668190517E+02 -0.13890949003E+02  0.37054115008E+02  0.00000000000E+00 0.  1.
         11    1    1    2    0    0  0.69862038924E+02  0.39410088283E+02 -0.21628840513E+03  0.23068275561E+03  0.00000000000E+00 0. -1.
</event>
<event>
 7    1  0.2648915E-009  0.1146306E+03  0.7561462E-02  0.1252227E+00
          1   -1    0    0  501    0  0.00000000000E+00  0.00000000000E+00  0.27270182726E+03  0.27270182726E+03  0.00000000000E+00 0. -1.
         -1   -1    0    0    0  501 -0.00000000000E+00 -0.00000000000E+00 -0.56798430859E+02  0.56798430859E+02  0.00000000000E+00 0.  1.
         25    2    1    2    0    0  0.38511917420E+02 -0.28162323247E+02  0.72516852497E+02  0.15225667935E+03  0.12508844181E+03 0.  0.
          5    1    3    3  502    0  0.49187274814E+02  0.35254530456E+02  0.82073496508E+01  0.61213584355E+02  0.41800000000E+01 0.  1.
         -5    1    3    3    0  502 -0.10675357395E+02 -0.63416853703E+02  0.64309502846E+02  0.91043094990E+02  0.41800000000E+01 0.  1.
        -11    1    1    2    0    0 -0.56145798397E+02 -0.14503779555E+02  0.82098152585E+02  0.10051277012E+03  0.00000000000E+00 0. -1.
         11    1    1    2    0    0  0.17633880977E+02  0.42666102802E+02  0.61288391323E+02  0.76730808660E+02  0.00000000000E+00 0.  1.
</event>
<event>
 7    1  0.2648915E-009  0.6856523E+02  0.7561462E-02  0.1365041E+00
         -1   -1    0    0    0  501 -0.00000000000E+00  0.00000000000E+00  0.46221588955E+02  0.46221588955E+02  0.00000000000E+00 0.  1.
          1   -1    0    0  501    0  0.00000000000E+00 -0.00000000000E+00 -0.51644471580E+03  0.51644471580E+03  0.00000000000E+00 0. -1.
         25    2    1    2    0    0 -0.62871856821E+01 -0.95346935010E+01 -0.45170110866E+03  0.46883945184E+03  0.12508437536E+03 0.  0.
          5    1    3    3  502    0  0.25590407002E+02 -0.40637307609E+02 -0.72838640701E+02  0.87345289967E+02  0.41800000000E+01 0. -1.
         -5    1    3    3    0  502 -0.31877592684E+02  0.31102614108E+02 -0.37886246796E+03  0.38149416188E+03  0.41800000000E+01 0. -1.
        -11    1    1    2    0    0 -0.11109341851E+02  0.20720045326E+02 -0.50522344147E+02  0.55724725327E+02  0.00000000000E+00 0. -1.
         11    1    1    2    0    0  0.17396527533E+02 -0.11185351825E+02  0.32000325954E+02  0.38102127590E+02  0.00000000000E+00 0.  1.
</event>
<event>
 7    1  0.2648915E-009  0.1028682E+03  0.7561462E-02  0.1274378E+00
         -2   -1    0    0    0  501 -0.00000000000E+00  0.00000000000E+00  0.38570796375E+02  0.38570796375E+02  0.00000000000E+00 0.  1.
          2   -1    0    0  501    0  0.00000000000E+00 -0.00000000000E+00 -0.47092568588E+03  0.47092568588E+03  0.00000000000E+00 0. -1.
         25    2    1    2    0    0 -0.51848964741E+02 -0.16034609399E+02 -0.12186329402E+03  0.18288503425E+03  0.12510335520E+03 0.  0.
          5    1    3    3  502    0 -0.69655574763E+02 -0.42593770547E+02 -0.12617977366E+03  0.15034938000E+03  0.41800000000E+01 0.  1.
         -5    1    3    3    0  502  0.17806610022E+02  0.26559161148E+02  0.43164796422E+01  0.32535654256E+02  0.41800000000E+01 0.  1.
        -11    1    1    2    0    0  0.65004210071E+02  0.30823489802E+02 -0.28706571230E+03  0.29594316689E+03  0.00000000000E+00 0. -1.
         11    1    1    2    0    0 -0.13155245330E+02 -0.14788880403E+02 -0.23425883193E+02  0.30668281116E+02  0.00000000000E+00 0.  1.
</event>
<event>
 7    1  0.2648915E-009  0.4349702E+03  0.7561462E-02  0.1032301E+00
         -1   -1    0    0    0  501 -0.00000000000E+00  0.00000000000E+00  0.39853791604E+03  0.39853791604E+03  0.00000000000E+00 0.  1.
          1   -1    0    0  501    0  0.00000000000E+00 -0.00000000000E+00 -0.66076563067E+03  0.66076563067E+03  0.00000000000E+00 0. -1.
         25    2    1    2    0    0  0.37267261828E+03 -0.20636291421E+03 -0.40318940650E+03  0.59973298056E+03  0.12508963861E+03 0.  0.
          5    1    3    3  502    0  0.24709930049E+03 -0.20033645052E+03 -0.28459858859E+03  0.42685663487E+03  0.41800000000E+01 0.  1.
         -5    1    3    3    0  502  0.12557331779E+03 -0.60264636831E+01 -0.11859081791E+03  0.17287634569E+03  0.41800000000E+01 0.  1.
        -11    1    1    2    0    0 -0.90172598313E+02  0.52153140079E+02 -0.88879790651E+01  0.10454684920E+03  0.00000000000E+00 0.  1.
         11    1    1    2    0    0 -0.28250001997E+03  0.15420977413E+03  0.14984967093E+03  0.35502371695E+03  0.00000000000E+00 0. -1.
</event>
<event>
 7    1  0.2648915E-009  0.8652845E+02  0.7561462E-02  0.1311483E+00
         -1   -1    0    0    0  501 -0.00000000000E+00  0.00000000000E+00  0.16500334830E+03  0.16500334830E+03  0.00000000000E+00 0.  1.
          1   -1    0    0  501    0  0.00000000000E+00 -0.00000000000E+00 -0.11420906300E+03  0.11420906300E+03  0.00000000000E+00 0. -1.
         25    2    1    2    0    0 -0.20428124657E+02 -0.59328536387E+02 -0.29828592451E+02  0.14308884247E+03  0.12508992128E+03 0.  0.
          5    1    3    3  502    0 -0.14865859219E+01  0.10042458036E+02  0.40773870379E+02  0.42226079699E+02  0.41800000000E+01 0. -1.
         -5    1    3    3    0  502 -0.18941538735E+02 -0.69370994423E+02 -0.70602462830E+02  0.10086276277E+03  0.41800000000E+01 0. -1.
        -11    1    1    2    0    0 -0.19088678278E+02  0.43450840906E+02  0.80601970442E+02  0.93536254217E+02  0.00000000000E+00 0.  1.
         11    1    1    2    0    0  0.39516802935E+02  0.15877695481E+02  0.20907307401E-01  0.42587314603E+02  0.00000000000E+00 0. -1.
</event>
<event>
 7    1  0.2648915E-009  0.1230744E+03  0.7561462E-02  0.1238110E+00
         -2   -1    0    0    0  501 -0.00000000000E+00  0.00000000000E+00  0.68787493807E+03  0.68787493807E+03  0.00000000000E+00 0. -1.
          2   -1    0    0  501    0  0.00000000000E+00 -0.00000000000E+00 -0.34464444127E+02  0.34464444127E+02  0.00000000000E+00 0.  1.
         25    2    1    2    0    0 -0.57604896412E+02 -0.52116847475E+02  0.53486043743E+03  0.55475804882E+03  0.12508523224E+03 0.  0.
          5    1    3    3  502    0 -0.83016490452E+02 -0.74026863872E+02  0.44607288724E+03  0.45975015758E+03  0.41800000000E+01 0.  1.
         -5    1    3    3    0  502  0.25411594040E+02  0.21910016397E+02  0.88787550192E+02  0.95007891247E+02  0.41800000000E+01 0.  1.
        -11    1    1    2    0    0  0.64307766175E+02  0.18734436034E+02  0.11534428452E+03  0.13338205223E+03  0.00000000000E+00 0. -1.
         11    1    1    2    0    0 -0.67028697631E+01  0.33382411441E+02  0.32057719857E+01  0.34199281143E+02  0.00000000000E+00 0.  1.
</event>
<event>
 7    1  0.2648915E-009  0.1110321E+03  0.7561462E-02  0.1258670E+00
          3   -1    0    0  501    0  0.00000000000E+00  0.00000000000E+00  0.10909060113E+03  0.10909060113E+03  0.00000000000E+00 0. -1.
         -3   -1    0    0    0  501 -0.00000000000E+00 -0.00000000000E+00 -0.20205448223E+03  0.20205448223E+03  0.00000000000E+00 0.  1.
         25    2    1    2    0    0 -0.31155023008E+02 -0.63265186749E+02  0.25403056794E+02  0.14583291301E+03  0.12509517940E+03 0.  0.
          5    1    3    3  502    0 -0.37068769543E+02  0.99761268781E+01  0.54413958674E+02  0.66723070084E+02  0.41800000000E+01 0. -1.
         -5    1    3    3    0  502  0.59137465354E+01 -0.73241313627E+02 -0.29010901880E+02  0.79109842926E+02  0.41800000000E+01 0. -1.
        -11    1    1    2    0    0 -0.13721965257E+02  0.63507963827E+02 -0.44056496131E+02  0.78501774830E+02  0.00000000000E+00 0.  1.
         11    1    1    2    0    0  0.44876988265E+02 -0.24277707837E+00 -0.74310441762E+02  0.86810395525E+02  0.00000000000E+00 0. -1.
</event>
<event>
 7    1  0.2648915E-009  0.9687023E+02  0.7561462E-02  0.1287019E+00
          4   -1    0    0  501    0  0.00000000000E+00  0.00000000000E+00  0.44261828918E+02  0.44261828918E+02  0.00000000000E+00 0. -1.
         -4   -1    0    0    0  501 -0.00000000000E+00 -0.00000000000E+00 -0.31351169326E+03  0.31351169326E+03  0.00000000000E+00 0.  1.
         25    2    1    2    0    0  0.63969328338E+01  0.46268166026E+02 -0.14218349422E+03  0.19504534243E+03  0.12507947728E+03 0.  0.
          5    1    3    3  502    0  0.35343888236E+02  0.57824215334E+02 -0.22854869540E+02  0.71642499791E+02  0.41800000000E+01 0. -1.
         -5    1    3    3    0  502 -0.28946955402E+02 -0.11556049308E+02 -0.11932862468E+03  0.12340284264E+03  0.41800000000E+01 0. -1.
        -11    1    1    2    0    0  0.83062306580E+01  0.22545490916E+02 -0.63528034660E+02  0.67919833746E+02  0.00000000000E+00 0.  1.
         11    1    1    2    0    0 -0.14703163492E+02 -0.68813656942E+02 -0.63538335458E+02  0.94808345999E+02  0.00000000000E+00 0. -1.
</event>
<event>
 7    1  0.2648915E-009  0.1006691E+03  0.7561462E-02  0.1278895E+00
         -3   -1    0    0    0  501 -0.00000000000E+00  0.00000000000E+00  0.23435743895E+02  0.23435743895E+02  0.00000000000E+00 0.  1.
          3   -1    0    0  501    0  0.00000000000E+00 -0.00000000000E+00 -0.62448370889E+03  0.62448370889E+03  0.00000000000E+00 0. -1.
         25    2    1    2    0    0 -0.31443020975E+02 -0.19990143682E+02 -0.43247288853E+03  0.45173950038E+03  0.12508999751E+03 0.  0.
          5    1    3    3  502    0 -0.40658457725E+02 -0.61614695115E+02 -0.16434941809E+03  0.18021566098E+03  0.41800000000E+01 0.  1.
         -5    1    3    3    0  502  0.92154367498E+01  0.41624551433E+02 -0.26812347045E+03  0.27152383940E+03  0.41800000000E+01 0.  1.
        -11    1    1    2    0    0  0.53616658566E+02  0.28609961612E+02 -0.61376674015E+02  0.86373445528E+02  0.00000000000E+00 0.  1.
         11    1    1    2    0    0 -0.22173637591E+02 -0.86198179301E+01 -0.10719840245E+03  0.10980650688E+03  0.00000000000E+00 0. -1.
</event>
<event>
 7    1  0.2648915E-009  0.1136799E+03  0.7561462E-02  0.1253903E+00
         -1   -1    0    0    0  501 -0.00000000000E+00  0.00000000000E+00  0.39572311594E+03  0.39572311594E+03  0.00000000000E+00 0.  1.
          1   -1    0    0  501    0  0.00000000000E+00 -0.00000000000E+00 -0.55482936956E+02  0.55482936956E+02  0.00000000000E+00 0. -1.
         25    2    1    2    0    0 -0.60224883678E+02  0.16817492889E+02  0.90449163574E+02  0.16654744456E+03  0.12508851034E+03 0.  0.
          5    1    3    3  502    0  0.14155141005E+02 -0.28050941801E+02  0.70536592265E+02  0.77331148971E+02  0.41800000000E+01 0. -1.
         -5    1    3    3    0  502 -0.74380024683E+02  0.44868434690E+02  0.19912571309E+02  0.89216295594E+02  0.41800000000E+01 0. -1.
        -11    1    1    2    0    0  0.28246116335E+02  0.36725405589E+02  0.19872147637E+03  0.20405103204E+03  0.00000000000E+00 0.  1.
         11    1    1    2    0    0  0.31978767343E+02 -0.53542898478E+02  0.51069539033E+02  0.80607576289E+02  0.00000000000E+00 0. -1.
</event>
<event>
 7    1  0.2648915E-009  0.8041709E+02  0.7561462E-02  0.1327872E+00
         -2   -1    0    0    0  501 -0.00000000000E+00  0.00000000000E+00  0.65876682047E+02  0.65876682047E+02  0.00000000000E+00 0.  1.
          2   -1    0    0  501    0  0.00000000000E+00 -0.00000000000E+00 -0.21413071270E+03  0.21413071270E+03  0.00000000000E+00 0. -1.
         25    2    1    2    0    0 -0.31796363806E+02 -0.35241010777E+02 -0.94237142863E+02  0.16364857859E+03  0.12508909060E+03 0.  0.
          5    1    3    3  502    0  0.28277311191E+02 -0.17228564930E+02  0.15798869128E+02  0.36925688124E+02  0.41800000000E+01 0. -1.
         -5    1    3    3    0  502 -0.60073674997E+02 -0.18012445847E+02 -0.11003601199E+03  0.12672289047E+03  0.41800000000E+01 0. -1.
        -11    1    1    2    0    0  0.42359029451E+02  0.22206751891E+02 -0.75332815352E+02  0.89232618893E+02  0.00000000000E+00 0. -1.
         11    1    1    2    0    0 -0.10562665645E+02  0.13034258886E+02  0.21315927561E+02  0.27126197265E+02  0.00000000000E+00 0.  1.
</event>
<event>
 7    1  0.2648915E-009  0.1337759E+03  0.7561462E-02  0.1221958E+00
          2   -1    0    0  501    0  0.00000000000E+00  0.00000000000E+00  0.12402329183E+03  0.12402329183E+03  0.00000000000E+00 0. -1.
         -2   -1    0    0    0  501 -0.00000000000E+00 -0.00000000000E+00 -0.23138169808E+03  0.23138169808E+03  0.00000000000E+00 0.  1.
         25    2    1    2    0    0  0.11611974529E+03  0.41509015743E+02 -0.99601194091E+02  0.20192643534E+03  0.12508834395E+03 0.  0.
          5    1    3    3  502    0  0.63205121754E+02 -0.28194204359E+01  0.17635660200E+02  0.65812806187E+02  0.41800000000E+01 0. -1.
         -5    1    3    3    0  502  0.52914623534E+02  0.44328436178E+02 -0.11723685429E+03  0.13611362916E+03  0.41800000000E+01 0. -1.
        -11    1    1    2    0    0 -0.39314510098E+02  0.12320898953E+02 -0.36854160516E+02  0.55278064389E+02  0.00000000000E+00 0.  1.
         11    1    1    2    0    0 -0.76805235190E+02 -0.53829914696E+02  0.29096948352E+02  0.98200490183E+02  0.00000000000E+00 0. -1.
</event>
<event>
 7    1  0.2648915E-009  0.1789201E+03  0.7561462E-02  0.1168852E+00
          1   -1    0    0  501    0  0.00000000000E+00  0.00000000000E+00  0.18583053459E+02  0.18583053459E+02  0.00000000000E+00 0. -1.
         -1   -1    0    0    0  501 -0.00000000000E+00 -0.00000000000E+00 -0.21657631128E+04  0.21657631128E+04  0.00000000000E+00 0.  1.
         25    2    1    2    0    0 -0.16180037287E+03 -0.48083685582E+02 -0.11981158625E+04  0.12163965683E+04  0.12509032612E+03 0.  0.
          5    1    3    3  502    0 -0.85122152426E+02 -0.24887216687E+02 -0.97970900089E+03  0.98372371793E+03  0.41800000000E+01 0. -1.
         -5    1    3    3    0  502 -0.76678220440E+02 -0.23196468895E+02 -0.21840686166E+03  0.23267285032E+03  0.41800000000E+01 0. -1.
        -11    1    1    2    0    0  0.12334231136E+03 -0.48145578171E+01 -0.67468817836E+03  0.68588675724E+03  0.00000000000E+00 0.  1.
         11    1    1    2    0    0  0.38458061503E+02  0.52898243399E+02 -0.27437601842E+03  0.28206284075E+03  0.00000000000E+00 0. -1.
</event>
<event>
 7    1  0.2648915E-009  0.1078620E+03  0.7561462E-02  0.1264581E+00
         -2   -1    0    0    0  501 -0.00000000000E+00  0.00000000000E+00  0.42586246244E+02  0.42586246244E+02  0.00000000000E+00 0. -1.
          2   -1    0    0  501    0  0.00000000000E+00 -0.00000000000E+00 -0.30397560708E+03  0.30397560708E+03  0.00000000000E+00 0.  1.
         25    2    1    2    0    0 -0.28271697501E+02 -0.19057222411E+02 -0.13714554899E+03  0.18872921864E+03  0.12508936707E+03 0.  0.
          5    1    3    3  502    0 -0.35460599554E+02  0.49252770760E+02 -0.63568467730E+02  0.87986999254E+02  0.41800000000E+01 0.  1.
         -5    1    3    3    0  502  0.71889020538E+01 -0.68309993171E+02 -0.73577081259E+02  0.10074221938E+03  0.41800000000E+01 0.  1.
        -11    1    1    2    0    0  0.55220118441E+02  0.20950682443E+02 -0.45414572690E+02  0.74502858926E+02  0.00000000000E+00 0. -1.
         11    1    1    2    0    0 -0.26948420940E+02 -0.18934600318E+01 -0.78829239154E+02  0.83329775756E+02  0.00000000000E+00 0.  1.
</event>
<event>
 7    1  0.2648915E-009  0.1540701E+03  0.7561462E-02  0.1195559E+00
         -2   -1    0    0    0  501 -0.00000000000E+00  0.00000000000E+00  0.24535010503E+03  0.24535010503E+03  0.00000000000E+00 0.  1.
          2   -1    0    0  501    0  0.00000000000E+00 -0.00000000000E+00 -0.15687700100E+03  0.15687700100E+03  0.00000000000E+00 0. -1.
         25    2    1    2    0    0  0.29421798864E+02 -0.14979771184E+03  0.10385501140E+03  0.22302423971E+03  0.12509576886E+03 0.  0.
          5    1    3    3  502    0  0.28112697520E+02 -0.78835730068E+02 -0.14411177734E+02  0.85032643972E+02  0.41800000000E+01 0. -1.
         -5    1    3    3    0  502  0.13091013439E+01 -0.70961981769E+02  0.11826618914E+03  0.13799159574E+03  0.41800000000E+01 0. -1.
        -11    1    1    2    0    0 -0.29286394051E+02  0.12285186713E+03 -0.49568320049E+02  0.13567347746E+03  0.00000000000E+00 0. -1.
         11    1    1    2    0    0 -0.13540481297E+00  0.26945844703E+02  0.34186412678E+02  0.43529388843E+02  0.00000000000E+00 0.  1.
</event>
<event>
 7    1  0.2648915E-009  0.1327357E+03  0.7561462E-02  0.1223452E+00
          1   -1    0    0  501    0  0.00000000000E+00  0.00000000000E+00  0.43129586878E+02  0.43129586878E+02  0.00000000000E+00 0. -1.
         -1   -1    0    0    0  501 -0.00000000000E+00 -0.00000000000E+00 -0.64852190494E+03  0.64852190494E+03  0.00000000000E+00 0.  1.
         25    2    1    2    0    0  0.90129279836E+02  0.10766596270E+02 -0.13973408986E+03  0.20835698543E+03  0.12509121005E+03 0.  0.
          5    1    3    3  502    0 -0.18839100350E+02  0.36699808934E+02 -0.27619962860E+02  0.49820903506E+02  0.41800000000E+01 0.  1.
         -5    1    3    3    0  502  0.10896838019E+03 -0.25933212664E+02 -0.11211412700E+03  0.15853608193E+03  0.41800000000E+01 0.  1.
        -11    1    1    2    0    0 -0.59063123032E+02  0.25354159989E+02 -0.37892445710E+03  0.38433713081E+03  0.00000000000E+00 0.  1.
         11    1    1    2    0    0 -0.31066156804E+02 -0.36120756259E+02 -0.86733771100E+02  0.98957375574E+02  0.00000000000E+00 0. -1.
</event>
<event>
 7    1  0.2648915E-009  0.1102458E+03  0.7561462E-02  0.1260115E+00
          2   -1    0    0  501    0  0.00000000000E+00  0.00000000000E+00  0.12141969793E+04  0.12141969793E+04  0.00000000000E+00 0. -1.
         -2   -1    0    0    0  501 -0.00000000000E+00 -0.00000000000E+00 -0.25602980899E+02  0.25602980899E+02  0.00000000000E+00 0.  1.
         25    2    1    2    0    0 -0.71208752931E+02  0.78610813204E+01  0.10414337136E+04  0.10513627826E+04  0.12508811937E+03 0.  0.
          5    1    3    3  502    0 -0.10447100795E+03  0.15264026426E+02  0.66205042595E+03  0.67042928106E+03  0.41800000000E+01 0.  1.
         -5    1    3    3    0  502  0.33262255018E+02 -0.74029451056E+01  0.37938328766E+03  0.38093350149E+03  0.41800000000E+01 0.  1.
        -11    1    1    2    0    0  0.47033987525E+02  0.12746893629E+02  0.14885204504E+03  0.15662570221E+03  0.00000000000E+00 0. -1.
         11    1    1    2    0    0  0.24174765406E+02 -0.20607974950E+02 -0.16917602872E+01  0.31811475395E+02  0.00000000000E+00 0.  1.
</event>
<event>
 7    1  0.2648915E-009  0.1733346E+03  0.7561462E-02  0.1174414E+00
         -2   -1    0    0    0  501 -0.00000000000E+00  0.00000000000E+00  0.36853699237E+02  0.36853699237E+02  0.00000000000E+00 0. -1.
          2   -1    0    0  501    0  0.00000000000E+00 -0.00000000000E+00 -0.90750468385E+03  0.90750468385E+03  0.00000000000E+00 0.  1.
         25    2    1    2    0    0 -0.14454604402E+03  0.20911458465E+02 -0.48721103684E+03  0.52378924401E+03  0.12509888003E+03 0.  0.
          5    1    3    3  502    0 -0.15976493142E+03  0.18552373433E+02 -0.48005638290E+03  0.50630092537E+03  0.41800000000E+01 0.  1.
         -5    1    3    3    0  502  0.15218887394E+02  0.23590850319E+01 -0.71546539373E+01  0.17488318635E+02  0.41800000000E+01 0.  1.
        -11    1    1    2    0    0  0.12094416679E+03  0.20000576299E+02 -0.30877740492E+03  0.33222131226E+03  0.00000000000E+00 0.  1.
         11    1    1    2    0    0  0.23601877231E+02 -0.40912034764E+02 -0.74662542851E+02  0.88347826812E+02  0.00000000000E+00 0. -1.
</event>
<event>
 7    1  0.2648915E-009  0.1461353E+03  0.7561462E-02  0.1205304E+00
          2   -1    0    0  501    0  0.00000000000E+00  0.00000000000E+00  0.14718428580E+04  0.14718428580E+04  0.00000000000E+00 0. -1.
         -2   -1    0    0    0  501 -0.00000000000E+00 -0.00000000000E+00 -0.17795609154E+02  0.17795609154E+02  0.00000000000E+00 0.  1.
         25    2    1    2    0    0 -0.91660404166E+02  0.63836122428E+02  0.97837138471E+03  0.99264215967E+03  0.12510479814E+03 0.  0.
          5    1    3    3  502    0 -0.11318950845E+03  0.64990741298E+02  0.62024527224E+03  0.63384330194E+03  0.41800000000E+01 0. -1.
         -5    1    3    3    0  502  0.21529104286E+02 -0.11546188697E+01  0.35812611247E+03  0.35879885773E+03  0.41800000000E+01 0. -1.
        -11    1    1    2    0    0  0.15666803225E+02 -0.61742248171E+02  0.27803706996E+03  0.28524054096E+03  0.00000000000E+00 0. -1.
         11    1    1    2    0    0  0.75993600941E+02 -0.20938742574E+01  0.19763879412E+03  0.21175576648E+03  0.00000000000E+00 0.  1.
</event>
<event>
 7    1  0.2648915E-009  0.1541285E+03  0.7561462E-02  0.1195490E+00
         -1   -1    0    0    0  501 -0.00000000000E+00  0.00000000000E+00  0.74782346949E+02  0.74782346949E+02  0.00000000000E+00 0.  1.
          1   -1    0    0  501    0  0.00000000000E+00 -0.00000000000E+00 -0.36540821841E+03  0.36540821841E+03  0.00000000000E+00 0. -1.
         25    2    1    2    0    0  0.12211501760E+03  0.17540724837E+02 -0.14639959848E+03  0.22869942062E+03  0.12510326935E+03 0.  0.
          5    1    3    3  502    0 -0.21258033564E+02 -0.10962064114E+01  0.16086460196E+01  0.21752374618E+02  0.41800000000E+01 0.  1.
         -5    1    3    3    0  502  0.14337305117E+03  0.18636931249E+02 -0.14800824450E+03  0.20694704600E+03  0.41800000000E+01 0.  1.
        -11    1    1    2    0    0  0.54633980595E+01 -0.13184545968E+02  0.49931180066E+01  0.15119927188E+02  0.00000000000E+00 0.  1.
         11    1    1    2    0    0 -0.12757841566E+03 -0.43561788693E+01 -0.14921939098E+03  0.19637121755E+03  0.00000000000E+00 0. -1.
</event>
<event>
 7    1  0.2648915E-009  0.1654278E+03  0.7561462E-02  0.1182702E+00
          2   -1    0    0  501    0  0.00000000000E+00  0.00000000000E+00  0.71161786347E+03  0.71161786347E+03  0.00000000000E+00 0. -1.
         -2   -1    0    0    0  501 -0.00000000000E+00 -0.00000000000E+00 -0.45780844066E+02  0.45780844066E+02  0.00000000000E+00 0.  1.
         25    2    1    2    0    0 -0.61631842006E+02  0.12925445314E+03  0.37772087703E+03  0.42287838468E+03  0.12509144526E+03 0.  0.
          5    1    3    3  502    0 -0.69241015444E+02  0.14433235871E+03  0.27122668277E+03  0.31497227471E+03  0.41800000000E+01 0. -1.
         -5    1    3    3    0  502  0.76091734383E+01 -0.15077905571E+02  0.10649419426E+03  0.10790610997E+03  0.41800000000E+01 0. -1.
        -11    1    1    2    0    0  0.27660578721E+02 -0.10146348781E+02  0.11843469565E+02  0.31754114380E+02  0.00000000000E+00 0.  1.
         11    1    1    2    0    0  0.33971263285E+02 -0.11910810436E+03  0.27627267281E+03  0.30276620848E+03  0.00000000000E+00 0. -1.
</event>
<event>
 7    1  0.2648915E-009  0.1902634E+03  0.7561462E-02  0.1158224E+00
          1   -1    0    0  501    0  0.00000000000E+00  0.00000000000E+00  0.96615955253E+03  0.96615955253E+03  0.00000000000E+00 0. -1.
         -1   -1    0    0    0  501 -0.00000000000E+00 -0.00000000000E+00 -0.48898574771E+02  0.48898574771E+02  0.00000000000E+00 0.  1.
         25    2    1    2    0    0  0.11252533971E+03 -0.14080578928E+03  0.35243628529E+03  0.41514707907E+03  0.12509012630E+03 0.  0.
          5    1    3    3  502    0  0.17130822630E+02 -0.12964134750E+01  0.15160685697E+03  0.15263439079E+03  0.41800000000E+01 0.  1.
         -5    1    3    3    0  502  0.95394517083E+02 -0.13950937580E+03  0.20082942832E+03  0.26251268827E+03  0.41800000000E+01 0.  1.
        -11    1    1    2    0    0 -0.26536997752E+02 -0.25099958659E+01  0.32875007075E+02  0.42323497245E+02  0.00000000000E+00 0.  1.
         11    1    1    2    0    0 -0.85988341961E+02  0.14331578514E+03  0.53194968539E+03  0.55758755099E+03  0.00000000000E+00 0. -1.
</event>
<event>
 7    1  0.2648915E-009  0.2495684E+03  0.7561462E-02  0.1113578E+00
         -1   -1    0    0    0  501 -0.00000000000E+00  0.00000000000E+00  0.32589475505E+03  0.32589475505E+03  0.00000000000E+00 0.  1.
          1   -1    0    0  501    0  0.00000000000E+00 -0.00000000000E+00 -0.28714763711E+03  0.28714763711E+03  0.00000000000E+00 0. -1.
         25    2    1    2    0    0  0.14131699409E+02 -0.23178882476E+03 -0.14689657082E+03  0.30191291160E+03  0.12508812677E+03 0.  0.
          5    1    3    3  502    0 -0.32250551118E+02 -0.30281677444E+02 -0.66580115654E+02  0.80046625393E+02  0.41800000000E+01 0. -1.
         -5    1    3    3    0  502  0.46382250528E+02 -0.20150714732E+03 -0.80316455165E+02  0.22186628621E+03  0.41800000000E+01 0. -1.
        -11    1    1    2    0    0 -0.30413348874E+02  0.22179795723E+02  0.42564464439E+02  0.56821199926E+02  0.00000000000E+00 0.  1.
         11    1    1    2    0    0  0.16281649465E+02  0.20960902904E+03  0.14307922432E+03  0.25430828063E+03  0.00000000000E+00 0. -1.
</event>
<event>
 7    1  0.2648915E-009  0.6256648E+02  0.7561462E-02  0.1387366E+00
          1   -1    0    0  501    0  0.00000000000E+00  0.00000000000E+00  0.21823832793E+03  0.21823832793E+03  0.00000000000E+00 0. -1.
         -1   -1    0    0    0  501 -0.00000000000E+00 -0.00000000000E+00 -0.73261896421E+02  0.73261896421E+02  0.00000000000E+00 0.  1.
         25    2    1    2    0    0 -0.91957237268E+01  0.28765277786E+02  0.14195482479E+03  0.19160845431E+03  0.12510245777E+03 0.  0.
          5    1    3    3  502    0 -0.12396739249E+02  0.39105910441E+02  0.16269685343E+03  0.16784126397E+03  0.41800000000E+01 0.  1.
         -5    1    3    3    0  502  0.32010155220E+01 -0.10340632655E+02 -0.20742028642E+02  0.23767190331E+02  0.41800000000E+01 0.  1.
        -11    1    1    2    0    0 -0.14215038071E+01  0.21182050365E+02 -0.31692583606E+02  0.38146032380E+02  0.00000000000E+00 0.  1.
         11    1    1    2    0    0  0.10617227534E+02 -0.49947328151E+02  0.34714190322E+02  0.61745737664E+02  0.00000000000E+00 0. -1.
</event>
<event>
 7    1  0.2648915E-009  0.1722607E+03  0.7561462E-02  0.1175511E+00
         -1   -1    0    0    0  501 -0.00000000000E+00  0.00000000000E+00  0.22974878784E+03  0.22974878784E+03  0.00000000000E+00 0.  1.
          1   -1    0    0  501    0  0.00000000000E+00 -0.00000000000E+00 -0.15159099922E+03  0.15159099922E+03  0.00000000000E+00 0. -1.
         25    2    1    2    0    0 -0.12440629517E+03 -0.47744314163E+02 -0.31038266986E+02  0.18538543031E+03  0.12509171812E+03 0.  0.
          5    1    3    3  502    0  0.24606815867E+02 -0.15331792404E+02  0.17592548272E+01  0.29344959073E+02  0.41800000000E+01 0.  1.
         -5    1    3    3    0  502 -0.14901311104E+03 -0.32412521759E+02 -0.32797521814E+02  0.15604047124E+03  0.41800000000E+01 0.  1.
        -11    1    1    2    0    0  0.13992754592E+03  0.41589464742E+02  0.99201550769E+02  0.17649461567E+03  0.00000000000E+00 0.  1.
         11    1    1    2    0    0 -0.15521250752E+02  0.61548494216E+01  0.99945048359E+01  0.19459741088E+02  0.00000000000E+00 0. -1.
</event>
<event>
 7    1  0.2648915E-009  0.2148672E+03  0.7561462E-02  0.1137769E+00
          2   -1    0    0  501    0  0.00000000000E+00  0.00000000000E+00  0.35761525301E+03  0.35761525301E+03  0.00000000000E+00 0. -1.
         -2   -1    0    0    0  501 -0.00000000000E+00 -0.00000000000E+00 -0.15441261690E+03  0.15441261690E+03  0.00000000000E+00 0.  1.
         25    2    1    2    0    0 -0.18446983556E+03 -0.71020801057E+02  0.34392033857E+02  0.23644074622E+03  0.12509332542E+03 0.  0.
          5    1    3    3  502    0 -0.13640824414E+03 -0.25213381506E+00 -0.15452383289E+02  0.13734453462E+03  0.41800000000E+01 0. -1.
         -5    1    3    3    0  502 -0.48061591425E+02 -0.70768667242E+02  0.49844417146E+02  0.99096211603E+02  0.41800000000E+01 0. -1.
        -11    1    1    2    0    0  0.59164975194E+02 -0.76535219293E+01  0.13667551828E+02  0.61203534706E+02  0.00000000000E+00 0.  1.
         11    1    1    2    0    0  0.12530486037E+03  0.78674322987E+02  0.15514305042E+03  0.21438358898E+03  0.00000000000E+00 0. -1.
</event>
<event>
 7    1  0.2648915E-009  0.1291742E+03  0.7561462E-02  0.1228686E+00
         -4   -1    0    0    0  501 -0.00000000000E+00  0.00000000000E+00  0.90712235472E+02  0.90712235472E+02  0.00000000000E+00 0.  1.
          4   -1    0    0  501    0  0.00000000000E+00 -0.00000000000E+00 -0.27665156738E+03  0.27665156738E+03  0.00000000000E+00 0. -1.
         25    2    1    2    0    0 -0.10021322532E+03  0.23211169105E+02 -0.42854578018E+02  0.16752304874E+03  0.12508400418E+03 0.  0.
          5    1    3    3  502    0 -0.76970103405E+02  0.68495461506E+02 -0.37285908409E+01  0.10318623869E+03  0.41800000000E+01 0.  1.
         -5    1    3    3    0  502 -0.23243121912E+02 -0.45284292401E+02 -0.39125987177E+02  0.64336810047E+02  0.41800000000E+01 0.  1.
        -11    1    1    2    0    0  0.78612925183E+02 -0.11098262610E+02 -0.31290118634E+02  0.85336012111E+02  0.00000000000E+00 0.  1.
         11    1    1    2    0    0  0.21600300134E+02 -0.12112906495E+02 -0.11179463526E+03  0.11450474201E+03  0.00000000000E+00 0. -1.
</event>
<event>
 7    1  0.2648915E-009  0.3830118E+02  0.7561462E-02  0.1521099E+00
          3   -1    0    0  501    0  0.00000000000E+00  0.00000000000E+00  0.83400195991E+02  0.83400195991E+02  0.00000000000E+00 0. -1.
         -3   -1    0    0    0  501 -0.00000000000E+00 -0.00000000000E+00 -0.15296135372E+03  0.15296135372E+03  0.00000000000E+00 0.  1.
         25    2    1    2    0    0 -0.17568574545E+02 -0.19261111865E+02 -0.69955508208E+02  0.14567481718E+03  0.12509090290E+03 0.  0.
          5    1    3    3  502    0 -0.26168982776E+02 -0.27283365677E+02 -0.10329516734E+03  0.11007525470E+03  0.41800000000E+01 0. -1.
         -5    1    3    3    0  502  0.86004082306E+01  0.80222538121E+01  0.33339659128E+02  0.35599562479E+02  0.41800000000E+01 0. -1.
        -11    1    1    2    0    0  0.66835402753E+01  0.79786689642E+01 -0.43159766554E+02  0.44397007985E+02  0.00000000000E+00 0.  1.
         11    1    1    2    0    0  0.10885034270E+02  0.11282442901E+02  0.43554117029E+02  0.46289724551E+02  0.00000000000E+00 0. -1.
</event>
<event>
 7    1  0.2648915E-009  0.7722051E+02  0.7561462E-02  0.1337130E+00
         -2   -1    0    0    0  501 -0.00000000000E+00  0.00000000000E+00  0.21576688768E+03  0.21576688768E+03  0.00000000000E+00 0.  1.
          2   -1    0    0  501    0  0.00000000000E+00 -0.00000000000E+00 -0.64431847507E+02  0.64431847507E+02  0.00000000000E+00 0. -1.
         25    2    1    2    0    0  0.44114541062E+01 -0.46033293905E+02  0.78397553794E+02  0.15470181488E+03  0.12509176636E+03 0.  0.
          5    1    3    3  502    0 -0.19655109895E+02 -0.16898048738E+01  0.98267943864E+02  0.10031570155E+03  0.41800000000E+01 0.  1.
         -5    1    3    3    0  502  0.24066564001E+02 -0.44343489031E+02 -0.19870390070E+02  0.54386113336E+02  0.41800000000E+01 0.  1.
        -11    1    1    2    0    0 -0.36301515900E+02  0.15411361182E+02 -0.88559692563E+00  0.39447362295E+02  0.00000000000E+00 0. -1.
         11    1    1    2    0    0  0.31890061794E+02  0.30621932723E+02  0.73823083308E+02  0.86049558012E+02  0.00000000000E+00 0.  1.
</event>
<event>
 7    1  0.4511096E-009  0.9252247E+02  0.7561462E-02  0.1296856E+00
          4   -1    0    0  501    0  0.00000000000E+00  0.00000000000E+00  0.20262805980E+04  0.20262805980E+04  0.00000000000E+00 0.  1.
         -4   -1    0    0    0  501 -0.00000000000E+00 -0.00000000000E+00 -0.92004297652E+01  0.92004297652E+01  0.00000000000E+00 0. -1.
         25    2    1    2    0    0  0.49283096775E+02 -0.46798036255E+02  0.14622074402E+04  0.14691210924E+04  0.12508919203E+03 0.  0.
          5    1    3    3  502    0  0.42503304832E+02 -0.23270444825E+02  0.14144883689E+04  0.14153242960E+04  0.41800000000E+01 0.  1.
         -5    1    3    3    0  502  0.67797919426E+01 -0.23527591430E+02  0.47719071295E+02  0.53796796397E+02  0.41800000000E+01 0.  1.
        -11    1    1    2    0    0  0.46367444125E+01  0.56579604054E+02  0.33403258510E+03  0.33882225267E+03  0.00000000000E+00 0.  1.
         11    1    1    2    0    0 -0.53919841187E+02 -0.97815677992E+01  0.22084014289E+03  0.22753768271E+03  0.00000000000E+00 0. -1.
</event>
<event>
 7    1  0.2648915E-009  0.1241807E+03  0.7561462E-02  0.1236355E+00
          2   -1    0    0  501    0  0.00000000000E+00  0.00000000000E+00  0.59902629753E+03  0.59902629753E+03  0.00000000000E+00 0. -1.
         -2   -1    0    0    0  501 -0.00000000000E+00 -0.00000000000E+00 -0.51270390097E+02  0.51270390097E+02  0.00000000000E+00 0.  1.
         25    2    1    2    0    0  0.66964725081E+02  0.87005462582E+02  0.44382779673E+03  0.47400950046E+03  0.12509064095E+03 0.  0.
          5    1    3    3  502    0  0.29005285381E+02  0.67140504180E+02  0.83338389002E+02  0.11095906165E+03  0.41800000000E+01 0.  1.
         -5    1    3    3    0  502  0.37959439700E+02  0.19864958402E+02  0.36048940773E+03  0.36305043881E+03  0.41800000000E+01 0.  1.
        -11    1    1    2    0    0 -0.13150140536E+02 -0.75999746255E+02  0.92044766044E+02  0.12008799517E+03  0.00000000000E+00 0. -1.
         11    1    1    2    0    0 -0.53814584545E+02 -0.11005716327E+02  0.11883344664E+02  0.56199192005E+02  0.00000000000E+00 0.  1.
</event>
<event>
 7    1  0.2648915E-009  0.1228423E+03  0.7561462E-02  0.1238480E+00
          1   -1    0    0  501    0  0.00000000000E+00  0.00000000000E+00  0.37132366667E+03  0.37132366667E+03  0.00000000000E+00 0. -1.
         -1   -1    0    0    0  501 -0.00000000000E+00 -0.00000000000E+00 -0.44115412110E+02  0.44115412110E+02  0.00000000000E+00 0.  1.
         25    2    1    2    0    0  0.34125423057E+02 -0.83431344501E+02  0.16768757882E+03  0.22779774890E+03  0.12508939432E+03 0.  0.
          5    1    3    3  502    0  0.53482401506E+02  0.13344059908E+02  0.55844772217E+02  0.78578255196E+02  0.41800000000E+01 0. -1.
         -5    1    3    3    0  502 -0.19356978449E+02 -0.96775404409E+02  0.11184280660E+03  0.14921949371E+03  0.41800000000E+01 0. -1.
        -11    1    1    2    0    0 -0.49782614321E+01  0.33014664990E+02  0.27173617195E+02  0.43048306154E+02  0.00000000000E+00 0.  1.
         11    1    1    2    0    0 -0.29147161625E+02  0.50416679512E+02  0.13234705854E+03  0.14459302372E+03  0.00000000000E+00 0. -1.
</event>
<event>
 7    1  0.2648915E-009  0.9602474E+02  0.7561462E-02  0.1288885E+00
         -1   -1    0    0    0  501 -0.00000000000E+00  0.00000000000E+00  0.13208758773E+03  0.13208758773E+03  0.00000000000E+00 0.  1.
          1   -1    0    0  501    0  0.00000000000E+00 -0.00000000000E+00 -0.39121164188E+03  0.39121164188E+03  0.00000000000E+00 0. -1.
         25    2    1    2    0    0  0.44536738223E+02  0.65667556970E+01 -0.35741561929E+03  0.38134058576E+03  0.12509226237E+03 0.  0.
          5    1    3    3  502    0  0.11014568782E+02 -0.40414189212E+02 -0.28758773702E+03  0.29065238051E+03  0.41800000000E+01 0.  1.
         -5    1    3    3    0  502  0.33522169441E+02  0.46980944909E+02 -0.69827882277E+02  0.90688205252E+02  0.41800000000E+01 0.  1.
        -11    1    1    2    0    0 -0.22108095559E+02  0.36991260899E+02  0.77624869193E+02  0.88784804947E+02  0.00000000000E+00 0.  1.
         11    1    1    2    0    0 -0.22428642664E+02 -0.43558016596E+02  0.20666695952E+02  0.53173838897E+02  0.00000000000E+00 0. -1.
</event>
<event>
 7    1  0.2648915E-009  0.1152823E+03  0.7561462E-02  0.1251089E+00
          2   -1    0    0  501    0  0.00000000000E+00  0.00000000000E+00  0.52231920492E+03  0.52231920492E+03  0.00000000000E+00 0. -1.
         -2   -1    0    0    0  501 -0.00000000000E+00 -0.00000000000E+00 -0.40797457807E+02  0.40797457807E+02  0.00000000000E+00 0.  1.
         25    2    1    2    0    0  0.66467657366E+02 -0.69233808700E+02  0.28763610569E+03  0.32801370932E+03  0.12508874634E+03 0.  0.
          5    1    3    3  502    0  0.17434941091E+02 -0.92686801901E+01 -0.84898062122E+01  0.21895999928E+02  0.41800000000E+01 0. -1.
         -5    1    3    3    0  502  0.49032716275E+02 -0.59965128510E+02  0.29612591190E+03  0.30611770939E+03  0.41800000000E+01 0. -1.
        -11    1    1    2    0    0 -0.42936855437E+01 -0.21993981340E+02  0.37246315882E+02  0.43467907673E+02  0.00000000000E+00 0.  1.
         11    1    1    2    0    0 -0.62173971823E+02  0.91227790040E+02  0.15663932554E+03  0.19163504573E+03  0.00000000000E+00 0. -1.
</event>
<event>
 7    1  0.2648915E-009  0.1386921E+03  0.7561462E-02  0.1215100E+00
         -1   -1    0    0    0  501 -0.00000000000E+00  0.00000000000E+00  0.23531008020E+03  0.23531008020E+03  0.00000000000E+00 0.  1.
          1   -1    0    0  501    0  0.00000000000E+00 -0.00000000000E+00 -0.11933943793E+03  0.11933943793E+03  0.00000000000E+00 0. -1.
         25    2    1    2    0    0 -0.12038025535E+03  0.30228954875E+02  0.89901557892E+02  0.19782574162E+03  0.12509012089E+03 0.  0.
          5    1    3    3  502    0 -0.12338038795E+03  0.26866612752E+02  0.11569465257E+03  0.17131042013E+03  0.41800000000E+01 0.  1.
         -5    1    3    3    0  502  0.30001325999E+01  0.33623421225E+01 -0.25793094682E+02  0.26515321485E+02  0.41800000000E+01 0.  1.
        -11    1    1    2    0    0  0.93906716084E+02  0.12394439105E+02  0.42786489580E+02  0.10393640910E+03  0.00000000000E+00 0.  1.
         11    1    1    2    0    0  0.26473539267E+02 -0.42623393980E+02 -0.16717405203E+02  0.52887367418E+02  0.00000000000E+00 0. -1.
</event>
<event>
 7    1  0.2648915E-009  0.1237792E+03  0.7561462E-02  0.1236990E+00
         -1   -1    0    0    0  501 -0.00000000000E+00  0.00000000000E+00  0.45027459675E+02  0.45027459675E+02  0.00000000000E+00 0.  1.
          1   -1    0    0  501    0  0.00000000000E+00 -0.00000000000E+00 -0.48087749834E+03  0.48087749834E+03  0.00000000000E+00 0. -1.
         25    2    1    2    0    0 -0.77327647879E+02 -0.60588466322E+02 -0.22733545464E+03  0.27745374528E+03  0.12509454207E+03 0.  0.
          5    1    3    3  502    0  0.38924790967E+01 -0.33747481889E+02 -0.17226731781E+03  0.17563469223E+03  0.41800000000E+01 0.  1.
         -5    1    3    3    0  502 -0.81220126976E+02 -0.26840984432E+02 -0.55068136829E+02  0.10181905306E+03  0.41800000000E+01 0.  1.
        -11    1    1    2    0    0  0.26633239438E+01  0.52522377719E+02 -0.12782886052E+03  0.13822413334E+03  0.00000000000E+00 0. -1.
         11    1    1    2    0    0  0.74664323935E+02  0.80660886026E+01 -0.80685723504E+02  0.11022707939E+03  0.00000000000E+00 0.  1.
</event>
<event>
 7    1  0.2648915E-009  0.1378360E+03  0.7561462E-02  0.1216271E+00
          3   -1    0    0  501    0  0.00000000000E+00  0.00000000000E+00  0.28863384602E+02  0.28863384602E+02  0.00000000000E+00 0. -1.
         -3   -1    0    0    0  501 -0.00000000000E+00 -0.00000000000E+00 -0.78620847562E+03  0.78620847562E+03  0.00000000000E+00 0.  1.
         25    2    1    2    0    0  0.11410086792E+03  0.34879316266E+02 -0.51507761631E+03  0.54331195581E+03  0.12508939101E+03 0.  0.
          5    1    3    3  502    0  0.15459196093E+02 -0.30884212226E+02 -0.37208956795E+02  0.50939181132E+02  0.41800000000E+01 0.  1.
         -5    1    3    3    0  502  0.98641671829E+02  0.65763528491E+02 -0.47786865951E+03  0.49237277468E+03  0.41800000000E+01 0.  1.
        -11    1    1    2    0    0 -0.10117655059E+03 -0.39379194934E+02 -0.20354476099E+03  0.23069001953E+03  0.00000000000E+00 0. -1.
         11    1    1    2    0    0 -0.12924317333E+02  0.44998786681E+01 -0.38722713719E+02  0.41069884883E+02  0.00000000000E+00 0.  1.
</event>
<event>
 7    1  0.2648915E-009  0.8859433E+02  0.7561462E-02  0.1306292E+00
          2   -1    0    0  501    0  0.00000000000E+00  0.00000000000E+00  0.66039819932E+02  0.66039819932E+02  0.00000000000E+00 0. -1.
         -2   -1    0    0    0  501 -0.00000000000E+00 -0.00000000000E+00 -0.23559444946E+03  0.23559444946E+03  0.00000000000E+00 0.  1.
         25    2    1    2    0    0 -0.45112718095E+02  0.21828911837E+02 -0.13916704538E+03  0.19371851925E+03  0.12509092475E+03 0.  0.
          5    1    3    3  502    0  0.80729356868E+01  0.30702955333E+02 -0.13580780038E+03  0.13953162652E+03  0.41800000000E+01 0.  1.
         -5    1    3    3    0  502 -0.53185653781E+02 -0.88740434969E+01 -0.33592449999E+01  0.54186892724E+02  0.41800000000E+01 0.  1.
        -11    1    1    2    0    0 -0.14593939014E+01 -0.40779316134E+02 -0.39528211480E+02  0.56811635760E+02  0.00000000000E+00 0.  1.
         11    1    1    2    0    0  0.46572111996E+02  0.18950404297E+02  0.91406273326E+01  0.51104114382E+02  0.00000000000E+00 0. -1.
</event>
<event>
 7    1  0.2648915E-009  0.1176961E+03  0.7561462E-02  0.1246947E+00
          4   -1    0    0  501    0  0.00000000000E+00  0.00000000000E+00  0.52819305736E+03  0.52819305736E+03  0.00000000000E+00 0. -1.
         -4   -1    0    0    0  501 -0.00000000000E+00 -0.00000000000E+00 -0.30869815966E+02  0.30869815966E+02  0.00000000000E+00 0.  1.
         25    2    1    2    0    0 -0.30499478630E+02 -0.54590828277E+02  0.21716391494E+03  0.25829772964E+03  0.12508866639E+03 0.  0.
          5    1    3    3  502    0  0.70966219205E+01 -0.80868516173E+02  0.81834259360E+02  0.11534468933E+03  0.41800000000E+01 0. -1.
         -5    1    3    3    0  502 -0.37596100550E+02  0.26277687896E+02  0.13532965558E+03  0.14295304032E+03  0.41800000000E+01 0. -1.
        -11    1    1    2    0    0  0.42818555172E+02 -0.85932608414E+01  0.13714352096E+03  0.14392921226E+03  0.00000000000E+00 0. -1.
         11    1    1    2    0    0 -0.12319076542E+02  0.63184089118E+02  0.14301580549E+03  0.15683593142E+03  0.00000000000E+00 0.  1.
</event>
<event>
 7    1  0.2648915E-009  0.1897801E+03  0.7561462E-02  0.1158660E+00
          1   -1    0    0  501    0  0.00000000000E+00  0.00000000000E+00  0.43838993555E+03  0.43838993555E+03  0.00000000000E+00 0. -1.
         -1   -1    0    0    0  501 -0.00000000000E+00 -0.00000000000E+00 -0.87342863562E+02  0.87342863562E+02  0.00000000000E+00 0.  1.
         25    2    1    2    0    0  0.10789241857E+03 -0.11798145090E+03  0.15446574737E+03  0.25508514389E+03  0.12509343220E+03 0.  0.
          5    1    3    3  502    0  0.13083900007E+03 -0.91459186600E+02  0.15069025395E+03  0.21956468702E+03  0.41800000000E+01 0.  1.
         -5    1    3    3    0  502 -0.22946581491E+02 -0.26522264298E+02  0.37754934239E+01  0.35520456869E+02  0.41800000000E+01 0.  1.
        -11    1    1    2    0    0 -0.37604494553E+02 -0.96692599723E+01  0.56184207040E+02  0.68295371144E+02  0.00000000000E+00 0. -1.
         11    1    1    2    0    0 -0.70287924022E+02  0.12765071087E+03  0.14039711758E+03  0.20235228408E+03  0.00000000000E+00 0.  1.
</event>
<event>
 7    1  0.2757678E-009  0.1084734E+03  0.7561462E-02  0.1263423E+00
          1   -1    0    0  501    0  0.00000000000E+00  0.00000000000E+00  0.66539689764E+03  0.66539689764E+03  0.00000000000E+00 0. -1.
         -1   -1    0    0    0  501 -0.00000000000E+00 -0.00000000000E+00 -0.24881243907E+02  0.24881243907E+02  0.00000000000E+00 0.  1.
         25    2    1    2    0    0  0.12868892880E+02  0.28534079266E+02  0.51948793406E+03  0.53525256041E+03  0.12509111762E+03 0.  0.
          5    1    3    3  502    0 -0.39231461569E+02 -0.30432341510E+02  0.18305159301E+03  0.18971186861E+03  0.41800000000E+01 0.  1.
         -5    1    3    3    0  502  0.52100354449E+02  0.58966420776E+02  0.33643634105E+03  0.34554069180E+03  0.41800000000E+01 0.  1.
        -11    1    1    2    0    0  0.23855356075E+02 -0.42740211558E+02  0.34273547439E+02  0.59753491542E+02  0.00000000000E+00 0.  1.
         11    1    1    2    0    0 -0.36724248955E+02  0.14206132292E+02  0.86754172237E+02  0.95272089599E+02  0.00000000000E+00 0. -1.
</event>
<event>
 7    1  0.2648915E-009  0.1097512E+03  0.7561462E-02  0.1261031E+00
          1   -1    0    0  501    0  0.00000000000E+00  0.00000000000E+00  0.16627473175E+04  0.16627473175E+04  0.00000000000E+00 0. -1.
         -1   -1    0    0    0  501 -0.00000000000E+00 -0.00000000000E+00 -0.10055647068E+02  0.10055647068E+02  0.00000000000E+00 0.  1.
         25    2    1    2    0    0  0.14782654574E+02  0.10595024781E+02  0.13540181256E+04  0.13599055147E+04  0.12508854110E+03 0.  0.
          5    1    3    3  502    0  0.34995878534E+02  0.61819258580E+02  0.75131630845E+03  0.75467873959E+03  0.41800000000E+01 0. -1.
         -5    1    3    3    0  502 -0.20213223961E+02 -0.51224233799E+02  0.60270181710E+03  0.60522677509E+03  0.41800000000E+01 0. -1.
        -11    1    1    2    0    0  0.29400049869E+02  0.23231384855E+02  0.11151327742E+03  0.11764043190E+03  0.00000000000E+00 0.  1.
         11    1    1    2    0    0 -0.44182704442E+02 -0.33826409636E+02  0.18716026747E+03  0.19525701800E+03  0.00000000000E+00 0. -1.
</event>
<event>
 7    1  0.2648915E-009  0.1526286E+03  0.7561462E-02  0.1197280E+00
         -2   -1    0    0    0  501 -0.00000000000E+00  0.00000000000E+00  0.90102160528E+02  0.90102160528E+02  0.00000000000E+00 0.  1.
          2   -1    0    0  501    0  0.00000000000E+00 -0.00000000000E+00 -0.34663596538E+03  0.34663596538E+03  0.00000000000E+00 0. -1.
         25    2    1    2    0    0  0.10939223252E+03 -0.82879521819E+02 -0.16556665194E+03  0.24878741722E+03  0.12508871676E+03 0.  0.
          5    1    3    3  502    0  0.55004590600E+02  0.17200695268E+01 -0.13134408943E+03  0.14246826263E+03  0.41800000000E+01 0. -1.
         -5    1    3    3    0  502  0.54387641915E+02 -0.84599591346E+02 -0.34222562508E+02  0.10631915459E+03  0.41800000000E+01 0. -1.
        -11    1    1    2    0    0 -0.74566656981E+02  0.86719621508E+02 -0.99829670303E+02  0.15181054694E+03  0.00000000000E+00 0. -1.
         11    1    1    2    0    0 -0.34825575534E+02 -0.38400996892E+01  0.88625173938E+01  0.36140161752E+02  0.00000000000E+00 0.  1.
</event>
<event>
 7    1  0.2648915E-009  0.1127735E+03  0.7561462E-02  0.1255518E+00
          1   -1    0    0  501    0  0.00000000000E+00  0.00000000000E+00  0.28088419062E+03  0.28088419062E+03  0.00000000000E+00 0. -1.
         -1   -1    0    0    0  501 -0.00000000000E+00 -0.00000000000E+00 -0.62035189785E+02  0.62035189785E+02  0.00000000000E+00 0.  1.
         25    2    1    2    0    0 -0.70849326925E+02 -0.17184503189E+02  0.14286738020E+03  0.20341247492E+03  0.12510240745E+03 0.  0.
          5    1    3    3  502    0  0.12617958551E-01  0.26437404550E+02 -0.10599060496E+02  0.28788001007E+02  0.41800000000E+01 0.  1.
         -5    1    3    3    0  502 -0.70861944884E+02 -0.43621907739E+02  0.15346644070E+03  0.17462447391E+03  0.41800000000E+01 0.  1.
        -11    1    1    2    0    0  0.78841388451E+02  0.42044022864E+02  0.48777476971E+02  0.10179836271E+03  0.00000000000E+00 0.  1.
         11    1    1    2    0    0 -0.79920615258E+01 -0.24859519675E+02  0.27204143665E+02  0.37708542778E+02  0.00000000000E+00 0. -1.
</event>
<event>
 7    1  0.2648915E-009  0.1126394E+03  0.7561462E-02  0.1255759E+00
         -1   -1    0    0    0  501 -0.00000000000E+00  0.00000000000E+00  0.11899025870E+03  0.11899025870E+03  0.00000000000E+00 0.  1.
          1   -1    0    0  501    0  0.00000000000E+00 -0.00000000000E+00 -0.11350498417E+03  0.11350498417E+03  0.00000000000E+00 0. -1.
         25    2    1    2    0    0 -0.14220683370E+02 -0.34798793550E+02 -0.12524829347E+02  0.13121376553E+03  0.12508795724E+03 0.  0.
          5    1    3    3  502    0 -0.52465849529E+02 -0.63529705881E+02 -0.54613341702E+01  0.82680030643E+02  0.41800000000E+01 0. -1.
         -5    1    3    3    0  502  0.38245166159E+02  0.28730912331E+02 -0.70634951769E+01  0.48533734887E+02  0.41800000000E+01 0. -1.
        -11    1    1    2    0    0 -0.36046641914E+02  0.24123239879E+02 -0.73235700601E+01  0.43987791193E+02  0.00000000000E+00 0. -1.
         11    1    1    2    0    0  0.50267325284E+02  0.10675553671E+02  0.25333673942E+02  0.57293686152E+02  0.00000000000E+00 0.  1.
</event>
<event>
 7    1  0.2648915E-009  0.9646351E+02  0.7561462E-02  0.1287913E+00
         -2   -1    0    0    0  501 -0.00000000000E+00  0.00000000000E+00  0.49464478713E+02  0.49464478713E+02  0.00000000000E+00 0.  1.
          2   -1    0    0  501    0  0.00000000000E+00 -0.00000000000E+00 -0.44654699509E+03  0.44654699509E+03  0.00000000000E+00 0. -1.
         25    2    1    2    0    0  0.44004024785E+02  0.57992110573E+02 -0.97674917857E+02  0.17460362577E+03  0.12508636003E+03 0.  0.
          5    1    3    3  502    0  0.27632515976E+02  0.66634769098E+02  0.28388734223E+01  0.72313760753E+02  0.41800000000E+01 0. -1.
         -5    1    3    3    0  502  0.16371508809E+02 -0.86426585252E+01 -0.10051379128E+03  0.10228986501E+03  0.41800000000E+01 0. -1.
        -11    1    1    2    0    0 -0.58959857666E+01  0.16769862615E+02 -0.10690013167E+02  0.20742886052E+02  0.00000000000E+00 0.  1.
         11    1    1    2    0    0 -0.38108039018E+02 -0.74761973188E+02 -0.28871758535E+03  0.30066496198E+03  0.00000000000E+00 0. -1.
</event>
<event>
 7    1  0.2648915E-009  0.2031294E+03  0.7561462E-02  0.1147125E+00
          1   -1    0    0  501    0  0.00000000000E+00  0.00000000000E+00  0.59823590096E+03  0.59823590096E+03  0.00000000000E+00 0. -1.
         -1   -1    0    0    0  501 -0.00000000000E+00 -0.00000000000E+00 -0.91493278047E+02  0.91493278047E+02  0.00000000000E+00 0.  1.
         25    2    1    2    0    0 -0.67129218662E+02 -0.16578170507E+03  0.10776055629E+03  0.24341064244E+03  0.12508596094E+03 0.  0.
          5    1    3    3  502    0 -0.44511190787E+02 -0.18224567020E+03  0.10490153103E+03  0.21498031078E+03  0.41800000000E+01 0. -1.
         -5    1    3    3    0  502 -0.22618027875E+02  0.16463965124E+02  0.28590252579E+01  0.28430331655E+02  0.41800000000E+01 0. -1.
        -11    1    1    2    0    0  0.84431374375E+01  0.10675246104E+03  0.29031487563E+03  0.30943513298E+03  0.00000000000E+00 0. -1.
         11    1    1    2    0    0  0.58686081225E+02  0.59029244032E+02  0.10866719100E+03  0.13688340359E+03  0.00000000000E+00 0.  1.
</event>
<event>
 7    1  0.2648915E-009  0.1183518E+03  0.7561462E-02  0.1245841E+00
         -2   -1    0    0    0  501 -0.00000000000E+00  0.00000000000E+00  0.28145057794E+02  0.28145057794E+02  0.00000000000E+00 0.  1.
          2   -1    0    0  501    0  0.00000000000E+00 -0.00000000000E+00 -0.60326288712E+03  0.60326288712E+03  0.00000000000E+00 0. -1.
         25    2    1    2    0    0 -0.19835702544E+02  0.73839722918E+02 -0.40407924178E+03  0.42985145108E+03  0.12508587681E+03 0.  0.
          5    1    3    3  502    0 -0.33548707003E+02 -0.27791295273E+02 -0.11072419345E+03  0.11905961217E+03  0.41800000000E+01 0. -1.
         -5    1    3    3    0  502  0.13713004459E+02  0.10163101819E+03 -0.29335504833E+03  0.31079183891E+03  0.41800000000E+01 0. -1.
        -11    1    1    2    0    0  0.19733058227E+02 -0.35961316124E+01 -0.41435445508E+01  0.20481570033E+02  0.00000000000E+00 0.  1.
         11    1    1    2    0    0  0.10264431698E+00 -0.70243591306E+02 -0.16689504300E+03  0.18107492381E+03  0.00000000000E+00 0. -1.
</event>
<event>
 7    1  0.2648915E-009  0.8659671E+02  0.7561462E-02  0.1311309E+00
          1   -1    0    0  501    0  0.00000000000E+00  0.00000000000E+00  0.27648324201E+02  0.27648324201E+02  0.00000000000E+00 0. -1.
         -1   -1    0    0    0  501 -0.00000000000E+00 -0.00000000000E+00 -0.62616305886E+03  0.62616305886E+03  0.00000000000E+00 0.  1.
         25    2    1    2    0    0 -0.42548308120E+02  0.45436633366E+02 -0.23399282798E+03  0.27253549957E+03  0.12509240106E+03 0.  0.
          5    1    3    3  502    0 -0.18097597019E+02  0.21028157858E+02  0.71022987527E+01  0.28941691179E+02  0.41800000000E+01 0.  1.
         -5    1    3    3    0  502 -0.24450711101E+02  0.24408475508E+02 -0.24109512673E+03  0.24359380839E+03  0.41800000000E+01 0.  1.
        -11    1    1    2    0    0  0.71417554180E+02 -0.28718082918E+02 -0.22432048118E+03  0.23716001689E+03  0.00000000000E+00 0. -1.
         11    1    1    2    0    0 -0.28869246060E+02 -0.16718550448E+02 -0.14020142549E+03  0.14411586661E+03  0.00000000000E+00 0.  1.
</event>
<event>
 7    1  0.2648915E-009  0.1079480E+03  0.7561462E-02  0.1264418E+00
          4   -1    0    0  501    0  0.00000000000E+00  0.00000000000E+00  0.42004204600E+02  0.42004204600E+02  0.00000000000E+00 0. -1.
         -4   -1    0    0    0  501 -0.00000000000E+00 -0.00000000000E+00 -0.46157956850E+03  0.46157956850E+03  0.00000000000E+00 0.  1.
         25    2    1    2    0    0 -0.94159623906E+01  0.86460326446E+02 -0.21450134840E+03  0.26309990509E+03  0.12508670271E+03 0.  0.
          5    1    3    3  502    0 -0.75456035831E+01 -0.20031812727E+02 -0.11577844171E+03  0.11781481069E+03  0.41800000000E+01 0. -1.
         -5    1    3    3    0  502 -0.18703588076E+01  0.10649213917E+03 -0.98722906691E+02  0.14528509439E+03  0.41800000000E+01 0. -1.
        -11    1    1    2    0    0  0.40038068808E+01 -0.71039191351E+02 -0.21132822097E+03  0.22298478458E+03  0.00000000000E+00 0.  1.
         11    1    1    2    0    0  0.54121555098E+01 -0.15421135095E+02  0.62542054662E+01  0.17499083430E+02  0.00000000000E+00 0. -1.
</event>
<event>
 7    1  0.2648915E-009  0.1444958E+03  0.7561462E-02  0.1207404E+00
         -1   -1    0    0    0  501 -0.00000000000E+00  0.00000000000E+00  0.12032356282E+03  0.12032356282E+03  0.00000000000E+00 0.  1.
          1   -1    0    0  501    0  0.00000000000E+00 -0.00000000000E+00 -0.28810363895E+03  0.28810363895E+03  0.00000000000E+00 0. -1.
         25    2    1    2    0    0 -0.83319246286E+02  0.96133135283E+02 -0.17766610036E+03  0.25178646850E+03  0.12508999161E+03 0.  0.
          5    1    3    3  502    0 -0.35812900963E+02  0.68860909215E+02 -0.13785034863E+02  0.78942309818E+02  0.41800000000E+01 0. -1.
         -5    1    3    3    0  502 -0.47506345323E+02  0.27272226068E+02 -0.16388106550E+03  0.17284415868E+03  0.41800000000E+01 0. -1.
        -11    1    1    2    0    0 -0.10401880224E+02 -0.51461261226E+02  0.28324441107E+01  0.52578353520E+02  0.00000000000E+00 0.  1.
         11    1    1    2    0    0  0.93721126510E+02 -0.44671874056E+02  0.70535801227E+01  0.10406237975E+03  0.00000000000E+00 0. -1.
</event>
<event>
 7    1  0.2648915E-009  0.1515947E+03  0.7561462E-02  0.1198527E+00
          2   -1    0    0  501    0  0.00000000000E+00  0.00000000000E+00  0.16553005934E+04  0.16553005934E+04  0.00000000000E+00 0. -1.
         -2   -1    0    0    0  501 -0.00000000000E+00 -0.00000000000E+00 -0.15043927765E+02  0.15043927765E+02  0.00000000000E+00 0.  1.
         25    2    1    2    0    0 -0.97475230105E+02  0.58012031122E+02  0.83883413852E+03  0.85566212576E+03  0.12509254684E+03 0.  0.
          5    1    3    3  502    0 -0.11920691749E+03  0.62112958290E+02  0.79594492684E+03  0.80722618127E+03  0.41800000000E+01 0.  1.
         -5    1    3    3    0  502  0.21731687383E+02 -0.41009271677E+01  0.42889211676E+02  0.48435944487E+02  0.41800000000E+01 0.  1.
        -11    1    1    2    0    0  0.81766693130E+02 -0.83110929705E+02  0.65511387088E+03  0.66540769650E+03  0.00000000000E+00 0.  1.
         11    1    1    2    0    0  0.15708536975E+02  0.25098898583E+02  0.14630865625E+03  0.14927469892E+03  0.00000000000E+00 0. -1.
</event>
<event>
 7    1  0.2648915E-009  0.1478050E+03  0.7561462E-02  0.1203196E+00
          3   -1    0    0  501    0  0.00000000000E+00  0.00000000000E+00  0.26049048815E+03  0.26049048815E+03  0.00000000000E+00 0. -1.
         -3   -1    0    0    0  501 -0.00000000000E+00 -0.00000000000E+00 -0.90728476032E+02  0.90728476032E+02  0.00000000000E+00 0.  1.
         25    2    1    2    0    0  0.10803874090E+03 -0.56762475322E+01  0.88879202478E+02  0.18775563812E+03  0.12509227671E+03 0.  0.
          5    1    3    3  502    0 -0.42547873411E+01  0.42308176395E+02  0.29366751501E+02  0.51845573571E+02  0.41800000000E+01 0.  1.
         -5    1    3    3    0  502  0.11229352824E+03 -0.47984423927E+02  0.59512450977E+02  0.13591006455E+03  0.41800000000E+01 0.  1.
        -11    1    1    2    0    0 -0.10602165170E+03  0.26896345183E+02  0.38385806476E+02  0.11592011970E+03  0.00000000000E+00 0.  1.
         11    1    1    2    0    0 -0.20170892015E+01 -0.21220097651E+02  0.42497003167E+02  0.47543206363E+02  0.00000000000E+00 0. -1.
</event>
<event>
 7    1  0.2648915E-009  0.5816159E+02  0.7561462E-02  0.1405713E+00
          3   -1    0    0  501    0  0.00000000000E+00  0.00000000000E+00  0.23123257834E+03  0.23123257834E+03  0.00000000000E+00 0. -1.
         -3   -1    0    0    0  501 -0.00000000000E+00 -0.00000000000E+00 -0.50618616083E+02  0.50618616083E+02  0.00000000000E+00 0.  1.
         25    2    1    2    0    0  0.12981646756E+01  0.16040749148E+01  0.10718384375E+03  0.16473848836E+03  0.12508451102E+03 0.  0.
          5    1    3    3  502    0  0.17208335029E+02  0.57102146566E+01 -0.25171321852E+02  0.31301776142E+02  0.41800000000E+01 0. -1.
         -5    1    3    3    0  502 -0.15910170353E+02 -0.41061397418E+01  0.13235516560E+03  0.13343671221E+03  0.41800000000E+01 0. -1.
        -11    1    1    2    0    0  0.40055694458E+01  0.39305870119E+02  0.63327092281E+02  0.74641252864E+02  0.00000000000E+00 0. -1.
         11    1    1    2    0    0 -0.53037341214E+01 -0.40909945034E+02  0.10103026222E+02  0.42471453202E+02  0.00000000000E+00 0.  1.
</event>
<event>
 7    1  0.2648915E-009  0.9792067E+02  0.7561462E-02  0.1284730E+00
         -4   -1    0    0    0  501 -0.00000000000E+00  0.00000000000E+00  0.11445208048E+03  0.11445208048E+03  0.00000000000E+00 0.  1.
          4   -1    0    0  501    0  0.00000000000E+00 -0.00000000000E+00 -0.13678197267E+03  0.13678197267E+03  0.00000000000E+00 0. -1.
         25    2    1    2    0    0 -0.39617744543E+01  0.63121567843E+02 -0.18329379899E+02  0.14136373411E+03  0.12509081170E+03 0.  0.
          5    1    3    3  502    0  0.20521321168E+02  0.87982462674E+02  0.16446267829E+02  0.91923829806E+02  0.41800000000E+01 0.  1.
         -5    1    3    3    0  502 -0.24483095622E+02 -0.24860894831E+02 -0.34775647729E+02  0.49439904308E+02  0.41800000000E+01 0.  1.
        -11    1    1    2    0    0 -0.12334744502E+02 -0.40783159908E+02  0.39647540520E+02  0.58200855004E+02  0.00000000000E+00 0.  1.
         11    1    1    2    0    0  0.16296518956E+02 -0.22338407935E+02 -0.43648052813E+02  0.51669464034E+02  0.00000000000E+00 0. -1.
</event>
<event>
 7    1  0.2770993E-009  0.1379933E+03  0.7561462E-02  0.1216055E+00
         -1   -1    0    0    0  501 -0.00000000000E+00  0.00000000000E+00  0.43091091846E+02  0.43091091846E+02  0.00000000000E+00 0.  1.
          1   -1    0    0  501    0  0.00000000000E+00 -0.00000000000E+00 -0.62704042780E+03  0.62704042780E+03  0.00000000000E+00 0. -1.
         25    2    1    2    0    0  0.10655682158E+03  0.60820846021E+02 -0.29338369437E+03  0.34172317245E+03  0.12508878019E+03 0.  0.
          5    1    3    3  502    0  0.11694150108E+03  0.30518135692E+02 -0.14010431944E+03  0.18507664360E+03  0.41800000000E+01 0.  1.
         -5    1    3    3    0  502 -0.10384679496E+02  0.30302710329E+02 -0.15327937493E+03  0.15664652885E+03  0.41800000000E+01 0.  1.
        -11    1    1    2    0    0 -0.70294085044E+02 -0.42189543775E+02 -0.27111068224E+03  0.28323526973E+03  0.00000000000E+00 0. -1.
         11    1    1    2    0    0 -0.36262736537E+02 -0.18631302246E+02 -0.19454959343E+02  0.45173077464E+02  0.00000000000E+00 0.  1.
</event>
<event>
 7    1  0.2648915E-009  0.1451643E+03  0.7561462E-02  0.1206544E+00
          2   -1    0    0  501    0  0.00000000000E+00  0.00000000000E+00  0.25713841343E+03  0.25713841343E+03  0.00000000000E+00 0. -1.
         -2   -1    0    0    0  501 -0.00000000000E+00 -0.00000000000E+00 -0.13470546303E+03  0.13470546303E+03  0.00000000000E+00 0.  1.
         25    2    1    2    0    0  0.12037534518E+01 -0.13404971529E+03 -0.70702764927E+01  0.18348822088E+03  0.12508862139E+03 0.  0.
          5    1    3    3  502    0 -0.93889976595E+01 -0.50586599647E+02 -0.63697205494E+02  0.81987582771E+02  0.41800000000E+01 0. -1.
         -5    1    3    3    0  502  0.10592751111E+02 -0.83463115641E+02  0.56626929001E+02  0.10150063811E+03  0.41800000000E+01 0. -1.
        -11    1    1    2    0    0  0.34915809432E+02  0.95319485909E+02  0.50855500170E+02  0.11353942064E+03  0.00000000000E+00 0.  1.
         11    1    1    2    0    0 -0.36119562883E+02  0.38730229378E+02  0.78647726721E+02  0.94816234944E+02  0.00000000000E+00 0. -1.
</event>
<event>
 7    1  0.2648915E-009  0.9911337E+02  0.7561462E-02  0.1282172E+00
         -1   -1    0    0    0  501 -0.00000000000E+00  0.00000000000E+00  0.15984821291E+03  0.15984821291E+03  0.00000000000E+00 0.  1.
          1   -1    0    0  501    0  0.00000000000E+00 -0.00000000000E+00 -0.88160937873E+02  0.88160937873E+02  0.00000000000E+00 0. -1.
         25    2    1    2    0    0  0.20520537154E+02 -0.39133516681E+02  0.62162251970E+02  0.14650431572E+03  0.12508734701E+03 0.  0.
          5    1    3    3  502    0  0.50277007562E+02  0.48112285182E+01  0.76139814574E+02  0.91464032125E+02  0.41800000000E+01 0. -1.
         -5    1    3    3    0  502 -0.29756470408E+02 -0.43944745199E+02 -0.13977562604E+02  0.55040283594E+02  0.41800000000E+01 0. -1.
        -11    1    1    2    0    0  0.26121421866E+02 -0.86706961403E+01  0.19834609835E+02  0.33925232485E+02  0.00000000000E+00 0.  1.
         11    1    1    2    0    0 -0.46641959020E+02  0.47804212821E+02 -0.10309586772E+02  0.67579602574E+02  0.00000000000E+00 0. -1.
</event>
<event>
 7    1  0.2648915E-009  0.1175394E+03  0.7561462E-02  0.1247212E+00
         -2   -1    0    0    0  501 -0.00000000000E+00  0.00000000000E+00  0.16827588977E+02  0.16827588977E+02  0.00000000000E+00 0.  1.
          2   -1    0    0  501    0  0.00000000000E+00 -0.00000000000E+00 -0.88552891027E+03  0.88552891027E+03  0.00000000000E+00 0. -1.
         25    2    1    2    0    0  0.45226096961E+02 -0.27050736197E+02 -0.54572982399E+03  0.56235677546E+03  0.12508780892E+03 0.  0.
          5    1    3    3  502    0  0.73271203437E+01  0.48640440711E+02 -0.16080673640E+03  0.16821372725E+03  0.41800000000E+01 0.  1.
         -5    1    3    3    0  502  0.37898976618E+02 -0.75691176908E+02 -0.38492308759E+03  0.39414304821E+03  0.41800000000E+01 0.  1.
        -11    1    1    2    0    0 -0.50927268488E+01 -0.30430963340E+02 -0.15402807921E+03  0.15708796447E+03  0.00000000000E+00 0. -1.
         11    1    1    2    0    0 -0.40133370113E+02  0.57481699538E+02 -0.16894341809E+03  0.18291175932E+03  0.00000000000E+00 0.  1.
</event>
<event>
 7    1  0.2648915E-009  0.7291664E+02  0.7561462E-02  0.1350447E+00
         -1   -1    0    0    0  501 -0.00000000000E+00  0.00000000000E+00  0.39954155301E+02  0.39954155301E+02  0.00000000000E+00 0.  1.
          1   -1    0    0  501    0  0.00000000000E+00 -0.00000000000E+00 -0.37661647443E+03  0.37661647443E+03  0.00000000000E+00 0. -1.
         25    2    1    2    0    0 -0.30995830872E+02 -0.53076505875E+02 -0.18540181901E+03  0.23194791811E+03  0.12509254660E+03 0.  0.
          5    1    3    3  502    0 -0.13930229509E+02  0.84288797614E+01  0.14413891221E+02  0.22143395592E+02  0.41800000000E+01 0. -1.
         -5    1    3    3    0  502 -0.17065601363E+02 -0.61505385636E+02 -0.19981571023E+03  0.20980452252E+03  0.41800000000E+01 0. -1.
        -11    1    1    2    0    0  0.14913612533E+02  0.74319225269E+01  0.77745454909E+01  0.18387301836E+02  0.00000000000E+00 0.  1.
         11    1    1    2    0    0  0.16082218339E+02  0.45644583348E+02 -0.15903504561E+03  0.16623540979E+03  0.00000000000E+00 0. -1.
</event>
<event>
 7    1  0.2648915E-009  0.1589809E+03  0.7561462E-02  0.1189852E+00
         -2   -1    0    0    0  501 -0.00000000000E+00  0.00000000000E+00  0.42714390437E+02  0.42714390437E+02  0.00000000000E+00 0.  1.
          2   -1    0    0  501    0  0.00000000000E+00 -0.00000000000E+00 -0.86220310203E+03  0.86220310203E+03  0.00000000000E+00 0. -1.
         25    2    1    2    0    0 -0.53549369345E+02 -0.13288417326E+03 -0.27406346560E+03  0.33359309304E+03  0.12509128703E+03 0.  0.
          5    1    3    3  502    0  0.16452562275E+02 -0.50674978710E+02 -0.19230445567E+02  0.56797206881E+02  0.41800000000E+01 0.  1.
         -5    1    3    3    0  502 -0.70001931620E+02 -0.82209194547E+02 -0.25483302003E+03  0.27679588616E+03  0.41800000000E+01 0.  1.
        -11    1    1    2    0    0  0.12026889101E+02  0.10669698034E+03 -0.25352379480E+03  0.27532382063E+03  0.00000000000E+00 0.  1.
         11    1    1    2    0    0  0.41522480244E+02  0.26187192918E+02 -0.29190145120E+03  0.29600057880E+03  0.00000000000E+00 0. -1.
</event>
<event>
 7    1  0.2648915E-009  0.3715103E+03  0.7561462E-02  0.1054117E+00
          2   -1    0    0  501    0  0.00000000000E+00  0.00000000000E+00  0.96332680194E+03  0.96332680194E+03  0.00000000000E+00 0.  1.
         -2   -1    0    0    0  501 -0.00000000000E+00 -0.00000000000E+00 -0.15206348662E+03  0.15206348662E+03  0.00000000000E+00 0. -1.
         25    2    1    2    0    0  0.31750764182E+03 -0.18401018625E+03  0.41409627843E+03  0.56726796866E+03  0.12508544763E+03 0.  0.
          5    1    3    3  502    0  0.36852066985E+02 -0.39576500677E+01  0.10929820836E+03  0.11548726590E+03  0.41800000000E+01 0.  1.
         -5    1    3    3    0  502  0.28065557483E+03 -0.18005253619E+03  0.30479807007E+03  0.45178070276E+03  0.41800000000E+01 0.  1.
        -11    1    1    2    0    0 -0.16302435166E+03  0.58486326834E+02  0.13869236471E+03  0.22188546975E+03  0.00000000000E+00 0. -1.
         11    1    1    2    0    0 -0.15448329016E+03  0.12552385942E+03  0.25847467219E+03  0.32623685013E+03  0.00000000000E+00 0.  1.
</event>
<event>
 7    1  0.2648915E-009  0.5944492E+02  0.7561462E-02  0.1400176E+00
         -2   -1    0    0    0  501 -0.00000000000E+00  0.00000000000E+00  0.23616849537E+02  0.23616849537E+02  0.00000000000E+00 0.  1.
          2   -1    0    0  501    0  0.00000000000E+00 -0.00000000000E+00 -0.10173894167E+04  0.10173894167E+04  0.00000000000E+00 0. -1.
         25    2    1    2    0    0  0.98302777501E+01 -0.18550914252E+02 -0.89865656664E+03  0.90756299122E+03  0.12508472127E+03 0.  0.
          5    1    3    3  502    0 -0.21675512142E+02  0.51571722970E+01 -0.28100811414E+02  0.36104740060E+02  0.41800000000E+01 0. -1.
         -5    1    3    3    0  502  0.31505789892E+02 -0.23708086549E+02 -0.87055575522E+03  0.87145825116E+03  0.41800000000E+01 0. -1.
        -11    1    1    2    0    0  0.21804017180E+02  0.72473452970E+01 -0.97109773226E+02  0.99791017807E+02  0.00000000000E+00 0. -1.
         11    1    1    2    0    0 -0.31634294930E+02  0.11303568955E+02  0.19937726834E+01  0.33652257226E+02  0.00000000000E+00 0.  1.
</event>
<event>
 7    1  0.2648915E-009  0.8807563E+02  0.7561462E-02  0.1307580E+00
          1   -1    0    0  501    0  0.00000000000E+00  0.00000000000E+00  0.12551025837E+03  0.12551025837E+03  0.00000000000E+00 0. -1.
         -1   -1    0    0    0  501 -0.00000000000E+00 -0.00000000000E+00 -0.13262491706E+03  0.13262491706E+03  0.00000000000E+00 0.  1.
         25    2    1    2    0    0  0.15969233786E+02 -0.44065644638E+01 -0.75496493808E+02  0.14704170612E+03  0.12508840283E+03 0.  0.
          5    1    3    3  502    0  0.19125144032E+02 -0.52887497593E+02  0.90880359722E+00  0.56401745185E+02  0.41800000000E+01 0.  1.
         -5    1    3    3    0  502 -0.31559102466E+01  0.48480933130E+02 -0.76405297405E+02  0.90639960934E+02  0.41800000000E+01 0.  1.
        -11    1    1    2    0    0 -0.21167724826E+01  0.36227054373E+02  0.67195441483E+02  0.76368236528E+02  0.00000000000E+00 0. -1.
         11    1    1    2    0    0 -0.13852461303E+02 -0.31820489910E+02  0.11863936282E+01  0.34725232787E+02  0.00000000000E+00 0.  1.
</event>
<event>
 7    1  0.2648915E-009  0.1100376E+03  0.7561462E-02  0.1260500E+00
          2   -1    0    0  501    0  0.00000000000E+00  0.00000000000E+00  0.15612884708E+04  0.15612884708E+04  0.00000000000E+00 0. -1.
         -2   -1    0    0    0  501 -0.00000000000E+00 -0.00000000000E+00 -0.14481756703E+02  0.14481756703E+02  0.00000000000E+00 0.  1.
         25    2    1    2    0    0 -0.69119257280E+02  0.41644528926E+02  0.12550336867E+04  0.12638307915E+04  0.12508787368E+03 0.  0.
          5    1    3    3  502    0 -0.20165561842E+02 -0.21954032706E+02  0.71583801375E+02  0.77655279639E+02  0.41800000000E+01 0.  1.
         -5    1    3    3    0  502 -0.48953695438E+02  0.63598561632E+02  0.11834498853E+04  0.11861755118E+04  0.41800000000E+01 0.  1.
        -11    1    1    2    0    0  0.82211472891E+02 -0.20485118837E+02  0.20941965214E+03  0.22590917881E+03  0.00000000000E+00 0.  1.
         11    1    1    2    0    0 -0.13092215612E+02 -0.21159410089E+02  0.82353375222E+02  0.86030257208E+02  0.00000000000E+00 0. -1.
</event>
<event>
 7    1  0.2648915E-009  0.1401287E+03  0.7561462E-02  0.1213156E+00
          2   -1    0    0  501    0  0.00000000000E+00  0.00000000000E+00  0.22947200006E+03  0.22947200006E+03  0.00000000000E+00 0. -1.
         -2   -1    0    0    0  501 -0.00000000000E+00 -0.00000000000E+00 -0.91892122887E+02  0.91892122887E+02  0.00000000000E+00 0.  1.
         25    2    1    2    0    0  0.58031585719E+02 -0.82775626983E+02  0.69774785865E+02  0.17531543767E+03  0.12509001791E+03 0.  0.
          5    1    3    3  502    0 -0.19322670584E+02 -0.71536841872E+02  0.61897606876E+02  0.96641975769E+02  0.41800000000E+01 0. -1.
         -5    1    3    3    0  502  0.77354256302E+02 -0.11238785111E+02  0.78771789890E+01  0.78673461902E+02  0.41800000000E+01 0. -1.
        -11    1    1    2    0    0  0.11291153877E+02 -0.77838199495E+01  0.71696953365E+00  0.13732882225E+02  0.00000000000E+00 0. -1.
         11    1    1    2    0    0 -0.69322739596E+02  0.90559446932E+02  0.67088121773E+02  0.13231580305E+03  0.00000000000E+00 0.  1.
</event>
<event>
 7    1  0.2648915E-009  0.1129829E+03  0.7561462E-02  0.1255144E+00
          1   -1    0    0  501    0  0.00000000000E+00  0.00000000000E+00  0.14789233059E+03  0.14789233059E+03  0.00000000000E+00 0.  1.
         -1   -1    0    0    0  501 -0.00000000000E+00 -0.00000000000E+00 -0.99769623411E+02  0.99769623411E+02  0.00000000000E+00 0. -1.
         25    2    1    2    0    0  0.20893914194E+02 -0.50207929419E+02  0.28817668675E+02  0.13941120671E+03  0.12509050604E+03 0.  0.
          5    1    3    3  502    0  0.55778381372E+02 -0.70890011615E+02  0.14569818570E+01  0.90311775375E+02  0.41800000000E+01 0. -1.
         -5    1    3    3    0  502 -0.34884467178E+02  0.20682082196E+02  0.27360686818E+02  0.49099431335E+02  0.41800000000E+01 0. -1.
        -11    1    1    2    0    0 -0.44460169220E+02  0.60855370066E+01  0.33790353348E+02  0.56174089998E+02  0.00000000000E+00 0.  1.
         11    1    1    2    0    0  0.23566255025E+02  0.44122392412E+02 -0.14485314849E+02  0.52076657289E+02  0.00000000000E+00 0. -1.
</event>
<event>
 7    1  0.2648915E-009  0.1016985E+03  0.7561462E-02  0.1276764E+00
          1   -1    0    0  501    0  0.00000000000E+00  0.00000000000E+00  0.27403727100E+03  0.27403727100E+03  0.00000000000E+00 0. -1.
         -1   -1    0    0    0  501 -0.00000000000E+00 -0.00000000000E+00 -0.45768768982E+02  0.45768768982E+02  0.00000000000E+00 0.  1.
         25    2    1    2    0    0 -0.15512168665E+02  0.11738931124E+02  0.10047422136E+03  0.16161886189E+03  0.12508859852E+03 0.  0.
          5    1    3    3  502    0  0.26026299624E+02  0.55044395739E+02  0.73940500392E+02  0.95874520977E+02  0.41800000000E+01 0.  1.
         -5    1    3    3    0  502 -0.41538468289E+02 -0.43305464615E+02  0.26533720969E+02  0.65744340911E+02  0.41800000000E+01 0.  1.
        -11    1    1    2    0    0 -0.24081096897E+02  0.20131639766E+02  0.15672401404E+02  0.35082849274E+02  0.00000000000E+00 0.  1.
         11    1    1    2    0    0  0.39593265562E+02 -0.31870570891E+02  0.11212187926E+03  0.12310432882E+03  0.00000000000E+00 0. -1.
</event>
<event>
 7    1  0.2648915E-009  0.2271142E+03  0.7561462E-02  0.1128688E+00
         -3   -1    0    0    0  501 -0.00000000000E+00  0.00000000000E+00  0.32876431836E+02  0.32876431836E+02  0.00000000000E+00 0.  1.
          3   -1    0    0  501    0  0.00000000000E+00 -0.00000000000E+00 -0.27595997983E+04  0.27595997983E+04  0.00000000000E+00 0. -1.
         25    2    1    2    0    0 -0.13891797486E+03  0.15375622159E+03 -0.22641015405E+04  0.22770029968E+04  0.12509069591E+03 0.  0.
          5    1    3    3  502    0 -0.29894200328E+02  0.11181767650E+03 -0.14404716370E+04  0.14451203636E+04  0.41800000000E+01 0. -1.
         -5    1    3    3    0  502 -0.10902377453E+03  0.41938545083E+02 -0.82362990351E+03  0.83188263315E+03  0.41800000000E+01 0. -1.
        -11    1    1    2    0    0 -0.59613494322E+01 -0.31181924116E+02 -0.11640126120E+03  0.12065282296E+03  0.00000000000E+00 0.  1.
         11    1    1    2    0    0  0.14487932429E+03 -0.12257429747E+03 -0.34622056476E+03  0.39482041040E+03  0.00000000000E+00 0. -1.
</event>
<event>
 7    1  0.2648915E-009  0.8984926E+02  0.7561462E-02  0.1303217E+00
         -2   -1    0    0    0  501 -0.00000000000E+00  0.00000000000E+00  0.11844779469E+03  0.11844779469E+03  0.00000000000E+00 0.  1.
          2   -1    0    0  501    0  0.00000000000E+00 -0.00000000000E+00 -0.23872636906E+03  0.23872636906E+03  0.00000000000E+00 0. -1.
         25    2    1    2    0    0 -0.57335493825E+02  0.86541429092E+01  0.57230367762E+02  0.14928148127E+03  0.12508953839E+03 0.  0.
          5    1    3    3  502    0 -0.12795065001E+02  0.23188487119E+02  0.88715486680E+02  0.92678636159E+02  0.41800000000E+01 0.  1.
         -5    1    3    3    0  502 -0.44540428824E+02 -0.14534344210E+02 -0.31485118918E+02  0.56602845111E+02  0.41800000000E+01 0.  1.
        -11    1    1    2    0    0  0.16645626313E+01  0.35039140861E+02 -0.39720906092E+02  0.52993042391E+02  0.00000000000E+00 0. -1.
         11    1    1    2    0    0  0.55670931194E+02 -0.43693283770E+02 -0.13778803604E+03  0.15489964010E+03  0.00000000000E+00 0.  1.
</event>
<event>
 7    1  0.2648915E-009  0.1742122E+03  0.7561462E-02  0.1173525E+00
          2   -1    0    0  501    0  0.00000000000E+00  0.00000000000E+00  0.28653218171E+03  0.28653218171E+03  0.00000000000E+00 0. -1.
         -2   -1    0    0    0  501 -0.00000000000E+00 -0.00000000000E+00 -0.12341947415E+03  0.12341947415E+03  0.00000000000E+00 0.  1.
         25    2    1    2    0    0 -0.14641630533E+03 -0.36430644974E+02  0.12026513919E+03  0.22994711078E+03  0.12508814368E+03 0.  0.
          5    1    3    3  502    0 -0.14724163347E+03 -0.64773166004E+02  0.77849510823E+02  0.17875592408E+03  0.41800000000E+01 0. -1.
         -5    1    3    3    0  502  0.82532813088E+00  0.28342521031E+02  0.42415628372E+02  0.51191186693E+02  0.41800000000E+01 0. -1.
        -11    1    1    2    0    0  0.10572007691E+03  0.23145423834E+01  0.63132506953E+02  0.12315764370E+03  0.00000000000E+00 0. -1.
         11    1    1    2    0    0  0.40696228426E+02  0.34116102590E+02 -0.20284938588E+02  0.56846901389E+02  0.00000000000E+00 0.  1.
</event>
<event>
 7    1  0.2648915E-009  0.8494735E+02  0.7561462E-02  0.1315570E+00
          4   -1    0    0  501    0  0.00000000000E+00  0.00000000000E+00  0.54512691997E+03  0.54512691997E+03  0.00000000000E+00 0. -1.
         -4   -1    0    0    0  501 -0.00000000000E+00 -0.00000000000E+00 -0.26608643238E+02  0.26608643238E+02  0.00000000000E+00 0.  1.
         25    2    1    2    0    0  0.36409845805E+02  0.38147695822E+02  0.27543276440E+03  0.30706883068E+03  0.12508851066E+03 0.  0.
          5    1    3    3  502    0 -0.44475635241E+01  0.54092632434E+02  0.40006903511E+02  0.67556039208E+02  0.41800000000E+01 0. -1.
         -5    1    3    3    0  502  0.40857409329E+02 -0.15944936612E+02  0.23542586089E+03  0.23951279147E+03  0.41800000000E+01 0. -1.
        -11    1    1    2    0    0 -0.26245633042E+02  0.53045785876E+01  0.12053275882E+02  0.29364149353E+02  0.00000000000E+00 0.  1.
         11    1    1    2    0    0 -0.10164212763E+02 -0.43452274410E+02  0.23103223645E+03  0.23530258318E+03  0.00000000000E+00 0. -1.
</event>
<event>
 7    1  0.2648915E-009  0.7702238E+02  0.7561462E-02  0.1337720E+00
          2   -1    0    0  501    0  0.00000000000E+00  0.00000000000E+00  0.19887985384E+04  0.19887985384E+04  0.00000000000E+00 0. -1.
         -2   -1    0    0    0  501 -0.00000000000E+00 -0.00000000000E+00 -0.88035193160E+01  0.88035193160E+01  0.00000000000E+00 0.  1.
         25    2    1    2    0    0  0.14153284274E+02  0.36139310234E+02  0.16366684157E+04  0.16419005929E+04  0.12509072174E+03 0.  0.
          5    1    3    3  502    0  0.34765681391E+02  0.29520291548E+02  0.15857750730E+04  0.15864363066E+04  0.41800000000E+01 0.  1.
         -5    1    3    3    0  502 -0.20612397116E+02  0.66190186856E+01  0.50893342703E+02  0.55464286300E+02  0.41800000000E+01 0.  1.
        -11    1    1    2    0    0 -0.42278674661E+02 -0.25054564492E+01  0.10231630019E+03  0.11073567143E+03  0.00000000000E+00 0.  1.
         11    1    1    2    0    0  0.28125390387E+02 -0.33633853784E+02  0.24101030321E+03  0.24496579344E+03  0.00000000000E+00 0. -1.
</event>
<event>
 7    1  0.2648915E-009  0.1295479E+03  0.7561462E-02  0.1228128E+00
         -1   -1    0    0    0  501 -0.00000000000E+00  0.00000000000E+00  0.18760623850E+03  0.18760623850E+03  0.00000000000E+00 0.  1.
          1   -1    0    0  501    0  0.00000000000E+00 -0.00000000000E+00 -0.97280503984E+02  0.97280503984E+02  0.00000000000E+00 0. -1.
         25    2    1    2    0    0 -0.68860610540E+02  0.39163365550E+02  0.36569764428E+02  0.15251746398E+03  0.12509466921E+03 0.  0.
          5    1    3    3  502    0 -0.51205840021E+02  0.79711533582E+02 -0.22782657922E+00  0.94834017859E+02  0.41800000000E+01 0.  1.
         -5    1    3    3    0  502 -0.17654770519E+02 -0.40548168032E+02  0.36797591008E+02  0.57683446124E+02  0.41800000000E+01 0.  1.
        -11    1    1    2    0    0  0.64901082347E+02  0.14112150533E+02  0.38681815611E+02  0.76860823190E+02  0.00000000000E+00 0.  1.
         11    1    1    2    0    0  0.39595281931E+01 -0.53275516083E+02  0.15074154473E+02  0.55508455307E+02  0.00000000000E+00 0. -1.
</event>
<event>
 7    1  0.2648915E-009  0.1563948E+03  0.7561462E-02  0.1192828E+00
         -2   -1    0    0    0  501 -0.00000000000E+00  0.00000000000E+00  0.10952117560E+03  0.10952117560E+03  0.00000000000E+00 0.  1.
          2   -1    0    0  501    0  0.00000000000E+00 -0.00000000000E+00 -0.28794333174E+03  0.28794333174E+03  0.00000000000E+00 0. -1.
         25    2    1    2    0    0  0.45093585352E+02  0.10844056588E+03 -0.18000944871E+03  0.24868331706E+03  0.12508877963E+03 0.  0.
          5    1    3    3  502    0  0.76334262376E+02  0.11573348615E+03 -0.15325379074E+03  0.20670112773E+03  0.41800000000E+01 0. -1.
         -5    1    3    3    0  502 -0.31240677023E+02 -0.72929202769E+01 -0.26755657968E+02  0.41982189323E+02  0.41800000000E+01 0. -1.
        -11    1    1    2    0    0 -0.33999629842E+02 -0.13036536273E+01 -0.19223165319E+02  0.39079462983E+02  0.00000000000E+00 0. -1.
         11    1    1    2    0    0 -0.11093955510E+02 -0.10713691225E+03  0.20810457881E+02  0.10970172730E+03  0.00000000000E+00 0.  1.
</event>
<event>
 7    1  0.2648915E-009  0.1680147E+03  0.7561462E-02  0.1179934E+00
         -3   -1    0    0    0  501 -0.00000000000E+00  0.00000000000E+00  0.63613997463E+02  0.63613997463E+02  0.00000000000E+00 0.  1.
          3   -1    0    0  501    0  0.00000000000E+00 -0.00000000000E+00 -0.55584612837E+03  0.55584612837E+03  0.00000000000E+00 0. -1.
         25    2    1    2    0    0  0.48270192143E+02 -0.13601344001E+03 -0.34625161369E+03  0.39543258667E+03  0.12508830204E+03 0.  0.
          5    1    3    3  502    0  0.54679369011E+02 -0.31406832313E+02 -0.23149102586E+03  0.23996205943E+03  0.41800000000E+01 0. -1.
         -5    1    3    3    0  502 -0.64091768680E+01 -0.10460660770E+03 -0.11476058782E+03  0.15547052724E+03  0.41800000000E+01 0. -1.
        -11    1    1    2    0    0 -0.51760214597E+02  0.26080891748E+02 -0.67166502164E+02  0.88716806426E+02  0.00000000000E+00 0.  1.
         11    1    1    2    0    0  0.34900224536E+01  0.10993254826E+03 -0.78814015057E+02  0.13531073274E+03  0.00000000000E+00 0. -1.
</event>
<event>
 7    1  0.2648915E-009  0.6149115E+02  0.7561462E-02  0.1391679E+00
         -2   -1    0    0    0  501 -0.00000000000E+00  0.00000000000E+00  0.30805970605E+02  0.30805970605E+02  0.00000000000E+00 0.  1.
          2   -1    0    0  501    0  0.00000000000E+00 -0.00000000000E+00 -0.42578417378E+03  0.42578417378E+03  0.00000000000E+00 0. -1.
         25    2    1    2    0    0  0.18993189149E+02 -0.28113808421E+02 -0.26054827346E+03  0.29100668990E+03  0.12509341831E+03 0.  0.
          5    1    3    3  502    0  0.32154786839E+02  0.18564983472E+02 -0.14322123081E+02  0.40014803979E+02  0.41800000000E+01 0.  1.
         -5    1    3    3    0  502 -0.13161597690E+02 -0.46678791892E+02 -0.24622615038E+03  0.25099188592E+03  0.41800000000E+01 0.  1.
        -11    1    1    2    0    0 -0.64225858669E-01  0.12227896532E+02  0.11970574538E+02  0.17111990923E+02  0.00000000000E+00 0.  1.
         11    1    1    2    0    0 -0.18928963291E+02  0.15885911888E+02 -0.14640050426E+03  0.14847146357E+03  0.00000000000E+00 0. -1.
</event>
<event>
 7    1  0.2648915E-009  0.1041973E+03  0.7561462E-02  0.1271709E+00
         -1   -1    0    0    0  501 -0.00000000000E+00  0.00000000000E+00  0.41591151459E+02  0.41591151459E+02  0.00000000000E+00 0.  1.
          1   -1    0    0  501    0  0.00000000000E+00 -0.00000000000E+00 -0.41772882092E+03  0.41772882092E+03  0.00000000000E+00 0. -1.
         25    2    1    2    0    0 -0.44048205383E+02  0.60372156184E+02 -0.21981997818E+03  0.26373042672E+03  0.12509146066E+03 0.  0.
          5    1    3    3  502    0 -0.62407161418E+02  0.41805617771E+02 -0.46581517508E+02  0.88485443135E+02  0.41800000000E+01 0.  1.
         -5    1    3    3    0  502  0.18358956035E+02  0.18566538413E+02 -0.17323846067E+03  0.17524498359E+03  0.41800000000E+01 0.  1.
        -11    1    1    2    0    0  0.65953457680E+02 -0.47900781980E+02 -0.14814766819E+03  0.16909191312E+03  0.00000000000E+00 0. -1.
         11    1    1    2    0    0 -0.21905252297E+02 -0.12471374205E+02 -0.81700230924E+01  0.26497632537E+02  0.00000000000E+00 0.  1.
</event>
<event>
 7    1  0.2648915E-009  0.1955858E+03  0.7561462E-02  0.1153518E+00
         -2   -1    0    0    0  501 -0.00000000000E+00  0.00000000000E+00  0.68659097902E+02  0.68659097902E+02  0.00000000000E+00 0.  1.
          2   -1    0    0  501    0  0.00000000000E+00 -0.00000000000E+00 -0.77832227977E+03  0.77832227977E+03  0.00000000000E+00 0. -1.
         25    2    1    2    0    0  0.40725488568E+02  0.17756077485E+03 -0.53212869548E+03  0.57618957438E+03  0.12508830037E+03 0.  0.
          5    1    3    3  502    0 -0.25352554665E+02  0.87717943213E+02 -0.13038585475E+03  0.15923295233E+03  0.41800000000E+01 0.  1.
         -5    1    3    3    0  502  0.66078043232E+02  0.89842831641E+02 -0.40174284072E+03  0.41695662205E+03  0.41800000000E+01 0.  1.
        -11    1    1    2    0    0  0.85812205731E+00 -0.10128738518E+03 -0.41668589415E+02  0.10952690132E+03  0.00000000000E+00 0.  1.
         11    1    1    2    0    0 -0.41583610625E+02 -0.76273389675E+02 -0.13586589698E+03  0.16126490197E+03  0.00000000000E+00 0. -1.
</event>
<event>
 7    1  0.2668591E-009  0.1206745E+03  0.7561462E-02  0.1241988E+00
          1   -1    0    0  501    0  0.00000000000E+00  0.00000000000E+00  0.29596125669E+03  0.29596125669E+03  0.00000000000E+00 0. -1.
         -1   -1    0    0    0  501 -0.00000000000E+00 -0.00000000000E+00 -0.61101983109E+02  0.61101983109E+02  0.00000000000E+00 0.  1.
         25    2    1    2    0    0 -0.70233225218E+02 -0.26685389750E+02  0.96805163837E+02  0.17510312885E+03  0.12508017444E+03 0.  0.
          5    1    3    3  502    0  0.85326917782E+01  0.33508018399E+02 -0.22487290566E+01  0.34901623292E+02  0.41800000000E+01 0. -1.
         -5    1    3    3    0  502 -0.78765916996E+02 -0.60193408149E+02  0.99053892893E+02  0.14020150556E+03  0.41800000000E+01 0. -1.
        -11    1    1    2    0    0  0.78090775399E+02 -0.14325218653E+01  0.59589924852E+02  0.98240421748E+02  0.00000000000E+00 0.  1.
         11    1    1    2    0    0 -0.78575501811E+01  0.28117911615E+02  0.78464184897E+02  0.83719689202E+02  0.00000000000E+00 0. -1.
</event>
<event>
 7    1  0.2648915E-009  0.2224768E+03  0.7561462E-02  0.1132050E+00
         -4   -1    0    0    0  501 -0.00000000000E+00  0.00000000000E+00  0.10204209203E+03  0.10204209203E+03  0.00000000000E+00 0.  1.
          4   -1    0    0  501    0  0.00000000000E+00 -0.00000000000E+00 -0.75821372931E+03  0.75821372931E+03  0.00000000000E+00 0. -1.
         25    2    1    2    0    0  0.17622400816E+03 -0.96521384068E+02 -0.57496964422E+03  0.62177878731E+03  0.12508992743E+03 0.  0.
          5    1    3    3  502    0  0.16557076313E+03 -0.11461335563E+03 -0.42525513466E+03  0.47054149748E+03  0.41800000000E+01 0. -1.
         -5    1    3    3    0  502  0.10653245032E+02  0.18091971566E+02 -0.14971450955E+03  0.15123728983E+03  0.41800000000E+01 0. -1.
        -11    1    1    2    0    0 -0.74690911497E+02 -0.95501226245E+01 -0.12361465424E+02  0.76306899621E+02  0.00000000000E+00 0.  1.
         11    1    1    2    0    0 -0.10153309667E+03  0.10607150669E+03 -0.68840527638E+02  0.16217013441E+03  0.00000000000E+00 0. -1.
</event>
<event>
 7    1  0.3600891E-009  0.1325843E+03  0.7561462E-02  0.1223671E+00
          1   -1    0    0  501    0  0.00000000000E+00  0.00000000000E+00  0.35042386864E+03  0.35042386864E+03  0.00000000000E+00 0. -1.
         -1   -1    0    0    0  501 -0.00000000000E+00 -0.00000000000E+00 -0.63492483888E+02  0.63492483888E+02  0.00000000000E+00 0.  1.
         25    2    1    2    0    0 -0.51937729012E+02 -0.84319009142E+02  0.18844355765E+03  0.24691209670E+03  0.12508951226E+03 0.  0.
          5    1    3    3  502    0 -0.65561833507E+02 -0.97132088338E+02  0.19423937424E+03  0.22689073032E+03  0.41800000000E+01 0. -1.
         -5    1    3    3    0  502  0.13624104495E+02  0.12813079196E+02 -0.57958165931E+01  0.20021366381E+02  0.41800000000E+01 0. -1.
        -11    1    1    2    0    0 -0.36772578775E+01  0.71595870549E+02  0.29603957767E+02  0.77562137803E+02  0.00000000000E+00 0.  1.
         11    1    1    2    0    0  0.55614986890E+02  0.12723138593E+02  0.68883869335E+02  0.89442118026E+02  0.00000000000E+00 0. -1.
</event>
<event>
 7    1  0.2648915E-009  0.1255162E+03  0.7561462E-02  0.1234265E+00
         -2   -1    0    0    0  501 -0.00000000000E+00  0.00000000000E+00  0.72670289955E+02  0.72670289955E+02  0.00000000000E+00 0. -1.
          2   -1    0    0  501    0  0.00000000000E+00 -0.00000000000E+00 -0.39286344255E+03  0.39286344255E+03  0.00000000000E+00 0.  1.
         25    2    1    2    0    0  0.87537635591E+02  0.77776603515E+02 -0.95008695770E+02  0.19591586018E+03  0.12507731329E+03 0.  0.
          5    1    3    3  502    0  0.67546811760E+02  0.65477981828E+02 -0.12569551819E+03  0.15705659355E+03  0.41800000000E+01 0. -1.
         -5    1    3    3    0  502  0.19990823830E+02  0.12298621687E+02  0.30686822422E+02  0.38859266632E+02  0.41800000000E+01 0. -1.
        -11    1    1    2    0    0 -0.61897818451E+02 -0.12847653044E+02 -0.16759300575E+03  0.17911956257E+03  0.00000000000E+00 0.  1.
         11    1    1    2    0    0 -0.25639817140E+02 -0.64928950471E+02 -0.57591451076E+02  0.90498309759E+02  0.00000000000E+00 0. -1.
</event>
<event>
 7    1  0.2648915E-009  0.1316342E+03  0.7561462E-02  0.1225051E+00
         -3   -1    0    0    0  501 -0.00000000000E+00  0.00000000000E+00  0.25947427220E+02  0.25947427220E+02  0.00000000000E+00 0.  1.
          3   -1    0    0  501    0  0.00000000000E+00 -0.00000000000E+00 -0.86190545987E+03  0.86190545987E+03  0.00000000000E+00 0. -1.
         25    2    1    2    0    0  0.70117915744E+02 -0.32772836989E+02 -0.65428044958E+03  0.67061246066E+03  0.12509030636E+03 0.  0.
          5    1    3    3  502    0 -0.12644874536E+02 -0.56474356489E+02 -0.33058007173E+03  0.33563358297E+03  0.41800000000E+01 0.  1.
         -5    1    3    3    0  502  0.82762790281E+02  0.23701519500E+02 -0.32370037785E+03  0.33497887769E+03  0.41800000000E+01 0.  1.
        -11    1    1    2    0    0 -0.80522691598E+02  0.52935867937E+02 -0.14443432164E+03  0.17363001827E+03  0.00000000000E+00 0.  1.
         11    1    1    2    0    0  0.10404775853E+02 -0.20163030948E+02 -0.37243261434E+02  0.43610408159E+02  0.00000000000E+00 0. -1.
</event>
<event>
 7    1  0.2748444E-009  0.1295969E+03  0.7561462E-02  0.1228055E+00
          1   -1    0    0  501    0  0.00000000000E+00  0.00000000000E+00  0.56498707190E+03  0.56498707190E+03  0.00000000000E+00 0. -1.
         -1   -1    0    0    0  501 -0.00000000000E+00 -0.00000000000E+00 -0.42186208696E+02  0.42186208696E+02  0.00000000000E+00 0.  1.
         25    2    1    2    0    0  0.31575066079E+02  0.10448147901E+03  0.26254906284E+03  0.31063239204E+03  0.12508840208E+03 0.  0.
          5    1    3    3  502    0  0.68660821942E+02  0.71302514340E+02  0.10074985738E+03  0.14130238208E+03  0.41800000000E+01 0.  1.
         -5    1    3    3    0  502 -0.37085755863E+02  0.33178964673E+02  0.16179920546E+03  0.16933000996E+03  0.41800000000E+01 0.  1.
        -11    1    1    2    0    0 -0.23242601302E+02 -0.50885159905E+02  0.22500362529E+03  0.23185372416E+03  0.00000000000E+00 0. -1.
         11    1    1    2    0    0 -0.83324647772E+01 -0.53596319108E+02  0.35248175077E+02  0.64687164395E+02  0.00000000000E+00 0.  1.
</event>
<event>
 7    1  0.2648915E-009  0.6998403E+02  0.7561462E-02  0.1360147E+00
          1   -1    0    0  501    0  0.00000000000E+00  0.00000000000E+00  0.32710465342E+02  0.32710465342E+02  0.00000000000E+00 0. -1.
         -1   -1    0    0    0  501 -0.00000000000E+00 -0.00000000000E+00 -0.53232900941E+03  0.53232900941E+03  0.00000000000E+00 0.  1.
         25    2    1    2    0    0  0.24489440831E+02  0.18891128728E+02 -0.42652394209E+03  0.44556429463E+03  0.12509300546E+03 0.  0.
          5    1    3    3  502    0  0.34835571305E+02 -0.57489049599E+01 -0.41440025758E+03  0.41592260436E+03  0.41800000000E+01 0.  1.
         -5    1    3    3    0  502 -0.10346130474E+02  0.24640033688E+02 -0.12123684514E+02  0.29641690271E+02  0.41800000000E+01 0.  1.
        -11    1    1    2    0    0 -0.46870791275E+02 -0.26355497304E+02 -0.78613755209E+02  0.95244977930E+02  0.00000000000E+00 0.  1.
         11    1    1    2    0    0  0.22381350444E+02  0.74643685762E+01  0.55191532309E+01  0.24230202193E+02  0.00000000000E+00 0. -1.
</event>
<event>
 7    1  0.2648915E-009  0.1704607E+03  0.7561462E-02  0.1177368E+00
         -1   -1    0    0    0  501 -0.00000000000E+00  0.00000000000E+00  0.54404386903E+02  0.54404386903E+02  0.00000000000E+00 0.  1.
          1   -1    0    0  501    0  0.00000000000E+00 -0.00000000000E+00 -0.67030705547E+03  0.67030705547E+03  0.00000000000E+00 0. -1.
         25    2    1    2    0    0  0.60046513848E+02 -0.11896838436E+03 -0.16683880836E+03  0.24747185186E+03  0.12509224271E+03 0.  0.
          5    1    3    3  502    0  0.23364767563E+02 -0.13663114327E+03 -0.10786501888E+03  0.17568812246E+03  0.41800000000E+01 0. -1.
         -5    1    3    3    0  502  0.36681746285E+02  0.17662758903E+02 -0.58973789475E+02  0.71783729407E+02  0.41800000000E+01 0. -1.
        -11    1    1    2    0    0 -0.35879607544E+02 -0.39034892901E+01 -0.11157031133E+03  0.11726260204E+03  0.00000000000E+00 0. -1.
         11    1    1    2    0    0 -0.24166906304E+02  0.12287187365E+03 -0.33749354888E+03  0.35997698847E+03  0.00000000000E+00 0.  1.
</event>
<event>
 7    1  0.2648915E-009  0.1343577E+03  0.7561462E-02  0.1221129E+00
          2   -1    0    0  501    0  0.00000000000E+00  0.00000000000E+00  0.56351336857E+03  0.56351336857E+03  0.00000000000E+00 0. -1.
         -2   -1    0    0    0  501 -0.00000000000E+00 -0.00000000000E+00 -0.37542023355E+02  0.37542023355E+02  0.00000000000E+00 0.  1.
         25    2    1    2    0    0 -0.26134767407E+02  0.88941762512E+02  0.24483427378E+03  0.29014710107E+03  0.12509138842E+03 0.  0.
          5    1    3    3  502    0 -0.59619644660E+02  0.18078899998E+01  0.71282983054E+02  0.93040349144E+02  0.41800000000E+01 0.  1.
         -5    1    3    3    0  502  0.33484877253E+02  0.87133872512E+02  0.17355129073E+03  0.19710675193E+03  0.41800000000E+01 0.  1.
        -11    1    1    2    0    0  0.35673952909E+02 -0.11538920283E+02  0.30237131310E+02  0.48167018875E+02  0.00000000000E+00 0.  1.
         11    1    1    2    0    0 -0.95391855017E+01 -0.77402842229E+02  0.25089994012E+03  0.26274127197E+03  0.00000000000E+00 0. -1.
</event>
<event>
 7    1  0.2648915E-009  0.2376331E+03  0.7561462E-02  0.1121380E+00
          2   -1    0    0  501    0  0.00000000000E+00  0.00000000000E+00  0.26531878821E+03  0.26531878821E+03  0.00000000000E+00 0. -1.
         -2   -1    0    0    0  501 -0.00000000000E+00 -0.00000000000E+00 -0.24987299939E+03  0.24987299939E+03  0.00000000000E+00 0.  1.
         25    2    1    2    0    0 -0.85734739315E+02 -0.20381884161E+03  0.26465682989E+02  0.25542095681E+03  0.12508743775E+03 0.  0.
          5    1    3    3  502    0  0.24433737004E+02 -0.32021160506E+01  0.11188213321E+00  0.24994918859E+02  0.41800000000E+01 0.  1.
         -5    1    3    3    0  502 -0.11016847632E+03 -0.20061672556E+03  0.26353800856E+02  0.23042603795E+03  0.41800000000E+01 0.  1.
        -11    1    1    2    0    0  0.49551481450E+02  0.10450222909E+03 -0.73451473267E+02  0.13700797102E+03  0.00000000000E+00 0.  1.
         11    1    1    2    0    0  0.36183257866E+02  0.99316612515E+02  0.62431579096E+02  0.12276285977E+03  0.00000000000E+00 0. -1.
</event>
<event>
 7    1  0.2648915E-009  0.1150552E+03  0.7561462E-02  0.1251485E+00
         -2   -1    0    0    0  501 -0.00000000000E+00  0.00000000000E+00  0.12573787883E+03  0.12573787883E+03  0.00000000000E+00 0.  1.
          2   -1    0    0  501    0  0.00000000000E+00 -0.00000000000E+00 -0.12292524381E+03  0.12292524381E+03  0.00000000000E+00 0. -1.
         25    2    1    2    0    0  0.43743623307E+02  0.33922076006E+02  0.23454438307E+02  0.13878662986E+03  0.12508959241E+03 0.  0.
          5    1    3    3  502    0  0.74967115561E+02 -0.29256867797E+01  0.42933617088E+02  0.86541296124E+02  0.41800000000E+01 0.  1.
         -5    1    3    3    0  502 -0.31223492253E+02  0.36847762785E+02 -0.19479178781E+02  0.52245333732E+02  0.41800000000E+01 0.  1.
        -11    1    1    2    0    0 -0.15702129849E+01 -0.57938225141E+02 -0.23355043194E+01  0.58006534819E+02  0.00000000000E+00 0. -1.
         11    1    1    2    0    0 -0.42173410322E+02  0.24016149135E+02 -0.18306298972E+02  0.51869957968E+02  0.00000000000E+00 0.  1.
</event>
<event>
 7    1  0.2728625E-009  0.1268519E+03  0.7561462E-02  0.1232203E+00
         -2   -1    0    0    0  501 -0.00000000000E+00  0.00000000000E+00  0.24597287109E+02  0.24597287109E+02  0.00000000000E+00 0.  1.
          2   -1    0    0  501    0  0.00000000000E+00 -0.00000000000E+00 -0.87321155565E+03  0.87321155565E+03  0.00000000000E+00 0. -1.
         25    2    1    2    0    0 -0.77645761487E+02  0.45441558879E+02 -0.58523875498E+03  0.60518246924E+03  0.12509045207E+03 0.  0.
          5    1    3    3  502    0 -0.55311549635E+02 -0.34564141010E+02 -0.33999421661E+03  0.34621898719E+03  0.41800000000E+01 0.  1.
         -5    1    3    3    0  502 -0.22334211853E+02  0.80005699889E+02 -0.24524453837E+03  0.25896348204E+03  0.41800000000E+01 0.  1.
        -11    1    1    2    0    0  0.19401558428E+02 -0.42662199536E+02 -0.39532494098E+02  0.61313145640E+02  0.00000000000E+00 0.  1.
         11    1    1    2    0    0  0.58244203060E+02 -0.27793593432E+01 -0.22384301947E+03  0.23131322788E+03  0.00000000000E+00 0. -1.
</event>
<event>
 7    1  0.2648915E-009  0.1071418E+03  0.7561462E-02  0.1265956E+00
          2   -1    0    0  501    0  0.00000000000E+00  0.00000000000E+00  0.22832864119E+03  0.22832864119E+03  0.00000000000E+00 0. -1.
         -2   -1    0    0    0  501 -0.00000000000E+00 -0.00000000000E+00 -0.13222769284E+03  0.13222769284E+03  0.00000000000E+00 0.  1.
         25    2    1    2    0    0 -0.54588355310E+01 -0.64860514116E+02  0.17424762623E+03  0.22415822354E+03  0.12509192122E+03 0.  0.
          5    1    3    3  502    0  0.35702167558E+02 -0.72736231399E+02  0.16052435022E+03  0.17986312446E+03  0.41800000000E+01 0. -1.
         -5    1    3    3    0  502 -0.41161003089E+02  0.78757172829E+01  0.13723276016E+02  0.44295099082E+02  0.41800000000E+01 0. -1.
        -11    1    1    2    0    0 -0.24308447756E+02  0.54224382304E+02 -0.86498131788E+01  0.60050008631E+02  0.00000000000E+00 0. -1.
         11    1    1    2    0    0  0.29767283287E+02  0.10636131811E+02 -0.69496864699E+02  0.76348101857E+02  0.00000000000E+00 0.  1.
</event>
<event>
 7    1  0.2648915E-009  0.1094933E+03  0.7561462E-02  0.1261511E+00
          2   -1    0    0  501    0  0.00000000000E+00  0.00000000000E+00  0.15851418353E+03  0.15851418353E+03  0.00000000000E+00 0. -1.
         -2   -1    0    0    0  501 -0.00000000000E+00 -0.00000000000E+00 -0.17751094324E+03  0.17751094324E+03  0.00000000000E+00 0.  1.
         25    2    1    2    0    0 -0.45265960454E+01 -0.18058338881E+02  0.11630304810E+03  0.17181720724E+03  0.12509260582E+03 0.  0.
          5    1    3    3  502    0  0.15507570800E+02 -0.69166826836E+02  0.58610632691E+02  0.92071783687E+02  0.41800000000E+01 0.  1.
         -5    1    3    3    0  502 -0.20034166846E+02  0.51108487956E+02  0.57692415405E+02  0.79745423552E+02  0.41800000000E+01 0.  1.
        -11    1    1    2    0    0 -0.43225013098E+02  0.56867953486E+01 -0.67714400441E+02  0.80535591050E+02  0.00000000000E+00 0.  1.
         11    1    1    2    0    0  0.47751609144E+02  0.12371543532E+02 -0.67585407363E+02  0.83672328482E+02  0.00000000000E+00 0. -1.
</event>
<event>
 7    1  0.2648915E-009  0.6746968E+02  0.7561462E-02  0.1368915E+00
          2   -1    0    0  501    0  0.00000000000E+00  0.00000000000E+00  0.11721490563E+03  0.11721490563E+03  0.00000000000E+00 0.  1.
         -2   -1    0    0    0  501 -0.00000000000E+00 -0.00000000000E+00 -0.12768092166E+03  0.12768092166E+03  0.00000000000E+00 0. -1.
         25    2    1    2    0    0  0.71083570436E+01 -0.44727477459E+02  0.29176922326E+02  0.13619955607E+03  0.12509176751E+03 0.  0.
          5    1    3    3  502    0 -0.22865989899E+02 -0.44001678336E+02 -0.37935956081E+02  0.62574838028E+02  0.41800000000E+01 0.  1.
         -5    1    3    3    0  502  0.29974346943E+02 -0.72579912307E+00  0.67112878407E+02  0.73624718044E+02  0.41800000000E+01 0.  1.
        -11    1    1    2    0    0  0.11686913920E+02  0.25310316302E+02 -0.65567446613E+02  0.71248060490E+02  0.00000000000E+00 0. -1.
         11    1    1    2    0    0 -0.18795270964E+02  0.19417161157E+02  0.25924508261E+02  0.37448210726E+02  0.00000000000E+00 0.  1.
</event>
<event>
 7    1  0.2648915E-009  0.1208821E+03  0.7561462E-02  0.1241649E+00
         -2   -1    0    0    0  501 -0.00000000000E+00  0.00000000000E+00  0.38275806491E+02  0.38275806491E+02  0.00000000000E+00 0.  1.
          2   -1    0    0  501    0  0.00000000000E+00 -0.00000000000E+00 -0.58626982809E+03  0.58626982809E+03  0.00000000000E+00 0. -1.
         25    2    1    2    0    0  0.52896235176E+02  0.19469040681E+02 -0.47143589478E+03  0.49099515640E+03  0.12508950989E+03 0.  0.
          5    1    3    3  502    0  0.92534705873E+02  0.23120997248E+02 -0.29449033993E+03  0.30957920637E+03  0.41800000000E+01 0.  1.
         -5    1    3    3    0  502 -0.39638470696E+02 -0.36519565677E+01 -0.17694555485E+03  0.18141595004E+03  0.41800000000E+01 0.  1.
        -11    1    1    2    0    0 -0.78664079100E+02 -0.13437900268E+02 -0.42486920450E+02  0.90408809933E+02  0.00000000000E+00 0.  1.
         11    1    1    2    0    0  0.25767843924E+02 -0.60311404122E+01 -0.34071206365E+02  0.43141668238E+02  0.00000000000E+00 0. -1.
</event>
<event>
 7    1  0.2648915E-009  0.1356661E+03  0.7561462E-02  0.1219282E+00
          2   -1    0    0  501    0  0.00000000000E+00  0.00000000000E+00  0.31242515591E+02  0.31242515591E+02  0.00000000000E+00 0. -1.
         -2   -1    0    0    0  501 -0.00000000000E+00 -0.00000000000E+00 -0.68054889171E+03  0.68054889171E+03  0.00000000000E+00 0.  1.
         25    2    1    2    0    0  0.43744131806E+02  0.85055114373E+02 -0.39354424852E+03  0.42387796781E+03  0.12509010553E+03 0.  0.
          5    1    3    3  502    0  0.35102444057E+02  0.11656379919E+03 -0.33828836386E+03  0.35954942690E+03  0.41800000000E+01 0.  1.
         -5    1    3    3    0  502  0.86416877490E+01 -0.31508684817E+02 -0.55255884662E+02  0.64328540912E+02  0.41800000000E+01 0.  1.
        -11    1    1    2    0    0  0.16215830524E+02 -0.34645891707E+02 -0.15838568333E+03  0.16293960739E+03  0.00000000000E+00 0.  1.
         11    1    1    2    0    0 -0.59959962329E+02 -0.50409222666E+02 -0.97376444268E+02  0.12497383210E+03  0.00000000000E+00 0. -1.
</event>
<event>
 7    1  0.2648915E-009  0.8991471E+02  0.7561462E-02  0.1303058E+00
          1   -1    0    0  501    0  0.00000000000E+00  0.00000000000E+00  0.53442338744E+02  0.53442338744E+02  0.00000000000E+00 0. -1.
         -1   -1    0    0    0  501 -0.00000000000E+00 -0.00000000000E+00 -0.33253055101E+03  0.33253055101E+03  0.00000000000E+00 0.  1.
         25    2    1    2    0    0  0.46383016818E+02  0.27730466308E+02 -0.73718024655E+02  0.15492581918E+03  0.12508916531E+03 0.  0.
          5    1    3    3  502    0 -0.99912231710E+01  0.99887514592E+01 -0.91804265327E+02  0.92979004234E+02  0.41800000000E+01 0. -1.
         -5    1    3    3    0  502  0.56374239989E+02  0.17741714848E+02  0.18086240672E+02  0.61946814944E+02  0.41800000000E+01 0. -1.
        -11    1    1    2    0    0  0.19182684037E+02 -0.34968323369E+02 -0.78873956429E+02  0.88384727237E+02  0.00000000000E+00 0.  1.
         11    1    1    2    0    0 -0.65565700855E+02  0.72378570611E+01 -0.12649623118E+03  0.14266234334E+03  0.00000000000E+00 0. -1.
</event>
<event>
 7    1  0.2648915E-009  0.8708739E+02  0.7561462E-02  0.1310062E+00
         -1   -1    0    0    0  501 -0.00000000000E+00  0.00000000000E+00  0.61498252280E+02  0.61498252280E+02  0.00000000000E+00 0.  1.
          1   -1    0    0  501    0  0.00000000000E+00 -0.00000000000E+00 -0.20963543702E+03  0.20963543702E+03  0.00000000000E+00 0. -1.
         25    2    1    2    0    0  0.33783770416E+02 -0.19179431384E+01 -0.80213426693E+02  0.15239978471E+03  0.12508588612E+03 0.  0.
          5    1    3    3  502    0 -0.25131138862E+02 -0.25250997243E+00 -0.89079943650E+02  0.92651749377E+02  0.41800000000E+01 0.  1.
         -5    1    3    3    0  502  0.58914909278E+02 -0.16654331660E+01  0.88665169576E+01  0.59748035330E+02  0.41800000000E+01 0.  1.
        -11    1    1    2    0    0  0.24685081676E+02 -0.14821352784E+02 -0.45637807789E+02  0.53961423772E+02  0.00000000000E+00 0. -1.
         11    1    1    2    0    0 -0.58468852091E+02  0.16739295922E+02 -0.22285950259E+02  0.64772480822E+02  0.00000000000E+00 0.  1.
</event>
<event>
 7    1  0.2648915E-009  0.1487320E+03  0.7561462E-02  0.1202040E+00
          2   -1    0    0  501    0  0.00000000000E+00  0.00000000000E+00  0.14968076897E+03  0.14968076897E+03  0.00000000000E+00 0. -1.
         -2   -1    0    0    0  501 -0.00000000000E+00 -0.00000000000E+00 -0.16434784417E+03  0.16434784417E+03  0.00000000000E+00 0.  1.
         25    2    1    2    0    0 -0.63008578407E+01  0.11106873833E+03 -0.20279529222E+02  0.16862738572E+03  0.12509184812E+03 0.  0.
          5    1    3    3  502    0 -0.63911572524E+02  0.60734692019E+02 -0.25379068736E+02  0.91842046183E+02  0.41800000000E+01 0. -1.
         -5    1    3    3    0  502  0.57610714683E+02  0.50334046312E+02  0.50995395139E+01  0.76785339536E+02  0.41800000000E+01 0. -1.
        -11    1    1    2    0    0 -0.29571777720E+02 -0.79410024039E+02 -0.25306259011E+02  0.88435562420E+02  0.00000000000E+00 0.  1.
         11    1    1    2    0    0  0.35872635561E+02 -0.31658714292E+02  0.30918713039E+02  0.56965664998E+02  0.00000000000E+00 0. -1.
</event>
<event>
 7    1  0.2648915E-009  0.8683784E+02  0.7561462E-02  0.1310695E+00
         -4   -1    0    0    0  501 -0.00000000000E+00  0.00000000000E+00  0.21454512774E+03  0.21454512774E+03  0.00000000000E+00 0.  1.
          4   -1    0    0  501    0  0.00000000000E+00 -0.00000000000E+00 -0.57857302495E+02  0.57857302495E+02  0.00000000000E+00 0. -1.
         25    2    1    2    0    0 -0.15882474120E+02  0.89187879184E+01  0.73000441003E+02  0.14597378239E+03  0.12508989965E+03 0.  0.
          5    1    3    3  502    0 -0.12234808116E+02  0.45970166641E+02 -0.15226039090E+02  0.50122364440E+02  0.41800000000E+01 0. -1.
         -5    1    3    3    0  502 -0.36476660040E+01 -0.37051378723E+02  0.88226480093E+02  0.95851417946E+02  0.41800000000E+01 0. -1.
        -11    1    1    2    0    0 -0.34807090213E+02 -0.13993247156E+02  0.13859162152E+02  0.39992760227E+02  0.00000000000E+00 0.  1.
         11    1    1    2    0    0  0.50689564333E+02  0.50744592381E+01  0.69828222091E+02  0.86435887623E+02  0.00000000000E+00 0. -1.
</event>
<event>
 7    1  0.2648915E-009  0.1163018E+03  0.7561462E-02  0.1249326E+00
          1   -1    0    0  501    0  0.00000000000E+00  0.00000000000E+00  0.99127818628E+02  0.99127818628E+02  0.00000000000E+00 0. -1.
         -1   -1    0    0    0  501 -0.00000000000E+00 -0.00000000000E+00 -0.27384720736E+03  0.27384720736E+03  0.00000000000E+00 0.  1.
         25    2    1    2    0    0  0.32344958892E+02  0.40853886736E+02 -0.21950102222E+03  0.25795858012E+03  0.12508674541E+03 0.  0.
          5    1    3    3  502    0  0.67567462114E+02  0.57360993545E+02 -0.10789512047E+03  0.13969421942E+03  0.41800000000E+01 0. -1.
         -5    1    3    3    0  502 -0.35222503221E+02 -0.16507106809E+02 -0.11160590175E+03  0.11826436070E+03  0.41800000000E+01 0. -1.
        -11    1    1    2    0    0 -0.57032728614E+01  0.29225976696E+02  0.51715023097E+01  0.30222995736E+02  0.00000000000E+00 0. -1.
         11    1    1    2    0    0 -0.26641686031E+02 -0.70079863432E+02  0.39610131175E+02  0.84793450130E+02  0.00000000000E+00 0.  1.
</event>
<event>
 7    1  0.2648915E-009  0.1414579E+03  0.7561462E-02  0.1211381E+00
         -2   -1    0    0    0  501 -0.00000000000E+00  0.00000000000E+00  0.14368274299E+03  0.14368274299E+03  0.00000000000E+00 0. -1.
          2   -1    0    0  501    0  0.00000000000E+00 -0.00000000000E+00 -0.15030269976E+03  0.15030269976E+03  0.00000000000E+00 0.  1.
         25    2    1    2    0    0  0.80067328613E+02 -0.53916673516E+02 -0.27247813101E+02  0.16033193741E+03  0.12508437968E+03 0.  0.
          5    1    3    3  502    0  0.85619937703E+02  0.11470853747E+02  0.59126553109E+01  0.86687865995E+02  0.41800000000E+01 0. -1.
         -5    1    3    3    0  502 -0.55526090906E+01 -0.65387527264E+02 -0.33160468412E+02  0.73644071415E+02  0.41800000000E+01 0. -1.
        -11    1    1    2    0    0 -0.18185722492E+02 -0.24669714738E+02 -0.32414430898E+01  0.30819186899E+02  0.00000000000E+00 0.  1.
         11    1    1    2    0    0 -0.61881606121E+02  0.78586388254E+02  0.23869299423E+02  0.10283431844E+03  0.00000000000E+00 0. -1.
</event>
<event>
 7    1  0.2648915E-009  0.1159420E+03  0.7561462E-02  0.1249946E+00
         -2   -1    0    0    0  501 -0.00000000000E+00  0.00000000000E+00  0.50237122202E+02  0.50237122202E+02  0.00000000000E+00 0.  1.
          2   -1    0    0  501    0  0.00000000000E+00 -0.00000000000E+00 -0.36643495094E+03  0.36643495094E+03  0.00000000000E+00 0. -1.
         25    2    1    2    0    0 -0.70995877518E+02  0.40170860451E+02 -0.16302712628E+03  0.22109392669E+03  0.12510222964E+03 0.  0.
          5    1    3    3  502    0 -0.10446849855E+02 -0.42736021774E+02 -0.31885495688E+02  0.54494600322E+02  0.41800000000E+01 0.  1.
         -5    1    3    3    0  502 -0.60549027662E+02  0.82906882225E+02 -0.13114163060E+03  0.16659932637E+03  0.41800000000E+01 0.  1.
        -11    1    1    2    0    0  0.59118903649E+02 -0.21684670728E+02 -0.28734056441E+02  0.69216441059E+02  0.00000000000E+00 0.  1.
         11    1    1    2    0    0  0.11876973869E+02 -0.18486189722E+02 -0.12443664602E+03  0.12636170540E+03  0.00000000000E+00 0. -1.
</event>
<event>
 7    1  0.2648915E-009  0.1181519E+03  0.7561462E-02  0.1246177E+00
          2   -1    0    0  501    0  0.00000000000E+00  0.00000000000E+00  0.59842786638E+03  0.59842786638E+03  0.00000000000E+00 0. -1.
         -2   -1    0    0    0  501 -0.00000000000E+00 -0.00000000000E+00 -0.40845803659E+02  0.40845803659E+02  0.00000000000E+00 0.  1.
         25    2    1    2    0    0 -0.92890553914E+02 -0.60295760117E+02  0.33132709844E+03  0.37106529458E+03  0.12509025936E+03 0.  0.
          5    1    3    3  502    0 -0.66238301843E+02 -0.53005228280E+02  0.33241818434E+03  0.34309821995E+03  0.41800000000E+01 0.  1.
         -5    1    3    3    0  502 -0.26652252071E+02 -0.72905318366E+01 -0.10910858944E+01  0.27967074630E+02  0.41800000000E+01 0.  1.
        -11    1    1    2    0    0  0.52125845561E+02  0.63936823481E+02  0.20728922879E+03  0.22310052789E+03  0.00000000000E+00 0. -1.
         11    1    1    2    0    0  0.40764708353E+02 -0.36410633642E+01  0.18965735487E+02  0.45107847567E+02  0.00000000000E+00 0.  1.
</event>
<event>
 7    1  0.2648915E-009  0.1409801E+03  0.7561462E-02  0.1212016E+00
         -2   -1    0    0    0  501 -0.00000000000E+00  0.00000000000E+00  0.15720233983E+02  0.15720233983E+02  0.00000000000E+00 0. -1.
          2   -1    0    0  501    0  0.00000000000E+00 -0.00000000000E+00 -0.15315463963E+04  0.15315463963E+04  0.00000000000E+00 0.  1.
         25    2    1    2    0    0  0.75098179076E+02  0.60352808371E+02 -0.10969248192E+04  0.11082298862E+04  0.12508886338E+03 0.  0.
          5    1    3    3  502    0 -0.25854644440E+02  0.48865686681E+02 -0.33671019856E+03  0.34124411818E+03  0.41800000000E+01 0. -1.
         -5    1    3    3    0  502  0.10095282352E+03  0.11487121691E+02 -0.76021462065E+03  0.76698576804E+03  0.41800000000E+01 0. -1.
        -11    1    1    2    0    0 -0.30353781980E+02  0.17497205742E+02 -0.64106553739E+02  0.73055831536E+02  0.00000000000E+00 0. -1.
         11    1    1    2    0    0 -0.44744397096E+02 -0.77850014113E+02 -0.35479478941E+03  0.36598091257E+03  0.00000000000E+00 0.  1.
</event>
<event>
 7    1  0.2648915E-009  0.1773822E+03  0.7561462E-02  0.1170361E+00
          2   -1    0    0  501    0  0.00000000000E+00  0.00000000000E+00  0.73779884825E+02  0.73779884825E+02  0.00000000000E+00 0. -1.
         -2   -1    0    0    0  501 -0.00000000000E+00 -0.00000000000E+00 -0.14185389497E+04  0.14185389497E+04  0.00000000000E+00 0.  1.
         25    2    1    2    0    0  0.11219871050E+03 -0.11027013650E+03 -0.12857549784E+04  0.13013694135E+04  0.12509369380E+03 0.  0.
          5    1    3    3  502    0  0.11814221897E+03 -0.65402041818E+02 -0.11563203205E+04  0.11641860534E+04  0.41800000000E+01 0.  1.
         -5    1    3    3    0  502 -0.59435084730E+01 -0.44868094680E+02 -0.12943465795E+03  0.13718336012E+03  0.41800000000E+01 0.  1.
        -11    1    1    2    0    0 -0.19162314995E+01  0.47055900167E+02  0.71757577591E+01  0.47638442283E+02  0.00000000000E+00 0. -1.
         11    1    1    2    0    0 -0.11028247900E+03  0.63214236331E+02 -0.66179844229E+02  0.14331097875E+03  0.00000000000E+00 0.  1.
</event>
<event>
 7    1  0.2648915E-009  0.1881644E+03  0.7561462E-02  0.1160127E+00
         -2   -1    0    0    0  501 -0.00000000000E+00  0.00000000000E+00  0.13708537743E+03  0.13708537743E+03  0.00000000000E+00 0.  1.
          2   -1    0    0  501    0  0.00000000000E+00 -0.00000000000E+00 -0.29856270328E+03  0.29856270328E+03  0.00000000000E+00 0. -1.
         25    2    1    2    0    0 -0.55360486042E+01 -0.16462425906E+03 -0.13230965738E+03  0.24553024697E+03  0.12508981667E+03 0.  0.
          5    1    3    3  502    0 -0.35079560002E+02 -0.15204327819E+03 -0.61692500450E+02  0.16784269714E+03  0.41800000000E+01 0. -1.
         -5    1    3    3    0  502  0.29543511397E+02 -0.12580980878E+02 -0.70617156929E+02  0.77687549828E+02  0.41800000000E+01 0. -1.
        -11    1    1    2    0    0  0.45446754939E+02  0.55947885643E+02 -0.12305278343E+02  0.73123138044E+02  0.00000000000E+00 0.  1.
         11    1    1    2    0    0 -0.39910706334E+02  0.10867637342E+03 -0.16862390131E+02  0.11699469570E+03  0.00000000000E+00 0. -1.
</event>
<event>
 7    1  0.2648915E-009  0.1289068E+03  0.7561462E-02  0.1229087E+00
          1   -1    0    0  501    0  0.00000000000E+00  0.00000000000E+00  0.27127079981E+03  0.27127079981E+03  0.00000000000E+00 0. -1.
         -1   -1    0    0    0  501 -0.00000000000E+00 -0.00000000000E+00 -0.93618739797E+02  0.93618739797E+02  0.00000000000E+00 0.  1.
         25    2    1    2    0    0  0.88034037686E+02 -0.76060628528E+02  0.10624673389E+03  0.20117408274E+03  0.12508969622E+03 0.  0.
          5    1    3    3  502    0  0.59834839256E+02 -0.15013932855E+02  0.11758604883E+03  0.13285171225E+03  0.41800000000E+01 0.  1.
         -5    1    3    3    0  502  0.28199198430E+02 -0.61046695674E+02 -0.11339314948E+02  0.68322370482E+02  0.41800000000E+01 0.  1.
        -11    1    1    2    0    0 -0.77559625370E+02  0.32994549484E+02  0.82589116683E+02  0.11800465236E+03  0.00000000000E+00 0. -1.
         11    1    1    2    0    0 -0.10474412317E+02  0.43066079044E+02 -0.11183790561E+02  0.45710804510E+02  0.00000000000E+00 0.  1.
</event>
<event>
 7    1  0.2648915E-009  0.1177880E+03  0.7561462E-02  0.1246791E+00
          4   -1    0    0  501    0  0.00000000000E+00  0.00000000000E+00  0.52208492739E+02  0.52208492739E+02  0.00000000000E+00 0. -1.
         -4   -1    0    0    0  501 -0.00000000000E+00 -0.00000000000E+00 -0.27818617566E+03  0.27818617566E+03  0.00000000000E+00 0.  1.
         25    2    1    2    0    0 -0.83184712590E+01 -0.52800305858E+02 -0.11362850226E+03  0.17723786711E+03  0.12507899804E+03 0.  0.
          5    1    3    3  502    0 -0.62393066411E+02 -0.12122115158E+02 -0.32492866802E+02  0.71505938251E+02  0.41800000000E+01 0.  1.
         -5    1    3    3    0  502  0.54074595152E+02 -0.40678190700E+02 -0.81135635457E+02  0.10573192886E+03  0.41800000000E+01 0.  1.
        -11    1    1    2    0    0  0.47364719418E+02  0.42654944876E+02 -0.69627075229E+02  0.94396983919E+02  0.00000000000E+00 0. -1.
         11    1    1    2    0    0 -0.39046248159E+02  0.10145360982E+02 -0.42722105438E+02  0.58759817374E+02  0.00000000000E+00 0.  1.
</event>
<event>
 7    1  0.2648915E-009  0.2041124E+03  0.7561462E-02  0.1146315E+00
         -2   -1    0    0    0  501 -0.00000000000E+00  0.00000000000E+00  0.90593336527E+02  0.90593336527E+02  0.00000000000E+00 0.  1.
          2   -1    0    0  501    0  0.00000000000E+00 -0.00000000000E+00 -0.63647253563E+03  0.63647253563E+03  0.00000000000E+00 0. -1.
         25    2    1    2    0    0 -0.78246897109E+02  0.17751628031E+03 -0.14689795561E+03  0.27360928699E+03  0.12509366845E+03 0.  0.
          5    1    3    3  502    0 -0.90078237735E+02  0.12844298158E+03 -0.50755905889E+02  0.16494036138E+03  0.41800000000E+01 0. -1.
         -5    1    3    3    0  502  0.11831340626E+02  0.49073298730E+02 -0.96142049719E+02  0.10866892561E+03  0.41800000000E+01 0. -1.
        -11    1    1    2    0    0  0.11094112530E+02 -0.27267951076E+00  0.69086660268E+00  0.11118947055E+02  0.00000000000E+00 0.  1.
         11    1    1    2    0    0  0.67152784579E+02 -0.17724360080E+03 -0.39967211010E+03  0.44233763811E+03  0.00000000000E+00 0. -1.
</event>
<event>
 7    1  0.2648915E-009  0.1628740E+03  0.7561462E-02  0.1185490E+00
          3   -1    0    0  501    0  0.00000000000E+00  0.00000000000E+00  0.10471444338E+04  0.10471444338E+04  0.00000000000E+00 0. -1.
         -3   -1    0    0    0  501 -0.00000000000E+00 -0.00000000000E+00 -0.28136143401E+02  0.28136143401E+02  0.00000000000E+00 0.  1.
         25    2    1    2    0    0 -0.10796779107E+03 -0.69651857657E+02  0.64936914389E+03  0.67367449042E+03  0.12509439961E+03 0.  0.
          5    1    3    3  502    0 -0.13613315331E+03 -0.62904012577E+02  0.53807433110E+03  0.55859700001E+03  0.41800000000E+01 0. -1.
         -5    1    3    3    0  502  0.28165362249E+02 -0.67478450805E+01  0.11129481280E+03  0.11507749041E+03  0.41800000000E+01 0. -1.
        -11    1    1    2    0    0  0.32658886925E+02 -0.12543333519E+02  0.16403877335E+03  0.16772792634E+03  0.00000000000E+00 0. -1.
         11    1    1    2    0    0  0.75308904140E+02  0.82195191176E+02  0.20560037319E+03  0.23387816048E+03  0.00000000000E+00 0.  1.
</event>
<event>
 7    1  0.2779612E-009  0.1586160E+03  0.7561462E-02  0.1190268E+00
          1   -1    0    0  501    0  0.00000000000E+00  0.00000000000E+00  0.54205880124E+03  0.54205880124E+03  0.00000000000E+00 0. -1.
         -1   -1    0    0    0  501 -0.00000000000E+00 -0.00000000000E+00 -0.62007913493E+02  0.62007913493E+02  0.00000000000E+00 0.  1.
         25    2    1    2    0    0  0.24445905859E+02 -0.14416580517E+03  0.28157869884E+03  0.34104906473E+03  0.12508604724E+03 0.  0.
          5    1    3    3  502    0  0.16693032316E+02 -0.89187522917E+02  0.26906159685E+03  0.28398008182E+03  0.41800000000E+01 0. -1.
         -5    1    3    3    0  502  0.77528735434E+01 -0.54978282255E+02  0.12517101997E+02  0.57068982909E+02  0.41800000000E+01 0. -1.
        -11    1    1    2    0    0 -0.57943640693E+02  0.91588023086E+02  0.10681661074E+03  0.15216970723E+03  0.00000000000E+00 0.  1.
         11    1    1    2    0    0  0.33497734834E+02  0.52577782086E+02  0.91655578166E+02  0.11084794277E+03  0.00000000000E+00 0. -1.
</event>
<event>
 7    1  0.2648915E-009  0.9839214E+02  0.7561462E-02  0.1283714E+00
          1   -1    0    0  501    0  0.00000000000E+00  0.00000000000E+00  0.11998773228E+03  0.11998773228E+03  0.00000000000E+00 0. -1.
         -1   -1    0    0    0  501 -0.00000000000E+00 -0.00000000000E+00 -0.11816870910E+03  0.11816870910E+03  0.00000000000E+00 0.  1.
         25    2    1    2    0    0  0.45897337465E+02  0.30955145190E+01  0.18012383026E+02  0.13449098848E+03  0.12508889736E+03 0.  0.
          5    1    3    3  502    0 -0.17129081978E+02 -0.33258668531E+02 -0.29212430387E+02  0.47648535874E+02  0.41800000000E+01 0. -1.
         -5    1    3    3    0  502  0.63026419443E+02  0.36354183049E+02  0.47224813413E+02  0.86842452607E+02  0.41800000000E+01 0. -1.
        -11    1    1    2    0    0 -0.17317730696E+02 -0.37636647648E+02 -0.35780339580E+02  0.54741700221E+02  0.00000000000E+00 0.  1.
         11    1    1    2    0    0 -0.28579606769E+02  0.34541133129E+02  0.19586979729E+02  0.48923752675E+02  0.00000000000E+00 0. -1.
</event>
<event>
 7    1  0.2648915E-009  0.9590570E+02  0.7561462E-02  0.1289149E+00
         -4   -1    0    0    0  501 -0.00000000000E+00  0.00000000000E+00  0.22580366080E+03  0.22580366080E+03  0.00000000000E+00 0. -1.
          4   -1    0    0  501    0  0.00000000000E+00 -0.00000000000E+00 -0.77440805409E+02  0.77440805409E+02  0.00000000000E+00 0.  1.
         25    2    1    2    0    0 -0.24830639527E+02 -0.47601433853E+01 -0.80238710051E+00  0.12762589932E+03  0.12509399158E+03 0.  0.
          5    1    3    3  502    0 -0.30187509608E+02 -0.61213599187E+02 -0.12658541568E+02  0.69542084642E+02  0.41800000000E+01 0.  1.
         -5    1    3    3    0  502  0.53568700813E+01  0.56453455802E+02  0.11856154467E+02  0.58083814680E+02  0.41800000000E+01 0.  1.
        -11    1    1    2    0    0 -0.10314934300E+02  0.24271145048E+02  0.61749441826E+01  0.27085351894E+02  0.00000000000E+00 0.  1.
         11    1    1    2    0    0  0.35145573827E+02 -0.19511001663E+02  0.14299029831E+03  0.14853321499E+03  0.00000000000E+00 0. -1.
</event>
<event>
 7    1  0.2648915E-009  0.1515388E+03  0.7561462E-02  0.1198595E+00
         -1   -1    0    0    0  501 -0.00000000000E+00  0.00000000000E+00  0.83187253746E+02  0.83187253746E+02  0.00000000000E+00 0.  1.
          1   -1    0    0  501    0  0.00000000000E+00 -0.00000000000E+00 -0.45848460568E+03  0.45848460568E+03  0.00000000000E+00 0. -1.
         25    2    1    2    0    0 -0.12425353828E+03  0.81547661181E+02 -0.30578341817E+03  0.36227206461E+03  0.12509431301E+03 0.  0.
          5    1    3    3  502    0 -0.56809988432E+00  0.42966047352E+01 -0.14516260015E+03  0.14528742696E+03  0.41800000000E+01 0. -1.
         -5    1    3    3    0  502 -0.12368543840E+03  0.77251056446E+02 -0.16062081802E+03  0.21698463765E+03  0.41800000000E+01 0. -1.
        -11    1    1    2    0    0  0.25525887911E+02 -0.31301982657E+02  0.11688480102E+02  0.42047659138E+02  0.00000000000E+00 0.  1.
         11    1    1    2    0    0  0.98727650370E+02 -0.50245678524E+02 -0.81202413858E+02  0.13735213567E+03  0.00000000000E+00 0. -1.
</event>
<event>
 7    1  0.2648915E-009  0.1217529E+03  0.7561462E-02  0.1240233E+00
         -1   -1    0    0    0  501 -0.00000000000E+00  0.00000000000E+00  0.18125515838E+03  0.18125515838E+03  0.00000000000E+00 0.  1.
          1   -1    0    0  501    0  0.00000000000E+00 -0.00000000000E+00 -0.12287088812E+03  0.12287088812E+03  0.00000000000E+00 0. -1.
         25    2    1    2    0    0 -0.68093041154E+02  0.75407737653E+02  0.16971151759E+02  0.16204107555E+03  0.12508517507E+03 0.  0.
          5    1    3    3  502    0 -0.61829158533E+02  0.13641482936E+02 -0.42175520811E+02  0.76191744023E+02  0.41800000000E+01 0. -1.
         -5    1    3    3    0  502 -0.62638826213E+01  0.61766254718E+02  0.59146672570E+02  0.85849331526E+02  0.41800000000E+01 0. -1.
        -11    1    1    2    0    0  0.78599971609E+02 -0.72489106774E+02  0.83259463002E+01  0.10724713292E+03  0.00000000000E+00 0. -1.
         11    1    1    2    0    0 -0.10506930455E+02 -0.29186308789E+01  0.33087172207E+02  0.34837838028E+02  0.00000000000E+00 0.  1.
</event>
<event>
 7    1  0.2648915E-009  0.1704243E+03  0.7561462E-02  0.1177406E+00
         -2   -1    0    0    0  501 -0.00000000000E+00  0.00000000000E+00  0.14019318295E+03  0.14019318295E+03  0.00000000000E+00 0.  1.
          2   -1    0    0  501    0  0.00000000000E+00 -0.00000000000E+00 -0.35350242715E+03  0.35350242715E+03  0.00000000000E+00 0. -1.
         25    2    1    2    0    0  0.67546217319E+02 -0.12688478583E+03 -0.26520617926E+03  0.32656321058E+03  0.12508785968E+03 0.  0.
          5    1    3    3  502    0 -0.22913074287E+02 -0.83518999719E+02 -0.15404854906E+03  0.17677347130E+03  0.41800000000E+01 0. -1.
         -5    1    3    3    0  502  0.90459291606E+02 -0.43365786111E+02 -0.11115763020E+03  0.14978973928E+03  0.41800000000E+01 0. -1.
        -11    1    1    2    0    0  0.96054982253E+01  0.15782408314E+02 -0.67936131046E+01  0.19685100644E+02  0.00000000000E+00 0. -1.
         11    1    1    2    0    0 -0.77151715544E+02  0.11110237752E+03  0.58690548164E+02  0.14744729887E+03  0.00000000000E+00 0.  1.
</event>
<event>
 7    1  0.2648915E-009  0.1336245E+03  0.7561462E-02  0.1222175E+00
          1   -1    0    0  501    0  0.00000000000E+00  0.00000000000E+00  0.20046766172E+03  0.20046766172E+03  0.00000000000E+00 0. -1.
         -1   -1    0    0    0  501 -0.00000000000E+00 -0.00000000000E+00 -0.89973837844E+02  0.89973837844E+02  0.00000000000E+00 0.  1.
         25    2    1    2    0    0 -0.73119235352E+02  0.27177970627E+02  0.48401127832E+02  0.15516244554E+03  0.12509056984E+03 0.  0.
          5    1    3    3  502    0 -0.75739691045E+02  0.70614015609E+02  0.36207233384E+02  0.10977830455E+03  0.41800000000E+01 0.  1.
         -5    1    3    3    0  502  0.26204556927E+01 -0.43436044982E+02  0.12193894448E+02  0.45384140991E+02  0.41800000000E+01 0.  1.
        -11    1    1    2    0    0  0.70473090259E+01 -0.49620825783E+02  0.21357271750E+02  0.54479573901E+02  0.00000000000E+00 0.  1.
         11    1    1    2    0    0  0.66071926327E+02  0.22442855156E+02  0.40735424295E+02  0.80799480125E+02  0.00000000000E+00 0. -1.
</event>
<event>
 7    1  0.2648915E-009  0.1199495E+03  0.7561462E-02  0.1243180E+00
          2   -1    0    0  501    0  0.00000000000E+00  0.00000000000E+00  0.28959662973E+03  0.28959662973E+03  0.00000000000E+00 0. -1.
         -2   -1    0    0    0  501 -0.00000000000E+00 -0.00000000000E+00 -0.62077781969E+02  0.62077781969E+02  0.00000000000E+00 0.  1.
         25    2    1    2    0    0  0.32732562733E+02  0.71061869144E+02  0.13295123578E+03  0.19860517519E+03  0.12508706810E+03 0.  0.
          5    1    3    3  502    0  0.20190936255E+02  0.92366639248E+02  0.14309306867E+03  0.17155864494E+03  0.41800000000E+01 0. -1.
         -5    1    3    3    0  502  0.12541626478E+02 -0.21304770104E+02 -0.10141832891E+02  0.27046530245E+02  0.41800000000E+01 0. -1.
        -11    1    1    2    0    0  0.31559294256E+02 -0.15261326529E+02  0.23870071430E+02  0.42410817623E+02  0.00000000000E+00 0.  1.
         11    1    1    2    0    0 -0.64291856989E+02 -0.55800542614E+02  0.70697540551E+02  0.11065841889E+03  0.00000000000E+00 0. -1.
</event>
<event>
 7    1  0.2648915E-009  0.1099805E+03  0.7561462E-02  0.1260606E+00
         -2   -1    0    0    0  501 -0.00000000000E+00  0.00000000000E+00  0.16350484685E+02  0.16350484685E+02  0.00000000000E+00 0. -1.
          2   -1    0    0  501    0  0.00000000000E+00 -0.00000000000E+00 -0.93897268886E+03  0.93897268886E+03  0.00000000000E+00 0.  1.
         25    2    1    2    0    0  0.44752596723E+02  0.11118611973E+02 -0.67511108279E+03  0.68814946753E+03  0.12509315375E+03 0.  0.
          5    1    3    3  502    0  0.56956550615E+02  0.54353023119E+02 -0.53949264910E+03  0.54522297330E+03  0.41800000000E+01 0.  1.
         -5    1    3    3    0  502 -0.12203953892E+02 -0.43234411146E+02 -0.13561843369E+03  0.14292649423E+03  0.41800000000E+01 0.  1.
        -11    1    1    2    0    0 -0.27339538716E+02  0.36325542841E+02 -0.15766166807E+03  0.16408594401E+03  0.00000000000E+00 0.  1.
         11    1    1    2    0    0 -0.17413058007E+02 -0.47444154815E+02 -0.89849453318E+02  0.10308776201E+03  0.00000000000E+00 0. -1.
</event>
<event>
 7    1  0.2648915E-009  0.1475388E+03  0.7561462E-02  0.1203530E+00
          2   -1    0    0  501    0  0.00000000000E+00  0.00000000000E+00  0.13350087014E+04  0.13350087014E+04  0.00000000000E+00 0. -1.
         -2   -1    0    0    0  501 -0.00000000000E+00 -0.00000000000E+00 -0.17225732451E+02  0.17225732451E+02  0.00000000000E+00 0.  1.
         25    2    1    2    0    0 -0.84605552945E+02 -0.63458931714E+02  0.70176829965E+03  0.72063190519E+03  0.12508581370E+03 0.  0.
          5    1    3    3  502    0  0.28721262511E+02 -0.17032020594E+02  0.26051504076E+03  0.26267957573E+03  0.41800000000E+01 0.  1.
         -5    1    3    3    0  502 -0.11332681546E+03 -0.46426911120E+02  0.44125325889E+03  0.45795232946E+03  0.41800000000E+01 0.  1.
        -11    1    1    2    0    0  0.66137121249E+02 -0.65700613804E+01  0.26642503740E+03  0.27458984881E+03  0.00000000000E+00 0. -1.
         11    1    1    2    0    0  0.18468431697E+02  0.70028993094E+02  0.34958963194E+03  0.35701267989E+03  0.00000000000E+00 0.  1.
</event>
<event>
 7    1  0.2648915E-009  0.1147359E+03  0.7561462E-02  0.1252043E+00
          1   -1    0    0  501    0  0.00000000000E+00  0.00000000000E+00  0.34162349106E+03  0.34162349106E+03  0.00000000000E+00 0. -1.
         -1   -1    0    0    0  501 -0.00000000000E+00 -0.00000000000E+00 -0.51753335455E+02  0.51753335455E+02  0.00000000000E+00 0.  1.
         25    2    1    2    0    0  0.38360942969E+02  0.23602701815E+02  0.23857238307E+03  0.27311711182E+03  0.12509006885E+03 0.  0.
          5    1    3    3  502    0 -0.57934858585E+01 -0.41434806426E+02  0.34502911216E+02  0.54390540945E+02  0.41800000000E+01 0. -1.
         -5    1    3    3    0  502  0.44154428827E+02  0.65037508241E+02  0.20406947186E+03  0.21872657087E+03  0.41800000000E+01 0. -1.
        -11    1    1    2    0    0 -0.31513353834E+02 -0.62081262976E+02  0.30845520815E+02  0.76148675871E+02  0.00000000000E+00 0. -1.
         11    1    1    2    0    0 -0.68475891347E+01  0.38478561160E+02  0.20452251723E+02  0.44111038828E+02  0.00000000000E+00 0.  1.
</event>
<event>
 7    1  0.2648915E-009  0.1344320E+03  0.7561462E-02  0.1221024E+00
         -2   -1    0    0    0  501 -0.00000000000E+00  0.00000000000E+00  0.30646340243E+02  0.30646340243E+02  0.00000000000E+00 0.  1.
          2   -1    0    0  501    0  0.00000000000E+00 -0.00000000000E+00 -0.72628621076E+03  0.72628621076E+03  0.00000000000E+00 0. -1.
         25    2    1    2    0    0  0.32877353473E+02  0.78668850362E+02 -0.51542169058E+03  0.53719421024E+03  0.12509353304E+03 0.  0.
          5    1    3    3  502    0  0.78865189447E+02  0.65973516496E+02 -0.37307550042E+03  0.38700778338E+03  0.41800000000E+01 0. -1.
         -5    1    3    3    0  502 -0.45987835973E+02  0.12695333865E+02 -0.14234619017E+03  0.15018642687E+03  0.41800000000E+01 0. -1.
        -11    1    1    2    0    0  0.23109555518E+02 -0.20888922763E+01 -0.10854610583E+02  0.25617134853E+02  0.00000000000E+00 0.  1.
         11    1    1    2    0    0 -0.55986908991E+02 -0.76579958085E+02 -0.16936356935E+03  0.19412120591E+03  0.00000000000E+00 0. -1.
</event>
<event>
 7    1  0.2648915E-009  0.1037471E+03  0.7561462E-02  0.1272608E+00
         -4   -1    0    0    0  501 -0.00000000000E+00  0.00000000000E+00  0.16140305780E+03  0.16140305780E+03  0.00000000000E+00 0.  1.
          4   -1    0    0  501    0  0.00000000000E+00 -0.00000000000E+00 -0.15106953223E+03  0.15106953223E+03  0.00000000000E+00 0. -1.
         25    2    1    2    0    0 -0.57837329395E+02  0.66518806264E+02  0.73884651641E+02  0.16993513222E+03  0.12509635949E+03 0.  0.
          5    1    3    3  502    0  0.66865919981E-01 -0.14021624980E+02 -0.25535731068E+02  0.29430535152E+02  0.41800000000E+01 0.  1.
         -5    1    3    3    0  502 -0.57904195315E+02  0.80540431244E+02  0.99420382709E+02  0.14050459707E+03  0.41800000000E+01 0.  1.
        -11    1    1    2    0    0  0.15359506377E+02 -0.86679593659E+00  0.21864480996E+02  0.26734272022E+02  0.00000000000E+00 0.  1.
         11    1    1    2    0    0  0.42477823018E+02 -0.65652010328E+02 -0.85415607068E+02  0.11580318579E+03  0.00000000000E+00 0. -1.
</event>
<event>
 7    1  0.2648915E-009  0.1259829E+03  0.7561462E-02  0.1233541E+00
          1   -1    0    0  501    0  0.00000000000E+00  0.00000000000E+00  0.11340285525E+03  0.11340285525E+03  0.00000000000E+00 0. -1.
         -1   -1    0    0    0  501 -0.00000000000E+00 -0.00000000000E+00 -0.22357369946E+03  0.22357369946E+03  0.00000000000E+00 0.  1.
         25    2    1    2    0    0 -0.34826855733E+02 -0.99057280425E+02 -0.97313675897E+02  0.19011243695E+03  0.12509009745E+03 0.  0.
          5    1    3    3  502    0 -0.68733637217E+01 -0.49951640654E+02  0.24165306462E+02  0.56069991700E+02  0.41800000000E+01 0.  1.
         -5    1    3    3    0  502 -0.27953492012E+02 -0.49105639771E+02 -0.12147898236E+03  0.13404244525E+03  0.41800000000E+01 0.  1.
        -11    1    1    2    0    0  0.60822738514E+02  0.24185021645E+02 -0.16572994834E+02  0.67520255850E+02  0.00000000000E+00 0. -1.
         11    1    1    2    0    0 -0.25995882781E+02  0.74872258780E+02  0.37158265268E+01  0.79343861913E+02  0.00000000000E+00 0.  1.
</event>
<event>
 7    1  0.2648915E-009  0.1081377E+03  0.7561462E-02  0.1264058E+00
         -2   -1    0    0    0  501 -0.00000000000E+00  0.00000000000E+00  0.69337470287E+03  0.69337470287E+03  0.00000000000E+00 0.  1.
          2   -1    0    0  501    0  0.00000000000E+00 -0.00000000000E+00 -0.23620841526E+02  0.23620841526E+02  0.00000000000E+00 0. -1.
         25    2    1    2    0    0  0.18270090670E+02 -0.52259808365E+02  0.48091442227E+03  0.49999139462E+03  0.12509128414E+03 0.  0.
          5    1    3    3  502    0 -0.40116167515E+02 -0.57479064090E+02  0.34239662029E+03  0.34952262830E+03  0.41800000000E+01 0.  1.
         -5    1    3    3    0  502  0.58386258185E+02  0.52192557252E+01  0.13851780198E+03  0.15046876633E+03  0.41800000000E+01 0.  1.
        -11    1    1    2    0    0  0.20193150143E+02  0.43327966159E+02  0.16287714028E+03  0.16974698463E+03  0.00000000000E+00 0.  1.
         11    1    1    2    0    0 -0.38463240813E+02  0.89318422054E+01  0.25962298803E+02  0.47257165152E+02  0.00000000000E+00 0. -1.
</event>
<event>
 7    1  0.2648915E-009  0.1761522E+03  0.7561462E-02  0.1171580E+00
         -2   -1    0    0    0  501 -0.00000000000E+00  0.00000000000E+00  0.69833725934E+02  0.69833725934E+02  0.00000000000E+00 0.  1.
          2   -1    0    0  501    0  0.00000000000E+00 -0.00000000000E+00 -0.57187418374E+03  0.57187418374E+03  0.00000000000E+00 0. -1.
         25    2    1    2    0    0 -0.86337270366E+02 -0.12062825028E+03 -0.38553104657E+03  0.43160946758E+03  0.12508895084E+03 0.  0.
          5    1    3    3  502    0 -0.90322361881E+02 -0.19687461875E+02 -0.17044856652E+03  0.19394821845E+03  0.41800000000E+01 0. -1.
         -5    1    3    3    0  502  0.39850915148E+01 -0.10094078840E+03 -0.21508248004E+03  0.23766124913E+03  0.41800000000E+01 0. -1.
        -11    1    1    2    0    0  0.80295624568E+02  0.66671270365E+02 -0.11567421162E+03  0.15579784611E+03  0.00000000000E+00 0. -1.
         11    1    1    2    0    0  0.60416457979E+01  0.53956979915E+02 -0.83519961491E+00  0.54300595981E+02  0.00000000000E+00 0.  1.
</event>
<event>
 7    1  0.2648915E-009  0.1648630E+03  0.7561462E-02  0.1183313E+00
         -3   -1    0    0    0  501 -0.00000000000E+00  0.00000000000E+00  0.21750628792E+03  0.21750628792E+03  0.00000000000E+00 0.  1.
          3   -1    0    0  501    0  0.00000000000E+00 -0.00000000000E+00 -0.13902618010E+03  0.13902618010E+03  0.00000000000E+00 0. -1.
         25    2    1    2    0    0  0.67957739932E+02 -0.10585187904E+03  0.93301476936E+02  0.20043766418E+03  0.12508883608E+03 0.  0.
          5    1    3    3  502    0 -0.20401744560E+02  0.14850967931E+02  0.32458294330E+01  0.25783526490E+02  0.41800000000E+01 0. -1.
         -5    1    3    3    0  502  0.88359484492E+02 -0.12070284697E+03  0.90055647503E+02  0.17465413769E+03  0.41800000000E+01 0. -1.
        -11    1    1    2    0    0 -0.89732241101E+02  0.76252169643E+02 -0.18363708782E+02  0.11917841360E+03  0.00000000000E+00 0. -1.
         11    1    1    2    0    0  0.21774501169E+02  0.29599709397E+02  0.35423396749E+01  0.36916390234E+02  0.00000000000E+00 0.  1.
</event>
<event>
 7    1  0.2648915E-009  0.1416572E+03  0.7561462E-02  0.1211116E+00
          1   -1    0    0  501    0  0.00000000000E+00  0.00000000000E+00  0.59195647853E+02  0.59195647853E+02  0.00000000000E+00 0. -1.
         -1   -1    0    0    0  501 -0.00000000000E+00 -0.00000000000E+00 -0.38687666136E+03  0.38687666136E+03  0.00000000000E+00 0.  1.
         25    2    1    2    0    0  0.95086892054E+02 -0.45255317772E+02 -0.17750997631E+03  0.24134331000E+03  0.12508893143E+03 0.  0.
          5    1    3    3  502    0 -0.22160822923E+02 -0.18307510800E+02 -0.84099969444E+02  0.88974964371E+02  0.41800000000E+01 0. -1.
         -5    1    3    3    0  502  0.11724771498E+03 -0.26947806972E+02 -0.93410006864E+02  0.15236834563E+03  0.41800000000E+01 0. -1.
        -11    1    1    2    0    0 -0.97652761228E+02  0.95789709957E+01 -0.13238196670E+03  0.16478107770E+03  0.00000000000E+00 0.  1.
         11    1    1    2    0    0  0.25658691742E+01  0.35676346776E+02 -0.17789070502E+02  0.39947921513E+02  0.00000000000E+00 0. -1.
</event>
<event>
 7    1  0.2648915E-009  0.1482476E+03  0.7561462E-02  0.1202643E+00
          2   -1    0    0  501    0  0.00000000000E+00  0.00000000000E+00  0.28851414006E+03  0.28851414006E+03  0.00000000000E+00 0. -1.
         -2   -1    0    0    0  501 -0.00000000000E+00 -0.00000000000E+00 -0.11851289305E+03  0.11851289305E+03  0.00000000000E+00 0.  1.
         25    2    1    2    0    0  0.62466132036E+02  0.13375053077E+03  0.62953014299E+02  0.20347626679E+03  0.12509311334E+03 0.  0.
          5    1    3    3  502    0  0.47312737131E+02  0.87325259584E+02  0.10078462782E+03  0.14155991545E+03  0.41800000000E+01 0. -1.
         -5    1    3    3    0  502  0.15153394906E+02  0.46425271189E+02 -0.37831613525E+02  0.61916351346E+02  0.41800000000E+01 0. -1.
        -11    1    1    2    0    0 -0.52741548090E+02 -0.10143464564E+03  0.28155133848E+02  0.11774281207E+03  0.00000000000E+00 0.  1.
         11    1    1    2    0    0 -0.97245839457E+01 -0.32315885132E+02  0.78893098864E+02  0.85807954254E+02  0.00000000000E+00 0. -1.
</event>
<event>
 7    1  0.2648915E-009  0.9779976E+02  0.7561462E-02  0.1284992E+00
         -1   -1    0    0    0  501 -0.00000000000E+00  0.00000000000E+00  0.12227169130E+02  0.12227169130E+02  0.00000000000E+00 0.  1.
          1   -1    0    0  501    0  0.00000000000E+00 -0.00000000000E+00 -0.12432255143E+04  0.12432255143E+04  0.00000000000E+00 0. -1.
         25    2    1    2    0    0  0.22602503085E+02 -0.49590189314E+01 -0.96657530011E+03  0.97491024269E+03  0.12508679188E+03 0.  0.
          5    1    3    3  502    0  0.45311203838E+02  0.37114121968E+02 -0.78186297448E+03  0.78406488667E+03  0.41800000000E+01 0.  1.
         -5    1    3    3    0  502 -0.22708700753E+02 -0.42073140899E+02 -0.18471232563E+03  0.19084535602E+03  0.41800000000E+01 0.  1.
        -11    1    1    2    0    0 -0.91676626854E+01 -0.40479014175E+02 -0.16874873162E+03  0.17377782094E+03  0.00000000000E+00 0. -1.
         11    1    1    2    0    0 -0.13434840400E+02  0.45438033106E+02 -0.95674313443E+02  0.10676461980E+03  0.00000000000E+00 0.  1.
</event>
<event>
 7    1  0.2648915E-009  0.1154567E+03  0.7561462E-02  0.1250786E+00
          1   -1    0    0  501    0  0.00000000000E+00  0.00000000000E+00  0.81285661222E+03  0.81285661222E+03  0.00000000000E+00 0. -1.
         -1   -1    0    0    0  501 -0.00000000000E+00 -0.00000000000E+00 -0.31230148588E+02  0.31230148588E+02  0.00000000000E+00 0.  1.
         25    2    1    2    0    0  0.82225492141E+02 -0.45434659377E+01  0.62033229122E+03  0.63815368425E+03  0.12508516520E+03 0.  0.
          5    1    3    3  502    0  0.94767486218E+02 -0.87400326805E+01  0.61642666802E+03  0.62374399722E+03  0.41800000000E+01 0.  1.
         -5    1    3    3    0  502 -0.12541994078E+02  0.41965667428E+01  0.39056231986E+01  0.14409687035E+02  0.41800000000E+01 0.  1.
        -11    1    1    2    0    0 -0.28734293281E+02 -0.41991530328E+02  0.37261797122E+02  0.63066550202E+02  0.00000000000E+00 0.  1.
         11    1    1    2    0    0 -0.53491198859E+02  0.46534996266E+02  0.12403237529E+03  0.14286652636E+03  0.00000000000E+00 0. -1.
</event>
<event>
 7    1  0.2648915E-009  0.1035070E+03  0.7561462E-02  0.1273089E+00
         -1   -1    0    0    0  501 -0.00000000000E+00  0.00000000000E+00  0.10331649366E+04  0.10331649366E+04  0.00000000000E+00 0.  1.
          1   -1    0    0  501    0  0.00000000000E+00 -0.00000000000E+00 -0.12721193384E+02  0.12721193384E+02  0.00000000000E+00 0. -1.
         25    2    1    2    0    0  0.84012498205E+01  0.36765785400E+02  0.57812993502E+03  0.59270903197E+03  0.12508985106E+03 0.  0.
          5    1    3    3  502    0 -0.46671579184E+02  0.10019658237E+02  0.10262637346E+03  0.11326197413E+03  0.41800000000E+01 0.  1.
         -5    1    3    3    0  502  0.55072829005E+02  0.26746127163E+02  0.47550356157E+03  0.47944705784E+03  0.41800000000E+01 0.  1.
        -11    1    1    2    0    0  0.25292101184E+02 -0.54187026526E+02  0.29953619472E+03  0.30544697768E+03  0.00000000000E+00 0.  1.
         11    1    1    2    0    0 -0.33693351004E+02  0.17421241126E+02  0.14277761347E+03  0.14773012033E+03  0.00000000000E+00 0. -1.
</event>
<event>
 7    1  0.2648915E-009  0.1144850E+03  0.7561462E-02  0.1252483E+00
          4   -1    0    0  501    0  0.00000000000E+00  0.00000000000E+00  0.17950975531E+03  0.17950975531E+03  0.00000000000E+00 0. -1.
         -4   -1    0    0    0  501 -0.00000000000E+00 -0.00000000000E+00 -0.95599110340E+02  0.95599110340E+02  0.00000000000E+00 0.  1.
         25    2    1    2    0    0  0.67298477385E+02  0.25180439416E+02  0.65070652337E+02  0.15825928745E+03  0.12509465489E+03 0.  0.
          5    1    3    3  502    0  0.40125158672E+02  0.70737773483E+02  0.10613356954E+02  0.82121718818E+02  0.41800000000E+01 0. -1.
         -5    1    3    3    0  502  0.27173318712E+02 -0.45557334067E+02  0.54457295384E+02  0.76137568635E+02  0.41800000000E+01 0. -1.
        -11    1    1    2    0    0 -0.29502203391E+02  0.19833334134E+02 -0.25054226878E+02  0.43490866078E+02  0.00000000000E+00 0.  1.
         11    1    1    2    0    0 -0.37796273993E+02 -0.45013773550E+02  0.43894219508E+02  0.73358712115E+02  0.00000000000E+00 0. -1.
</event>
<event>
 7    1  0.2648915E-009  0.1286782E+03  0.7561462E-02  0.1229430E+00
          1   -1    0    0  501    0  0.00000000000E+00  0.00000000000E+00  0.14620988492E+03  0.14620988492E+03  0.00000000000E+00 0. -1.
         -1   -1    0    0    0  501 -0.00000000000E+00 -0.00000000000E+00 -0.17069296592E+03  0.17069296592E+03  0.00000000000E+00 0.  1.
         25    2    1    2    0    0 -0.36966622024E+02 -0.10741556971E+03  0.56055773157E+00  0.16897181856E+03  0.12508607230E+03 0.  0.
          5    1    3    3  502    0 -0.59728189315E+02 -0.85811089714E+02 -0.44662469490E+02  0.11376822183E+03  0.41800000000E+01 0.  1.
         -5    1    3    3    0  502  0.22761567291E+02 -0.21604480000E+02  0.45223027221E+02  0.55203596737E+02  0.41800000000E+01 0.  1.
        -11    1    1    2    0    0  0.17550195606E+02  0.71782125486E+01  0.27265525425E+02  0.33210615440E+02  0.00000000000E+00 0. -1.
         11    1    1    2    0    0  0.19416426418E+02  0.10023735717E+03 -0.52309164155E+02  0.11472041684E+03  0.00000000000E+00 0.  1.
</event>
<event>
 7    1  0.2648915E-009  0.1078763E+03  0.7561462E-02  0.1264554E+00
          4   -1    0    0  501    0  0.00000000000E+00  0.00000000000E+00  0.22931781288E+03  0.22931781288E+03  0.00000000000E+00 0. -1.
         -4   -1    0    0    0  501 -0.00000000000E+00 -0.00000000000E+00 -0.52785313700E+02  0.52785313700E+02  0.00000000000E+00 0.  1.
         25    2    1    2    0    0  0.67835167963E+01 -0.18841705929E+02  0.10943182587E+03  0.16740436649E+03  0.12509145224E+03 0.  0.
          5    1    3    3  502    0 -0.46293313908E+02 -0.43855924908E+02  0.77574853472E+02  0.10050742934E+03  0.41800000000E+01 0. -1.
         -5    1    3    3    0  502  0.53076830705E+02  0.25014218978E+02  0.31856972402E+02  0.66896937145E+02  0.41800000000E+01 0. -1.
        -11    1    1    2    0    0 -0.97462658867E+01  0.55447331492E+02  0.40778620642E+02  0.69514690316E+02  0.00000000000E+00 0. -1.
         11    1    1    2    0    0  0.29627490904E+01 -0.36605625562E+02  0.26322052664E+02  0.45184069775E+02  0.00000000000E+00 0.  1.
</event>
<event>
 7    1  0.2648915E-009  0.7901166E+02  0.7561462E-02  0.1331880E+00
         -2   -1    0    0    0  501 -0.00000000000E+00  0.00000000000E+00  0.51468425936E+02  0.51468425936E+02  0.00000000000E+00 0.  1.
          2   -1    0    0  501    0  0.00000000000E+00 -0.00000000000E+00 -0.25662364930E+03  0.25662364930E+03  0.00000000000E+00 0. -1.
         25    2    1    2    0    0 -0.11981891982E+02 -0.17960554098E+02 -0.75876929316E+02  0.14788068178E+03  0.12508093540E+03 0.  0.
          5    1    3    3  502    0 -0.41514049955E+01 -0.49961107299E+02  0.13872048214E+02  0.52184792110E+02  0.41800000000E+01 0.  1.
         -5    1    3    3    0  502 -0.78304869862E+01  0.32000553201E+02 -0.89748977530E+02  0.95695889668E+02  0.41800000000E+01 0.  1.
        -11    1    1    2    0    0 -0.28176907104E+02 -0.44382100128E+01 -0.10378692649E+03  0.10763531908E+03  0.00000000000E+00 0. -1.
         11    1    1    2    0    0  0.40158799085E+02  0.22398764111E+02 -0.25491367556E+02  0.52576074383E+02  0.00000000000E+00 0.  1.
</event>
<event>
 7    1  0.2648915E-009  0.2327182E+03  0.7561462E-02  0.1124741E+00
         -1   -1    0    0    0  501 -0.00000000000E+00  0.00000000000E+00  0.98190876303E+02  0.98190876303E+02  0.00000000000E+00 0.  1.
          1   -1    0    0  501    0  0.00000000000E+00 -0.00000000000E+00 -0.60845137904E+03  0.60845137904E+03  0.00000000000E+00 0. -1.
         25    2    1    2    0    0 -0.20849017090E+03  0.34866103541E+02 -0.34231643897E+03  0.42132080244E+03  0.12508747996E+03 0.  0.
          5    1    3    3  502    0 -0.12283418585E+03  0.80824077902E+02 -0.22628581619E+03  0.26989537194E+03  0.41800000000E+01 0. -1.
         -5    1    3    3    0  502 -0.85655985048E+02 -0.45957974361E+02 -0.11603062278E+03  0.15142543051E+03  0.41800000000E+01 0. -1.
        -11    1    1    2    0    0  0.11142261191E+03 -0.51174867850E+02 -0.51869224048E+02  0.13313257283E+03  0.00000000000E+00 0.  1.
         11    1    1    2    0    0  0.97067558991E+02  0.16308764309E+02 -0.11607483971E+03  0.15218888007E+03  0.00000000000E+00 0. -1.
</event>
<event>
 7    1  0.2648915E-009  0.3059302E+03  0.7561462E-02  0.1082313E+00
          1   -1    0    0  501    0  0.00000000000E+00  0.00000000000E+00  0.17179299918E+04  0.17179299918E+04  0.00000000000E+00 0. -1.
         -1   -1    0    0    0  501 -0.00000000000E+00 -0.00000000000E+00 -0.71208849006E+02  0.71208849006E+02  0.00000000000E+00 0.  1.
         25    2    1    2    0    0 -0.29236992541E+03  0.69276494771E+02  0.47292025821E+03  0.57409098380E+03  0.12508989183E+03 0.  0.
          5    1    3    3  502    0 -0.19352829756E+03  0.17847924964E+02  0.19826175452E+03  0.27766336829E+03  0.41800000000E+01 0. -1.
         -5    1    3    3    0  502 -0.98841627848E+02  0.51428569807E+02  0.27465850369E+03  0.29642761551E+03  0.41800000000E+01 0. -1.
        -11    1    1    2    0    0  0.48305698628E+02 -0.34673980091E+02  0.13703259485E+03  0.14937756681E+03  0.00000000000E+00 0.  1.
         11    1    1    2    0    0  0.24406422678E+03 -0.34602514680E+02  0.10367682898E+04  0.10656702902E+04  0.00000000000E+00 0. -1.
</event>
<event>
 7    1  0.2648915E-009  0.1291470E+03  0.7561462E-02  0.1228727E+00
          2   -1    0    0  501    0  0.00000000000E+00  0.00000000000E+00  0.47442293179E+03  0.47442293179E+03  0.00000000000E+00 0.  1.
         -2   -1    0    0    0  501 -0.00000000000E+00 -0.00000000000E+00 -0.49522820935E+02  0.49522820935E+02  0.00000000000E+00 0. -1.
         25    2    1    2    0    0  0.79003167270E+01 -0.92349607571E+02  0.27175102963E+03  0.31318900345E+03  0.12509142557E+03 0.  0.
          5    1    3    3  502    0  0.65606016521E+02 -0.39236928423E+02  0.12052626123E+03  0.14278563654E+03  0.41800000000E+01 0. -1.
         -5    1    3    3    0  502 -0.57705699794E+02 -0.53112679148E+02  0.15122476841E+03  0.17040336691E+03  0.41800000000E+01 0. -1.
        -11    1    1    2    0    0  0.19077624446E+02  0.38387346387E+02  0.14336733446E+03  0.14963868720E+03  0.00000000000E+00 0.  1.
         11    1    1    2    0    0 -0.26977941173E+02  0.53962261184E+02  0.97817467591E+01  0.61118062074E+02  0.00000000000E+00 0. -1.
</event>
<event>
 7    1  0.2648915E-009  0.1463395E+03  0.7561462E-02  0.1205044E+00
         -1   -1    0    0    0  501 -0.00000000000E+00  0.00000000000E+00  0.34721910747E+02  0.34721910747E+02  0.00000000000E+00 0.  1.
          1   -1    0    0  501    0  0.00000000000E+00 -0.00000000000E+00 -0.71394778701E+03  0.71394778701E+03  0.00000000000E+00 0. -1.
         25    2    1    2    0    0 -0.64861095476E+02  0.85877929445E+02 -0.44917550230E+03  0.47852883985E+03  0.12509691532E+03 0.  0.
          5    1    3    3  502    0 -0.91076966073E+02  0.21942553830E+02 -0.29445140721E+03  0.30902361241E+03  0.41800000000E+01 0.  1.
         -5    1    3    3    0  502  0.26215870596E+02  0.63935375614E+02 -0.15472409509E+03  0.16950522744E+03  0.41800000000E+01 0.  1.
        -11    1    1    2    0    0  0.27618601729E+02  0.79385988481E+01 -0.14633815377E+02  0.32248365317E+02  0.00000000000E+00 0.  1.
         11    1    1    2    0    0  0.37242493748E+02 -0.93816528293E+02 -0.21541655859E+03  0.23789249260E+03  0.00000000000E+00 0. -1.
</event>
<event>
 7    1  0.2648915E-009  0.1323003E+03  0.7561462E-02  0.1224082E+00
          2   -1    0    0  501    0  0.00000000000E+00  0.00000000000E+00  0.21592880413E+03  0.21592880413E+03  0.00000000000E+00 0. -1.
         -2   -1    0    0    0  501 -0.00000000000E+00 -0.00000000000E+00 -0.11000382263E+03  0.11000382263E+03  0.00000000000E+00 0.  1.
         25    2    1    2    0    0  0.96424708083E+02 -0.43602387923E+02  0.24549598319E+02  0.16566687385E+03  0.12507572807E+03 0.  0.
          5    1    3    3  502    0  0.50331442534E+02 -0.78819332883E+02 -0.15727626473E+02  0.94924032669E+02  0.41800000000E+01 0.  1.
         -5    1    3    3    0  502  0.46093265549E+02  0.35216944960E+02  0.40277224792E+02  0.70742841180E+02  0.41800000000E+01 0.  1.
        -11    1    1    2    0    0 -0.49576124990E+02  0.11195163823E+01  0.83357580675E+02  0.96992431364E+02  0.00000000000E+00 0. -1.
         11    1    1    2    0    0 -0.46848583093E+02  0.42482871541E+02 -0.19821974879E+01  0.63273321543E+02  0.00000000000E+00 0.  1.
</event>
<event>
 7    1  0.2648915E-009  0.6426075E+02  0.7561462E-02  0.1380774E+00
          1   -1    0    0  501    0  0.00000000000E+00  0.00000000000E+00  0.42058407778E+03  0.42058407778E+03  0.00000000000E+00 0. -1.
         -1   -1    0    0    0  501 -0.00000000000E+00 -0.00000000000E+00 -0.29003032935E+02  0.29003032935E+02  0.00000000000E+00 0.  1.
         25    2    1    2    0    0  0.10226158164E+02 -0.20553444430E+02  0.21592951676E+03  0.25060310888E+03  0.12509733642E+03 0.  0.
          5    1    3    3  502    0 -0.16124877198E+01  0.51060170946E+01 -0.15758720152E+02  0.17160454191E+02  0.41800000000E+01 0.  1.
         -5    1    3    3    0  502  0.11838645884E+02 -0.25659461524E+02  0.23168823691E+03  0.23344265468E+03  0.41800000000E+01 0.  1.
        -11    1    1    2    0    0  0.27534168197E+02  0.41634722099E+02  0.10242386231E+03  0.11393958080E+03  0.00000000000E+00 0. -1.
         11    1    1    2    0    0 -0.37760326362E+02 -0.21081277670E+02  0.73227665777E+02  0.85044421042E+02  0.00000000000E+00 0.  1.
</event>
<event>
 7    1  0.2648915E-009  0.9971960E+02  0.7561462E-02  0.1280887E+00
          4   -1    0    0  501    0  0.00000000000E+00  0.00000000000E+00  0.63528743113E+03  0.63528743113E+03  0.00000000000E+00 0. -1.
         -4   -1    0    0    0  501 -0.00000000000E+00 -0.00000000000E+00 -0.19699660358E+02  0.19699660358E+02  0.00000000000E+00 0.  1.
         25    2    1    2    0    0 -0.18125041273E+02  0.20794452034E+02  0.33902712132E+03  0.36241911068E+03  0.12508915394E+03 0.  0.
          5    1    3    3  502    0  0.51324465583E+02  0.24722454034E+02  0.17855320971E+03  0.18746765481E+03  0.41800000000E+01 0.  1.
         -5    1    3    3    0  502 -0.69449506856E+02 -0.39280020002E+01  0.16047391161E+03  0.17495145587E+03  0.41800000000E+01 0.  1.
        -11    1    1    2    0    0  0.30230595905E+02 -0.39872510601E+02  0.25943575428E+03  0.26421698777E+03  0.00000000000E+00 0. -1.
         11    1    1    2    0    0 -0.12105554632E+02  0.19078058567E+02  0.17124895168E+02  0.28350993036E+02  0.00000000000E+00 0.  1.
</event>
<event>
 7    1  0.2648915E-009  0.1829324E+03  0.7561462E-02  0.1164995E+00
          1   -1    0    0  501    0  0.00000000000E+00  0.00000000000E+00  0.19666076350E+03  0.19666076350E+03  0.00000000000E+00 0. -1.
         -1   -1    0    0    0  501 -0.00000000000E+00 -0.00000000000E+00 -0.17889484759E+03  0.17889484759E+03  0.00000000000E+00 0.  1.
         25    2    1    2    0    0 -0.65618225693E+02  0.14270798263E+03  0.48876429847E+02  0.20665302564E+03  0.12508096482E+03 0.  0.
          5    1    3    3  502    0  0.33073044517E+02  0.91105838408E+01  0.62046644943E+01  0.35111241405E+02  0.41800000000E+01 0.  1.
         -5    1    3    3    0  502 -0.98691270210E+02  0.13359739879E+03  0.42671765352E+02  0.17154178423E+03  0.41800000000E+01 0.  1.
        -11    1    1    2    0    0  0.18245127616E+02 -0.99108473886E+02 -0.10590013918E+02  0.10132878501E+03  0.00000000000E+00 0.  1.
         11    1    1    2    0    0  0.47373098077E+02 -0.43599508748E+02 -0.20520500012E+02  0.67573800434E+02  0.00000000000E+00 0. -1.
</event>
<event>
 7    1  0.2648915E-009  0.9579287E+02  0.7561462E-02  0.1289400E+00
          2   -1    0    0  501    0  0.00000000000E+00  0.00000000000E+00  0.48181524841E+03  0.48181524841E+03  0.00000000000E+00 0. -1.
         -2   -1    0    0    0  501 -0.00000000000E+00 -0.00000000000E+00 -0.32318686811E+02  0.32318686811E+02  0.00000000000E+00 0.  1.
         25    2    1    2    0    0 -0.17415752326E+02  0.21649138389E+02  0.35790024075E+03  0.38014784950E+03  0.12509121281E+03 0.  0.
          5    1    3    3  502    0  0.27035176499E+02  0.58433614115E+02  0.24417068398E+03  0.25255134793E+03  0.41800000000E+01 0.  1.
         -5    1    3    3    0  502 -0.44450928825E+02 -0.36784475725E+02  0.11372955678E+03  0.12759650157E+03  0.41800000000E+01 0.  1.
        -11    1    1    2    0    0 -0.76861425936E+01  0.19531168118E+02  0.82218055314E+02  0.84854887517E+02  0.00000000000E+00 0. -1.
         11    1    1    2    0    0  0.25101894919E+02 -0.41180306507E+02  0.93782655268E+01  0.49131198203E+02  0.00000000000E+00 0.  1.
</event>
<event>
 7    1  0.2654881E-009  0.1666836E+03  0.7561462E-02  0.1181351E+00
         -1   -1    0    0    0  501 -0.00000000000E+00  0.00000000000E+00  0.43142790946E+02  0.43142790946E+02  0.00000000000E+00 0.  1.
          1   -1    0    0  501    0  0.00000000000E+00 -0.00000000000E+00 -0.66561052018E+03  0.66561052018E+03  0.00000000000E+00 0. -1.
         25    2    1    2    0    0 -0.14961525534E+02 -0.12667874146E+03 -0.27806258213E+03  0.33051017598E+03  0.12508727378E+03 0.  0.
          5    1    3    3  502    0 -0.60993565790E+02 -0.11596536575E+03 -0.20933905983E+03  0.24699897873E+03  0.41800000000E+01 0.  1.
         -5    1    3    3    0  502  0.46032040256E+02 -0.10713375706E+02 -0.68723522298E+02  0.83511197251E+02  0.41800000000E+01 0.  1.
        -11    1    1    2    0    0  0.39130319835E+02  0.17256131675E+02 -0.72852820827E+02  0.84477745668E+02  0.00000000000E+00 0.  1.
         11    1    1    2    0    0 -0.24168794301E+02  0.10942260978E+03 -0.27155232628E+03  0.29376538948E+03  0.00000000000E+00 0. -1.
</event>
<event>
 7    1  0.2648915E-009  0.8879100E+02  0.7561462E-02  0.1305806E+00
         -2   -1    0    0    0  501 -0.00000000000E+00  0.00000000000E+00  0.45640388937E+02  0.45640388937E+02  0.00000000000E+00 0.  1.
          2   -1    0    0  501    0  0.00000000000E+00 -0.00000000000E+00 -0.26566745025E+03  0.26566745025E+03  0.00000000000E+00 0. -1.
         25    2    1    2    0    0 -0.18127364198E+02 -0.37529923716E+01 -0.14484416391E+03  0.19227523441E+03  0.12508895900E+03 0.  0.
          5    1    3    3  502    0 -0.48471572032E+02 -0.25186074618E+02 -0.14487839664E+03  0.15489045762E+03  0.41800000000E+01 0.  1.
         -5    1    3    3    0  502  0.30344207834E+02  0.21433082246E+02  0.34232728815E-01  0.37384776789E+02  0.41800000000E+01 0.  1.
        -11    1    1    2    0    0 -0.22245523209E+02  0.29933586660E+02 -0.55889692350E+02  0.67190331329E+02  0.00000000000E+00 0.  1.
         11    1    1    2    0    0  0.40372887407E+02 -0.26180594289E+02 -0.19293205054E+02  0.51842273447E+02  0.00000000000E+00 0. -1.
</event>
<event>
 7    1  0.2648915E-009  0.8071736E+02  0.7561462E-02  0.1327028E+00
         -4   -1    0    0    0  501 -0.00000000000E+00  0.00000000000E+00  0.25438621857E+03  0.25438621857E+03  0.00000000000E+00 0. -1.
          4   -1    0    0  501    0  0.00000000000E+00 -0.00000000000E+00 -0.12951733837E+03  0.12951733837E+03  0.00000000000E+00 0.  1.
         25    2    1    2    0    0  0.29916175022E+02  0.51020476223E+02  0.20961279063E+03  0.25116244317E+03  0.12508790645E+03 0.  0.
          5    1    3    3  502    0 -0.14152708970E+02 -0.15983696913E+02  0.14892132462E+03  0.15050186399E+03  0.41800000000E+01 0. -1.
         -5    1    3    3    0  502  0.44068883993E+02  0.67004173136E+02  0.60691466014E+02  0.10066057918E+03  0.41800000000E+01 0. -1.
        -11    1    1    2    0    0 -0.11804985136E+02 -0.15302244696E+02 -0.90268544019E+02  0.92314280618E+02  0.00000000000E+00 0.  1.
         11    1    1    2    0    0 -0.18111189886E+02 -0.35718231528E+02  0.55246335906E+01  0.40426833154E+02  0.00000000000E+00 0. -1.
</event>
<event>
 7    1  0.2648915E-009  0.8956733E+02  0.7561462E-02  0.1303903E+00
         -2   -1    0    0    0  501 -0.00000000000E+00  0.00000000000E+00  0.56674860136E+03  0.56674860136E+03  0.00000000000E+00 0.  1.
          2   -1    0    0  501    0  0.00000000000E+00 -0.00000000000E+00 -0.37536474720E+02  0.37536474720E+02  0.00000000000E+00 0. -1.
         25    2    1    2    0    0  0.25096847849E+02  0.60812740860E+02  0.43609986748E+03  0.45843544576E+03  0.12510764284E+03 0.  0.
          5    1    3    3  502    0  0.17754580531E+02  0.16336446124E+02  0.39941870151E+03  0.40016855963E+03  0.41800000000E+01 0. -1.
         -5    1    3    3    0  502  0.73422673181E+01  0.44476294736E+02  0.36681165965E+02  0.58266886131E+02  0.41800000000E+01 0. -1.
        -11    1    1    2    0    0  0.31855644737E+02 -0.33450786266E+02  0.23458973799E+02  0.51807920776E+02  0.00000000000E+00 0.  1.
         11    1    1    2    0    0 -0.56952492586E+02 -0.27361954594E+02  0.69653285364E+02  0.94041709539E+02  0.00000000000E+00 0. -1.
</event>
<event>
 7    1  0.2648915E-009  0.8472324E+02  0.7561462E-02  0.1316158E+00
         -1   -1    0    0    0  501 -0.00000000000E+00  0.00000000000E+00  0.47806680969E+02  0.47806680969E+02  0.00000000000E+00 0.  1.
          1   -1    0    0  501    0  0.00000000000E+00 -0.00000000000E+00 -0.27460613576E+03  0.27460613576E+03  0.00000000000E+00 0. -1.
         25    2    1    2    0    0 -0.32800339239E+02  0.20251691843E+02 -0.11803191980E+03  0.17625210239E+03  0.12508907318E+03 0.  0.
          5    1    3    3  502    0 -0.44763207173E+02  0.32656028137E+02 -0.13846430821E+03  0.14919784830E+03  0.41800000000E+01 0.  1.
         -5    1    3    3    0  502  0.11962867934E+02 -0.12404336294E+02  0.20432388410E+02  0.27054254087E+02  0.41800000000E+01 0.  1.
        -11    1    1    2    0    0  0.56800432348E+02  0.98508590369E+01 -0.52425683178E+02  0.77921632397E+02  0.00000000000E+00 0.  1.
         11    1    1    2    0    0 -0.24000093109E+02 -0.30102550880E+02 -0.56341851810E+02  0.68239081940E+02  0.00000000000E+00 0. -1.
</event>
<event>
 7    1  0.2648915E-009  0.1118198E+03  0.7561462E-02  0.1257237E+00
         -2   -1    0    0    0  501 -0.00000000000E+00  0.00000000000E+00  0.16308622738E+02  0.16308622738E+02  0.00000000000E+00 0.  1.
          2   -1    0    0  501    0  0.00000000000E+00 -0.00000000000E+00 -0.91299214388E+03  0.91299214388E+03  0.00000000000E+00 0. -1.
         25    2    1    2    0    0 -0.46306444575E+02 -0.76554865081E+01 -0.62485611382E+03  0.63897995946E+03  0.12508929740E+03 0.  0.
          5    1    3    3  502    0 -0.75739861463E+00 -0.57319950091E+02 -0.17794798669E+03  0.18700029063E+03  0.41800000000E+01 0. -1.
         -5    1    3    3    0  502 -0.45549045960E+02  0.49664463583E+02 -0.44690812714E+03  0.45197966883E+03  0.41800000000E+01 0. -1.
        -11    1    1    2    0    0 -0.14831047070E+02  0.30068775822E+02 -0.13009348804E+03  0.13434435927E+03  0.00000000000E+00 0. -1.
         11    1    1    2    0    0  0.61137491645E+02 -0.22413289314E+02 -0.14173391928E+03  0.15597644789E+03  0.00000000000E+00 0.  1.
</event>
<event>
 7    1  0.2648915E-009  0.2949769E+03  0.7561462E-02  0.1087779E+00
         -1   -1    0    0    0  501 -0.00000000000E+00  0.00000000000E+00  0.12591405519E+03  0.12591405519E+03  0.00000000000E+00 0.  1.
          1   -1    0    0  501    0  0.00000000000E+00 -0.00000000000E+00 -0.80944065414E+03  0.80944065414E+03  0.00000000000E+00 0. -1.
         25    2    1    2    0    0  0.27969496735E+03  0.64544448614E+02 -0.47896816799E+03  0.57223616287E+03  0.12509380297E+03 0.  0.
          5    1    3    3  502    0  0.27239044002E+03  0.68128473460E+02 -0.48559278645E+03  0.56094194651E+03  0.41800000000E+01 0.  1.
         -5    1    3    3    0  502  0.73045273281E+01 -0.35840248453E+01  0.66246184514E+01  0.11294216361E+02  0.41800000000E+01 0.  1.
        -11    1    1    2    0    0 -0.16201630416E+03 -0.81058988006E+02 -0.12576981329E+03  0.22053999249E+03  0.00000000000E+00 0.  1.
         11    1    1    2    0    0 -0.11767866319E+03  0.16514539391E+02 -0.78788617668E+02  0.14257855398E+03  0.00000000000E+00 0. -1.
</event>
<event>
 7    1  0.2648915E-009  0.1781558E+03  0.7561462E-02  0.1169600E+00
         -2   -1    0    0    0  501 -0.00000000000E+00  0.00000000000E+00  0.22168546371E+02  0.22168546371E+02  0.00000000000E+00 0. -1.
          2   -1    0    0  501    0  0.00000000000E+00 -0.00000000000E+00 -0.18197173652E+04  0.18197173652E+04  0.00000000000E+00 0.  1.
         25    2    1    2    0    0 -0.12794267465E+03  0.10126960118E+03 -0.74877963124E+03  0.77649498655E+03  0.12509463558E+03 0.  0.
          5    1    3    3  502    0 -0.80593958245E+02  0.92442212879E+02 -0.68787383214E+03  0.69873373338E+03  0.41800000000E+01 0. -1.
         -5    1    3    3    0  502 -0.47348716402E+02  0.88273882992E+01 -0.60905799102E+02  0.77761253162E+02  0.41800000000E+01 0. -1.
        -11    1    1    2    0    0  0.14083414279E+03 -0.99036258406E+02 -0.10072653118E+04  0.10218736931E+04  0.00000000000E+00 0.  1.
         11    1    1    2    0    0 -0.12891468139E+02 -0.22333427726E+01 -0.41503875784E+02  0.43517231941E+02  0.00000000000E+00 0. -1.
</event>
<event>
 7    1  0.2648915E-009  0.1181039E+03  0.7561462E-02  0.1246258E+00
          1   -1    0    0  501    0  0.00000000000E+00  0.00000000000E+00  0.22664230666E+03  0.22664230666E+03  0.00000000000E+00 0. -1.
         -1   -1    0    0    0  501 -0.00000000000E+00 -0.00000000000E+00 -0.76723444007E+02  0.76723444007E+02  0.00000000000E+00 0.  1.
         25    2    1    2    0    0 -0.30276847152E+02  0.49414608824E+02  0.14470791244E+03  0.19986560052E+03  0.12508951719E+03 0.  0.
          5    1    3    3  502    0  0.44263459645E+02  0.36117403603E+02  0.88716880518E+02  0.10560245258E+03  0.41800000000E+01 0. -1.
         -5    1    3    3    0  502 -0.74540306798E+02  0.13297205220E+02  0.55991031921E+02  0.94263147941E+02  0.41800000000E+01 0. -1.
        -11    1    1    2    0    0 -0.22607392086E+02  0.89671562807E+01 -0.19704977455E+01  0.24400551839E+02  0.00000000000E+00 0.  1.
         11    1    1    2    0    0  0.52884239239E+02 -0.58381765104E+02  0.71814479570E+01  0.79099598301E+02  0.00000000000E+00 0. -1.
</event>
<event>
 7    1  0.2648915E-009  0.1379277E+03  0.7561462E-02  0.1216145E+00
         -4   -1    0    0    0  501 -0.00000000000E+00  0.00000000000E+00  0.74937084539E+03  0.74937084539E+03  0.00000000000E+00 0.  1.
          4   -1    0    0  501    0  0.00000000000E+00 -0.00000000000E+00 -0.29459052778E+02  0.29459052778E+02  0.00000000000E+00 0. -1.
         25    2    1    2    0    0 -0.96195529436E+01  0.83325640419E+02  0.51398555087E+03  0.53559715091E+03  0.12508982137E+03 0.  0.
          5    1    3    3  502    0 -0.36532541225E+02 -0.20928877222E+02  0.12520539646E+03  0.13216091772E+03  0.41800000000E+01 0. -1.
         -5    1    3    3    0  502  0.26912988281E+02  0.10425451764E+03  0.38878015441E+03  0.40343623319E+03  0.41800000000E+01 0. -1.
        -11    1    1    2    0    0 -0.20620872417E+02 -0.92039731398E+02  0.17662893386E+03  0.20023564321E+03  0.00000000000E+00 0.  1.
         11    1    1    2    0    0  0.30240425361E+02  0.87140909799E+01  0.29297307893E+02  0.42997104058E+02  0.00000000000E+00 0. -1.
</event>
<event>
 7    1  0.2648915E-009  0.1451300E+03  0.7561462E-02  0.1206588E+00
          2   -1    0    0  501    0  0.00000000000E+00  0.00000000000E+00  0.56098942916E+03  0.56098942916E+03  0.00000000000E+00 0. -1.
         -2   -1    0    0    0  501 -0.00000000000E+00 -0.00000000000E+00 -0.52069611037E+02  0.52069611037E+02  0.00000000000E+00 0.  1.
         25    2    1    2    0    0  0.90689276616E+02 -0.94312464351E+02  0.24196613025E+03  0.30218305706E+03  0.12509039116E+03 0.  0.
          5    1    3    3  502    0  0.37724745011E+02 -0.17264585161E+02  0.19123409786E+03  0.19572729720E+03  0.41800000000E+01 0. -1.
         -5    1    3    3    0  502  0.52964531605E+02 -0.77047879190E+02  0.50732032390E+02  0.10645575985E+03  0.41800000000E+01 0. -1.
        -11    1    1    2    0    0 -0.10386565406E+03  0.96308851983E+02  0.21671167347E+03  0.25889654012E+03  0.00000000000E+00 0.  1.
         11    1    1    2    0    0  0.13176377444E+02 -0.19963876324E+01  0.50242014401E+02  0.51979443025E+02  0.00000000000E+00 0. -1.
</event>
<event>
 7    1  0.2648915E-009  0.1557552E+03  0.7561462E-02  0.1193574E+00
         -2   -1    0    0    0  501 -0.00000000000E+00  0.00000000000E+00  0.24261163870E+02  0.24261163870E+02  0.00000000000E+00 0.  1.
          2   -1    0    0  501    0  0.00000000000E+00 -0.00000000000E+00 -0.11432136938E+04  0.11432136938E+04  0.00000000000E+00 0. -1.
         25    2    1    2    0    0 -0.91763973244E+02 -0.86043130178E+02 -0.59625822542E+03  0.62208938407E+03  0.12508910167E+03 0.  0.
          5    1    3    3  502    0  0.15787985105E+02  0.78481003109E+01 -0.20102076848E+03  0.20183576222E+03  0.41800000000E+01 0. -1.
         -5    1    3    3    0  502 -0.10755195835E+03 -0.93891230489E+02 -0.39523745695E+03  0.42025362185E+03  0.41800000000E+01 0. -1.
        -11    1    1    2    0    0  0.55126700507E+02  0.97643734226E+02 -0.31991768634E+03  0.33899937755E+03  0.00000000000E+00 0.  1.
         11    1    1    2    0    0  0.36637272738E+02 -0.11600604048E+02 -0.20277661814E+03  0.20638609603E+03  0.00000000000E+00 0. -1.
</event>
<event>
 7    1  0.2648915E-009  0.1116038E+03  0.7561462E-02  0.1257628E+00
          4   -1    0    0  501    0  0.00000000000E+00  0.00000000000E+00  0.45766395243E+03  0.45766395243E+03  0.00000000000E+00 0. -1.
         -4   -1    0    0    0  501 -0.00000000000E+00 -0.00000000000E+00 -0.57415528527E+02  0.57415528527E+02  0.00000000000E+00 0.  1.
         25    2    1    2    0    0  0.10195911859E+02 -0.78228598254E+02  0.36160868069E+03  0.39067999461E+03  0.12508537099E+03 0.  0.
          5    1    3    3  502    0  0.29095130765E+02 -0.88346272716E+02  0.35621607772E+03  0.36818331978E+03  0.41800000000E+01 0.  1.
         -5    1    3    3    0  502 -0.18899218906E+02  0.10117674462E+02  0.53926029693E+01  0.22496674833E+02  0.41800000000E+01 0.  1.
        -11    1    1    2    0    0 -0.27497815281E+02  0.85258706008E+02  0.49948105691E+02  0.10256700277E+03  0.00000000000E+00 0. -1.
         11    1    1    2    0    0  0.17301903421E+02 -0.70301077534E+01 -0.11308362478E+02  0.21832483573E+02  0.00000000000E+00 0.  1.
</event>
<event>
 7    1  0.2648915E-009  0.2248849E+03  0.7561462E-02  0.1130293E+00
          1   -1    0    0  501    0  0.00000000000E+00  0.00000000000E+00  0.11324593972E+04  0.11324593972E+04  0.00000000000E+00 0. -1.
         -1   -1    0    0    0  501 -0.00000000000E+00 -0.00000000000E+00 -0.48309493197E+02  0.48309493197E+02  0.00000000000E+00 0.  1.
         25    2    1    2    0    0  0.19817404523E+03  0.50817895277E+02  0.64319493504E+03  0.68644216624E+03  0.12509081681E+03 0.  0.
          5    1    3    3  502    0 -0.19197062721E+01 -0.23703184893E+02  0.97522665114E+02  0.10046725266E+03  0.41800000000E+01 0. -1.
         -5    1    3    3    0  502  0.20009375150E+03  0.74521080170E+02  0.54567226993E+03  0.58597491358E+03  0.41800000000E+01 0. -1.
        -11    1    1    2    0    0 -0.44526396271E+02  0.11929769403E+02  0.42541460138E+02  0.62727148776E+02  0.00000000000E+00 0.  1.
         11    1    1    2    0    0 -0.15364764895E+03 -0.62747664680E+02  0.39841350879E+03  0.43159957535E+03  0.00000000000E+00 0. -1.
</event>
<event>
 7    1  0.2648915E-009  0.1116539E+03  0.7561462E-02  0.1257538E+00
         -1   -1    0    0    0  501 -0.00000000000E+00  0.00000000000E+00  0.32425050627E+02  0.32425050627E+02  0.00000000000E+00 0.  1.
          1   -1    0    0  501    0  0.00000000000E+00 -0.00000000000E+00 -0.44497113411E+03  0.44497113411E+03  0.00000000000E+00 0. -1.
         25    2    1    2    0    0 -0.52580238640E+02 -0.65464536165E+01 -0.21697222745E+03  0.25598804185E+03  0.12508154356E+03 0.  0.
          5    1    3    3  502    0 -0.33497440179E+02  0.49947392225E+02 -0.48969756789E+02  0.77668075608E+02  0.41800000000E+01 0.  1.
         -5    1    3    3    0  502 -0.19082798461E+02 -0.56493845842E+02 -0.16800247066E+03  0.17831996625E+03  0.41800000000E+01 0.  1.
        -11    1    1    2    0    0  0.61931400225E+02 -0.27628945228E+02 -0.13888974619E+03  0.15456137468E+03  0.00000000000E+00 0. -1.
         11    1    1    2    0    0 -0.93511615857E+01  0.34175398844E+02 -0.56684109851E+02  0.66846768199E+02  0.00000000000E+00 0.  1.
</event>
<event>
 7    1  0.2648915E-009  0.8089462E+02  0.7561462E-02  0.1326532E+00
          1   -1    0    0  501    0  0.00000000000E+00  0.00000000000E+00  0.22891758122E+03  0.22891758122E+03  0.00000000000E+00 0. -1.
         -1   -1    0    0    0  501 -0.00000000000E+00 -0.00000000000E+00 -0.68916412975E+02  0.68916412975E+02  0.00000000000E+00 0.  1.
         25    2    1    2    0    0 -0.78049173599E+01 -0.56228254757E+02  0.57173959119E+02  0.14880352102E+03  0.12510432805E+03 0.  0.
          5    1    3    3  502    0  0.19540897612E+01 -0.53835071878E+02 -0.29423859284E+02  0.61524542469E+02  0.41800000000E+01 0.  1.
         -5    1    3    3    0  502 -0.97590071211E+01 -0.23931828794E+01  0.86597818404E+02  0.87278978549E+02  0.41800000000E+01 0.  1.
        -11    1    1    2    0    0 -0.35440091126E+02  0.28773384148E+02  0.16290351748E+02  0.48469405344E+02  0.00000000000E+00 0. -1.
         11    1    1    2    0    0  0.43245008486E+02  0.27454870609E+02  0.86536857379E+02  0.10056106784E+03  0.00000000000E+00 0.  1.
</event>
<event>
 7    1  0.2648915E-009  0.4521508E+03  0.7561462E-02  0.1027083E+00
          1   -1    0    0  501    0  0.00000000000E+00  0.00000000000E+00  0.15205568010E+04  0.15205568010E+04  0.00000000000E+00 0.  1.
         -1   -1    0    0    0  501 -0.00000000000E+00 -0.00000000000E+00 -0.13806280213E+03  0.13806280213E+03  0.00000000000E+00 0. -1.
         25    2    1    2    0    0  0.30324884758E+03  0.32494065905E+03  0.74193701240E+03  0.87387821571E+03  0.12508521120E+03 0.  0.
          5    1    3    3  502    0  0.15100860524E+03  0.24487857887E+03  0.42475608477E+03  0.51303442496E+03  0.41800000000E+01 0. -1.
         -5    1    3    3    0  502  0.15224024234E+03  0.80062080183E+02  0.31718092763E+03  0.36084379075E+03  0.41800000000E+01 0. -1.
        -11    1    1    2    0    0 -0.23445396393E+03 -0.24694217607E+03  0.54980627621E+03  0.64671171389E+03  0.00000000000E+00 0.  1.
         11    1    1    2    0    0 -0.68794883652E+02 -0.77998482983E+02  0.90750710290E+02  0.13802967356E+03  0.00000000000E+00 0. -1.
</event>
<event>
 7    1  0.2648915E-009  0.1185954E+03  0.7561462E-02  0.1245432E+00
         -2   -1    0    0    0  501 -0.00000000000E+00  0.00000000000E+00  0.31522447465E+03  0.31522447465E+03  0.00000000000E+00 0.  1.
          2   -1    0    0  501    0  0.00000000000E+00 -0.00000000000E+00 -0.10328754275E+03  0.10328754275E+03  0.00000000000E+00 0. -1.
         25    2    1    2    0    0 -0.12262588469E+02  0.54688126457E+02 -0.41048814084E+02  0.14308576848E+03  0.12508944701E+03 0.  0.
          5    1    3    3  502    0 -0.57580585159E+02  0.65955822037E+02 -0.13445249327E+02  0.88678866577E+02  0.41800000000E+01 0. -1.
         -5    1    3    3    0  502  0.45317996690E+02 -0.11267695581E+02 -0.27603564758E+02  0.54406901906E+02  0.41800000000E+01 0. -1.
        -11    1    1    2    0    0  0.39603300131E+02  0.20651300380E+01  0.14582004720E+03  0.15111641972E+03  0.00000000000E+00 0.  1.
         11    1    1    2    0    0 -0.27340711662E+02 -0.56753256495E+02  0.10716569879E+03  0.12430982919E+03  0.00000000000E+00 0. -1.
</event>
<event>
 7    1  0.2648915E-009  0.4982598E+02  0.7561462E-02  0.1446282E+00
         -1   -1    0    0    0  501 -0.00000000000E+00  0.00000000000E+00  0.82313965088E+03  0.82313965088E+03  0.00000000000E+00 0.  1.
          1   -1    0    0  501    0  0.00000000000E+00 -0.00000000000E+00 -0.13802796807E+02  0.13802796807E+02  0.00000000000E+00 0. -1.
         25    2    1    2    0    0  0.35694315876E+01 -0.57679868913E+01  0.43584621652E+03  0.45349212586E+03  0.12508866154E+03 0.  0.
          5    1    3    3  502    0 -0.29621637730E+01 -0.57675040692E+01  0.44292516123E+03  0.44299233556E+03  0.41800000000E+01 0. -1.
         -5    1    3    3    0  502  0.65315953606E+01 -0.48282207538E-03 -0.70789447058E+01  0.10499790300E+02  0.41800000000E+01 0. -1.
        -11    1    1    2    0    0  0.38810617271E+02 -0.79923292219E+01  0.22333430545E+03  0.22682229461E+03  0.00000000000E+00 0.  1.
         11    1    1    2    0    0 -0.42380048859E+02  0.13760316113E+02  0.15015633210E+03  0.15662802722E+03  0.00000000000E+00 0. -1.
</event>
<event>
 7    1  0.2648915E-009  0.1815177E+03  0.7561462E-02  0.1166342E+00
          2   -1    0    0  501    0  0.00000000000E+00  0.00000000000E+00  0.29577098979E+03  0.29577098979E+03  0.00000000000E+00 0. -1.
         -2   -1    0    0    0  501 -0.00000000000E+00 -0.00000000000E+00 -0.13405131538E+03  0.13405131538E+03  0.00000000000E+00 0.  1.
         25    2    1    2    0    0  0.28546053753E+02 -0.16213231130E+03  0.10827712535E+03  0.23339476392E+03  0.12508963345E+03 0.  0.
          5    1    3    3  502    0  0.32322434220E+02 -0.17629872477E+03  0.70485320778E+02  0.19264379812E+03  0.41800000000E+01 0. -1.
         -5    1    3    3    0  502 -0.37763804663E+01  0.14166413471E+02  0.37791804576E+02  0.40750965794E+02  0.41800000000E+01 0. -1.
        -11    1    1    2    0    0 -0.13289736560E+01  0.10710915980E+03 -0.10691648357E+02  0.10764966154E+03  0.00000000000E+00 0.  1.
         11    1    1    2    0    0 -0.27217080097E+02  0.55023151498E+02  0.64134197411E+02  0.88777879719E+02  0.00000000000E+00 0. -1.
</event>
<event>
 7    1  0.2648915E-009  0.4084569E+03  0.7561462E-02  0.1040890E+00
         -2   -1    0    0    0  501 -0.00000000000E+00  0.00000000000E+00  0.20462436254E+03  0.20462436254E+03  0.00000000000E+00 0.  1.
          2   -1    0    0  501    0  0.00000000000E+00 -0.00000000000E+00 -0.10234441216E+04  0.10234441216E+04  0.00000000000E+00 0. -1.
         25    2    1    2    0    0 -0.31837790612E+03  0.25309859995E+03 -0.65358223901E+03  0.77989839110E+03  0.12509342464E+03 0.  0.
          5    1    3    3  502    0 -0.14503228704E+03  0.11377527773E+03 -0.18495520989E+03  0.26116102346E+03  0.41800000000E+01 0.  1.
         -5    1    3    3    0  502 -0.17334561908E+03  0.13932332222E+03 -0.46862702912E+03  0.51873736764E+03  0.41800000000E+01 0.  1.
        -11    1    1    2    0    0  0.23744809292E+03 -0.21629081376E+03 -0.16069671342E+03  0.35914724927E+03  0.00000000000E+00 0. -1.
         11    1    1    2    0    0  0.80929813197E+02 -0.36807786183E+02 -0.45408066346E+01  0.89022843769E+02  0.00000000000E+00 0.  1.
</event>
<event>
 7    1  0.2648915E-009  0.1027812E+03  0.7561462E-02  0.1274554E+00
          1   -1    0    0  501    0  0.00000000000E+00  0.00000000000E+00  0.22946091017E+03  0.22946091017E+03  0.00000000000E+00 0.  1.
         -1   -1    0    0    0  501 -0.00000000000E+00 -0.00000000000E+00 -0.71536099330E+02  0.71536099330E+02  0.00000000000E+00 0. -1.
         25    2    1    2    0    0 -0.47742123017E+02  0.10925183807E+02  0.24845155253E+02  0.13661423070E+03  0.12508995299E+03 0.  0.
          5    1    3    3  502    0 -0.75368945703E+02 -0.32437711165E+02  0.90036106771E+01  0.82651197736E+02  0.41800000000E+01 0. -1.
         -5    1    3    3    0  502  0.27626822686E+02  0.43362894972E+02  0.15841544576E+02  0.53963032964E+02  0.41800000000E+01 0. -1.
        -11    1    1    2    0    0  0.58449328958E+02 -0.15029678972E+02  0.13895744077E+03  0.15149714734E+03  0.00000000000E+00 0.  1.
         11    1    1    2    0    0 -0.10707205941E+02  0.41044951649E+01 -0.58777851819E+01  0.12885631465E+02  0.00000000000E+00 0. -1.
</event>
<event>
 7    1  0.2648915E-009  0.9818551E+02  0.7561462E-02  0.1284159E+00
          2   -1    0    0  501    0  0.00000000000E+00  0.00000000000E+00  0.28207004196E+03  0.28207004196E+03  0.00000000000E+00 0. -1.
         -2   -1    0    0    0  501 -0.00000000000E+00 -0.00000000000E+00 -0.42227939559E+02  0.42227939559E+02  0.00000000000E+00 0.  1.
         25    2    1    2    0    0  0.29788205894E+01 -0.51223446181E+01  0.16097454312E+03  0.20394945969E+03  0.12508983487E+03 0.  0.
          5    1    3    3  502    0 -0.11659786956E+02  0.49007307901E+02  0.13059811491E+03  0.14003930476E+03  0.41800000000E+01 0.  1.
         -5    1    3    3    0  502  0.14638607545E+02 -0.54129652519E+02  0.30376428216E+02  0.63910154935E+02  0.41800000000E+01 0.  1.
        -11    1    1    2    0    0 -0.27860164099E+02  0.38771849946E+02  0.52118225702E+02  0.70680651824E+02  0.00000000000E+00 0. -1.
         11    1    1    2    0    0  0.24881343510E+02 -0.33649505328E+02  0.26749333571E+02  0.49667869999E+02  0.00000000000E+00 0.  1.
</event>
<event>
 7    1  0.2648915E-009  0.1151043E+03  0.7561462E-02  0.1251399E+00
         -1   -1    0    0    0  501 -0.00000000000E+00  0.00000000000E+00  0.57933998573E+03  0.57933998573E+03  0.00000000000E+00 0.  1.
          1   -1    0    0  501    0  0.00000000000E+00 -0.00000000000E+00 -0.24082968841E+02  0.24082968841E+02  0.00000000000E+00 0. -1.
         25    2    1    2    0    0  0.30243499919E+02  0.34915499462E+02  0.30750974420E+03  0.33517525853E+03  0.12508576962E+03 0.  0.
          5    1    3    3  502    0  0.65545534445E+02  0.56174148299E+02  0.24833953540E+03  0.26294818742E+03  0.41800000000E+01 0.  1.
         -5    1    3    3    0  502 -0.35302034526E+02 -0.21258648838E+02  0.59170208798E+02  0.72227071111E+02  0.41800000000E+01 0.  1.
        -11    1    1    2    0    0 -0.60157760598E+02 -0.39689551436E+02  0.18585718041E+03  0.19934168697E+03  0.00000000000E+00 0. -1.
         11    1    1    2    0    0  0.29914260679E+02  0.47740519743E+01  0.61890092279E+02  0.68906009074E+02  0.00000000000E+00 0.  1.
</event>
<event>
 7    1  0.2648915E-009  0.8235943E+02  0.7561462E-02  0.1322486E+00
         -1   -1    0    0    0  501 -0.00000000000E+00  0.00000000000E+00  0.21437548910E+03  0.21437548910E+03  0.00000000000E+00 0.  1.
          1   -1    0    0  501    0  0.00000000000E+00 -0.00000000000E+00 -0.58889019087E+02  0.58889019087E+02  0.00000000000E+00 0. -1.
         25    2    1    2    0    0  0.43459225037E+02  0.24972465555E+02  0.90415467024E+02  0.16228119647E+03  0.12509157355E+03 0.  0.
          5    1    3    3  502    0  0.44541167963E+02  0.59697919672E+02  0.10881905272E+02  0.75389956354E+02  0.41800000000E+01 0.  1.
         -5    1    3    3    0  502 -0.10819429259E+01 -0.34725454118E+02  0.79533561752E+02  0.86891240117E+02  0.41800000000E+01 0.  1.
        -11    1    1    2    0    0 -0.11777584429E+02  0.37520366788E+01 -0.15464717813E+02  0.19797645599E+02  0.00000000000E+00 0. -1.
         11    1    1    2    0    0 -0.31681640608E+02 -0.28724502233E+02  0.80535720796E+02  0.91185666112E+02  0.00000000000E+00 0.  1.
</event>
<event>
 7    1  0.2648915E-009  0.8079384E+02  0.7561462E-02  0.1326814E+00
          1   -1    0    0  501    0  0.00000000000E+00  0.00000000000E+00  0.94598001854E+02  0.94598001854E+02  0.00000000000E+00 0. -1.
         -1   -1    0    0    0  501 -0.00000000000E+00 -0.00000000000E+00 -0.14191627529E+03  0.14191627529E+03  0.00000000000E+00 0.  1.
         25    2    1    2    0    0 -0.38469979254E+01  0.13667576410E+02  0.14540440261E+02  0.12672662858E+03  0.12508641793E+03 0.  0.
          5    1    3    3  502    0  0.36770193927E+02 -0.25593134365E+02 -0.30499788662E+02  0.54357751945E+02  0.41800000000E+01 0. -1.
         -5    1    3    3    0  502 -0.40617191853E+02  0.39260710775E+02  0.45040228923E+02  0.72368876639E+02  0.41800000000E+01 0. -1.
        -11    1    1    2    0    0 -0.26666750222E+02 -0.38693896719E+00  0.11645314487E+02  0.29101179334E+02  0.00000000000E+00 0. -1.
         11    1    1    2    0    0  0.30513748147E+02 -0.13280637443E+02 -0.73504028185E+02  0.80686469227E+02  0.00000000000E+00 0.  1.
</event>
<event>
 7    1  0.2648915E-009  0.9490993E+02  0.7561462E-02  0.1291379E+00
          1   -1    0    0  501    0  0.00000000000E+00  0.00000000000E+00  0.47036611183E+03  0.47036611183E+03  0.00000000000E+00 0. -1.
         -1   -1    0    0    0  501 -0.00000000000E+00 -0.00000000000E+00 -0.38499931342E+02  0.38499931342E+02  0.00000000000E+00 0.  1.
         25    2    1    2    0    0  0.41822055982E+02  0.69285564476E+02  0.23170393870E+03  0.27546957115E+03  0.12508875095E+03 0.  0.
          5    1    3    3  502    0  0.33888412544E+02  0.38738343502E+02  0.23755273340E+03  0.24310050866E+03  0.41800000000E+01 0.  1.
         -5    1    3    3    0  502  0.79336434378E+01  0.30547220974E+02 -0.58487947073E+01  0.32369062498E+02  0.41800000000E+01 0.  1.
        -11    1    1    2    0    0  0.81176099550E+01 -0.53291993073E+02  0.47043229243E+02  0.71547169997E+02  0.00000000000E+00 0.  1.
         11    1    1    2    0    0 -0.49939665937E+02 -0.15993571403E+02  0.15311901255E+03  0.16184930202E+03  0.00000000000E+00 0. -1.
</event>
<event>
 7    1  0.2648915E-009  0.2378754E+03  0.7561462E-02  0.1121216E+00
          1   -1    0    0  501    0  0.00000000000E+00  0.00000000000E+00  0.75720121429E+03  0.75720121429E+03  0.00000000000E+00 0. -1.
         -1   -1    0    0    0  501 -0.00000000000E+00 -0.00000000000E+00 -0.82013927243E+02  0.82013927243E+02  0.00000000000E+00 0.  1.
         25    2    1    2    0    0  0.14756016840E+03 -0.16759785343E+03  0.32178345900E+03  0.41116252435E+03  0.12508790180E+03 0.  0.
          5    1    3    3  502    0 -0.19083705237E+02 -0.17933394091E+02  0.66090685995E+02  0.71212678678E+02  0.41800000000E+01 0.  1.
         -5    1    3    3    0  502  0.16664387363E+03 -0.14966445934E+03  0.25569277300E+03  0.33994984567E+03  0.41800000000E+01 0.  1.
        -11    1    1    2    0    0 -0.10637220863E+03  0.13914470903E+03  0.19587533685E+03  0.26276119274E+03  0.00000000000E+00 0.  1.
         11    1    1    2    0    0 -0.41187959762E+02  0.28453144395E+02  0.15752849120E+03  0.16529142445E+03  0.00000000000E+00 0. -1.
</event>
<event>
 7    1  0.2648915E-009  0.1385413E+03  0.7561462E-02  0.1215305E+00
         -2   -1    0    0    0  501 -0.00000000000E+00  0.00000000000E+00  0.14484375655E+02  0.14484375655E+02  0.00000000000E+00 0.  1.
          2   -1    0    0  501    0  0.00000000000E+00 -0.00000000000E+00 -0.15022999603E+04  0.15022999603E+04  0.00000000000E+00 0. -1.
         25    2    1    2    0    0 -0.78482399335E+02  0.73812488418E+02 -0.90031279159E+03  0.91532464958E+03  0.12509324908E+03 0.  0.
          5    1    3    3  502    0  0.10290665627E+02  0.64208115692E+02 -0.22912672004E+03  0.23821231319E+03  0.41800000000E+01 0.  1.
         -5    1    3    3    0  502 -0.88773064961E+02  0.96043727259E+01 -0.67118607155E+03  0.67711233638E+03  0.41800000000E+01 0.  1.
        -11    1    1    2    0    0  0.82949784831E+02 -0.46979549070E+02 -0.52028380178E+03  0.52894515711E+03  0.00000000000E+00 0.  1.
         11    1    1    2    0    0 -0.44673854965E+01 -0.26832939348E+02 -0.67218991246E+02  0.72514529243E+02  0.00000000000E+00 0. -1.
</event>
<event>
 7    1  0.2648915E-009  0.9807790E+02  0.7561462E-02  0.1284391E+00
          2   -1    0    0  501    0  0.00000000000E+00  0.00000000000E+00  0.52425209291E+03  0.52425209291E+03  0.00000000000E+00 0. -1.
         -2   -1    0    0    0  501 -0.00000000000E+00 -0.00000000000E+00 -0.27645155681E+02  0.27645155681E+02  0.00000000000E+00 0.  1.
         25    2    1    2    0    0  0.66896080547E+01 -0.40864320595E+02  0.20451561179E+03  0.24328070649E+03  0.12507686890E+03 0.  0.
          5    1    3    3  502    0 -0.37976850090E+02 -0.34301594066E+02  0.18822709865E+03  0.19510446833E+03  0.41800000000E+01 0. -1.
         -5    1    3    3    0  502  0.44666458145E+02 -0.65627265290E+01  0.16288513138E+02  0.48176238157E+02  0.41800000000E+01 0. -1.
        -11    1    1    2    0    0  0.18157874256E+02  0.63386447255E+02  0.20177465773E+03  0.21227473377E+03  0.00000000000E+00 0. -1.
         11    1    1    2    0    0 -0.24847482311E+02 -0.22522126661E+02  0.90316667706E+02  0.96341808328E+02  0.00000000000E+00 0.  1.
</event>
<event>
 7    1  0.2648915E-009  0.1299717E+03  0.7561462E-02  0.1227498E+00
          3   -1    0    0  501    0  0.00000000000E+00  0.00000000000E+00  0.34893418038E+02  0.34893418038E+02  0.00000000000E+00 0. -1.
         -3   -1    0    0    0  501 -0.00000000000E+00 -0.00000000000E+00 -0.70001217708E+03  0.70001217708E+03  0.00000000000E+00 0.  1.
         25    2    1    2    0    0  0.87116290538E+02 -0.28665024044E+02 -0.20606299103E+03  0.25791572095E+03  0.12509049189E+03 0.  0.
          5    1    3    3  502    0 -0.11150737186E+02 -0.30386698425E+02 -0.12868464000E+03  0.13275880141E+03  0.41800000000E+01 0. -1.
         -5    1    3    3    0  502  0.98267027724E+02  0.17216743807E+01 -0.77378351030E+02  0.12515691954E+03  0.41800000000E+01 0. -1.
        -11    1    1    2    0    0 -0.47479304008E+02  0.61338836800E+02 -0.29871357030E+03  0.30862037245E+03  0.00000000000E+00 0.  1.
         11    1    1    2    0    0 -0.39636986531E+02 -0.32673812756E+02 -0.16034219771E+03  0.16836950171E+03  0.00000000000E+00 0. -1.
</event>
<event>
 7    1  0.2648915E-009  0.1182625E+03  0.7561462E-02  0.1245991E+00
         -1   -1    0    0    0  501 -0.00000000000E+00  0.00000000000E+00  0.64713572006E+02  0.64713572006E+02  0.00000000000E+00 0.  1.
          1   -1    0    0  501    0  0.00000000000E+00 -0.00000000000E+00 -0.33691108608E+03  0.33691108608E+03  0.00000000000E+00 0. -1.
         25    2    1    2    0    0 -0.37723046227E+02  0.91521103986E+02 -0.14788981363E+03  0.21752636521E+03  0.12508869611E+03 0.  0.
          5    1    3    3  502    0 -0.11441780954E+02  0.49634682407E+02 -0.15870955787E+03  0.16673545576E+03  0.41800000000E+01 0.  1.
         -5    1    3    3    0  502 -0.26281265273E+02  0.41886421579E+02  0.10819744239E+02  0.50790909447E+02  0.41800000000E+01 0.  1.
        -11    1    1    2    0    0  0.66506637499E+02 -0.42441650513E+02 -0.72559750913E+02  0.10718835749E+03  0.00000000000E+00 0.  1.
         11    1    1    2    0    0 -0.28783591273E+02 -0.49079453473E+02 -0.51747949528E+02  0.76909935380E+02  0.00000000000E+00 0. -1.
</event>
<event>
 7    1  0.2648915E-009  0.1112429E+03  0.7561462E-02  0.1258285E+00
          2   -1    0    0  501    0  0.00000000000E+00  0.00000000000E+00  0.28671384952E+02  0.28671384952E+02  0.00000000000E+00 0.  1.
         -2   -1    0    0    0  501 -0.00000000000E+00 -0.00000000000E+00 -0.62152442482E+03  0.62152442482E+03  0.00000000000E+00 0. -1.
         25    2    1    2    0    0  0.21300445417E+02  0.63767021128E+02 -0.23064827678E+03  0.27086190750E+03  0.12509038092E+03 0.  0.
          5    1    3    3  502    0 -0.49867417203E+01 -0.32538415299E+02 -0.22846926362E+02  0.40287349222E+02  0.41800000000E+01 0.  1.
         -5    1    3    3    0  502  0.26287187138E+02  0.96305436426E+02 -0.20780135041E+03  0.23057455828E+03  0.41800000000E+01 0.  1.
        -11    1    1    2    0    0  0.20192757715E+02 -0.13898526775E+02 -0.21807055503E+02  0.32809513564E+02  0.00000000000E+00 0. -1.
         11    1    1    2    0    0 -0.41493203132E+02 -0.49868494353E+02 -0.34039770759E+03  0.34652438870E+03  0.00000000000E+00 0.  1.
</event>
<event>
 7    1  0.2648915E-009  0.1268934E+03  0.7561462E-02  0.1232140E+00
          1   -1    0    0  501    0  0.00000000000E+00  0.00000000000E+00  0.42825247099E+03  0.42825247099E+03  0.00000000000E+00 0. -1.
         -1   -1    0    0    0  501 -0.00000000000E+00 -0.00000000000E+00 -0.43150109997E+02  0.43150109997E+02  0.00000000000E+00 0.  1.
         25    2    1    2    0    0 -0.80429995285E+02 -0.91760377105E+01  0.20463172045E+03  0.25313050257E+03  0.12509087299E+03 0.  0.
          5    1    3    3  502    0 -0.58009624344E+02  0.53183954120E+02  0.82357830132E+02  0.11399093857E+03  0.41800000000E+01 0. -1.
         -5    1    3    3    0  502 -0.22420370941E+02 -0.62359991831E+02  0.12227389032E+03  0.13913956399E+03  0.41800000000E+01 0. -1.
        -11    1    1    2    0    0 -0.90413224484E+01 -0.13526335456E+02  0.81498589538E+00  0.16290226042E+02  0.00000000000E+00 0.  1.
         11    1    1    2    0    0  0.89471317733E+02  0.22702373167E+02  0.17965565464E+03  0.20198185237E+03  0.00000000000E+00 0. -1.
</event>
<event>
 7    1  0.2648915E-009  0.1915254E+03  0.7561462E-02  0.1157093E+00
          2   -1    0    0  501    0  0.00000000000E+00  0.00000000000E+00  0.75147391627E+03  0.75147391627E+03  0.00000000000E+00 0. -1.
         -2   -1    0    0    0  501 -0.00000000000E+00 -0.00000000000E+00 -0.59968705437E+02  0.59968705437E+02  0.00000000000E+00 0.  1.
         25    2    1    2    0    0 -0.16089120658E+03 -0.23971720670E+02  0.20361562127E+03  0.28908108844E+03  0.12509168926E+03 0.  0.
          5    1    3    3  502    0  0.16486919085E+02 -0.80724324555E+01  0.38699158185E+00  0.18830954016E+02  0.41800000000E+01 0. -1.
         -5    1    3    3    0  502 -0.17737812567E+03 -0.15899288215E+02  0.20322862969E+03  0.27025013442E+03  0.41800000000E+01 0. -1.
        -11    1    1    2    0    0  0.42163255060E+02  0.49108833878E+02  0.18886387915E+03  0.19964714495E+03  0.00000000000E+00 0. -1.
         11    1    1    2    0    0  0.11872795152E+03 -0.25137113207E+02  0.29902571042E+03  0.32271438831E+03  0.00000000000E+00 0.  1.
</event>
<event>
 7    1  0.2648915E-009  0.2001849E+03  0.7561462E-02  0.1149583E+00
          1   -1    0    0  501    0  0.00000000000E+00  0.00000000000E+00  0.15007584827E+03  0.15007584827E+03  0.00000000000E+00 0. -1.
         -1   -1    0    0    0  501 -0.00000000000E+00 -0.00000000000E+00 -0.36144224301E+03  0.36144224301E+03  0.00000000000E+00 0.  1.
         25    2    1    2    0    0 -0.47291441095E+02 -0.18141154348E+03 -0.20279026549E+03  0.30317979560E+03  0.12508984040E+03 0.  0.
          5    1    3    3  502    0 -0.34516807674E+02 -0.34377809235E+02  0.40350174093E+01  0.49061161271E+02  0.41800000000E+01 0. -1.
         -5    1    3    3    0  502 -0.12774633421E+02 -0.14703373425E+03 -0.20682528290E+03  0.25411863433E+03  0.41800000000E+01 0. -1.
        -11    1    1    2    0    0  0.57236356333E+02  0.63462434062E+02  0.17254913938E+02  0.87184936075E+02  0.00000000000E+00 0. -1.
         11    1    1    2    0    0 -0.99449152384E+01  0.11794910942E+03 -0.25831043184E+02  0.12115335961E+03  0.00000000000E+00 0.  1.
</event>
<event>
 7    1  0.2648915E-009  0.2726679E+03  0.7561462E-02  0.1099762E+00
          2   -1    0    0  501    0  0.00000000000E+00  0.00000000000E+00  0.15568712820E+04  0.15568712820E+04  0.00000000000E+00 0. -1.
         -2   -1    0    0    0  501 -0.00000000000E+00 -0.00000000000E+00 -0.52139621356E+02  0.52139621356E+02  0.00000000000E+00 0.  1.
         25    2    1    2    0    0  0.80816660741E+02 -0.24903214550E+03  0.81597532460E+03  0.86603099879E+03  0.12508244630E+03 0.  0.
          5    1    3    3  502    0  0.36234701776E+02 -0.23268980853E+03  0.59393151956E+03  0.63892849595E+03  0.41800000000E+01 0. -1.
         -5    1    3    3    0  502  0.44581958965E+02 -0.16342336969E+02  0.22204380504E+03  0.22710250284E+03  0.41800000000E+01 0. -1.
        -11    1    1    2    0    0 -0.49551385540E+02  0.17221620765E+03  0.57447241972E+03  0.60177431235E+03  0.00000000000E+00 0. -1.
         11    1    1    2    0    0 -0.31265275201E+02  0.76815937847E+02  0.11428391633E+03  0.14120559221E+03  0.00000000000E+00 0.  1.
</event>
<event>
 7    1  0.2648915E-009  0.7925926E+02  0.7561462E-02  0.1331167E+00
         -1   -1    0    0    0  501 -0.00000000000E+00  0.00000000000E+00  0.21186665016E+03  0.21186665016E+03  0.00000000000E+00 0.  1.
          1   -1    0    0  501    0  0.00000000000E+00 -0.00000000000E+00 -0.69938785425E+02  0.69938785425E+02  0.00000000000E+00 0. -1.
         25    2    1    2    0    0  0.49187754264E+02  0.48650600175E+00  0.49621928385E+02  0.14328297037E+03  0.12509197402E+03 0.  0.
          5    1    3    3  502    0  0.10992985567E+02 -0.15067067053E+02 -0.40114451314E+02  0.44435389561E+02  0.41800000000E+01 0.  1.
         -5    1    3    3    0  502  0.38194768697E+02  0.15553573055E+02  0.89736379698E+02  0.98847580810E+02  0.41800000000E+01 0.  1.
        -11    1    1    2    0    0  0.19965845058E+02  0.17444182074E+02  0.73328920598E+01  0.27508285353E+02  0.00000000000E+00 0. -1.
         11    1    1    2    0    0 -0.69153599322E+02 -0.17930688076E+02  0.84973044287E+02  0.11101417986E+03  0.00000000000E+00 0.  1.
</event>
<event>
 7    1  0.2648915E-009  0.1476481E+03  0.7561462E-02  0.1203393E+00
          2   -1    0    0  501    0  0.00000000000E+00  0.00000000000E+00  0.98687675372E+02  0.98687675372E+02  0.00000000000E+00 0. -1.
         -2   -1    0    0    0  501 -0.00000000000E+00 -0.00000000000E+00 -0.26987294853E+03  0.26987294853E+03  0.00000000000E+00 0.  1.
         25    2    1    2    0    0  0.64468506897E+02 -0.59736915174E+02 -0.38412626148E+02  0.15763287242E+03  0.12509158727E+03 0.  0.
          5    1    3    3  502    0  0.69115323135E+02 -0.94234869913E+02 -0.36576237754E+02  0.12252523074E+03  0.41800000000E+01 0. -1.
         -5    1    3    3    0  502 -0.46468162387E+01  0.34497954739E+02 -0.18363883931E+01  0.35107641685E+02  0.41800000000E+01 0. -1.
        -11    1    1    2    0    0  0.73721489347E+01  0.70299680105E+02 -0.11688629933E+03  0.13659722023E+03  0.00000000000E+00 0.  1.
         11    1    1    2    0    0 -0.71840655831E+02 -0.10562764932E+02 -0.15886347680E+02  0.74330531250E+02  0.00000000000E+00 0. -1.
</event>
<event>
 7    1  0.2648915E-009  0.1006679E+03  0.7561462E-02  0.1278898E+00
          1   -1    0    0  501    0  0.00000000000E+00  0.00000000000E+00  0.25206816399E+02  0.25206816399E+02  0.00000000000E+00 0. -1.
         -1   -1    0    0    0  501 -0.00000000000E+00 -0.00000000000E+00 -0.67054614236E+03  0.67054614236E+03  0.00000000000E+00 0.  1.
         25    2    1    2    0    0  0.53190142394E+02 -0.38806732293E+02 -0.43982853270E+03  0.46198817194E+03  0.12509508032E+03 0.  0.
          5    1    3    3  502    0 -0.11356228228E+02 -0.23764444857E+02 -0.12361696810E+02  0.29393820897E+02  0.41800000000E+01 0.  1.
         -5    1    3    3    0  502  0.64546370622E+02 -0.15042287436E+02 -0.42746683589E+03  0.43259435104E+03  0.41800000000E+01 0.  1.
        -11    1    1    2    0    0 -0.55241576175E+02 -0.12724437019E+02 -0.79790271704E+02  0.97877630204E+02  0.00000000000E+00 0. -1.
         11    1    1    2    0    0  0.20514337814E+01  0.51531169312E+02 -0.12572052156E+03  0.13588715661E+03  0.00000000000E+00 0.  1.
</event>
<event>
 7    1  0.2648915E-009  0.1371506E+03  0.7561462E-02  0.1217215E+00
          1   -1    0    0  501    0  0.00000000000E+00  0.00000000000E+00  0.11251187643E+03  0.11251187643E+03  0.00000000000E+00 0. -1.
         -1   -1    0    0    0  501 -0.00000000000E+00 -0.00000000000E+00 -0.21151709574E+03  0.21151709574E+03  0.00000000000E+00 0.  1.
         25    2    1    2    0    0 -0.49950325448E+02  0.95939523884E+02 -0.56450078664E+02  0.17473773319E+03  0.12508891543E+03 0.  0.
          5    1    3    3  502    0 -0.66163739486E+02  0.11860218455E+03 -0.38106628595E+02  0.14111593158E+03  0.41800000000E+01 0. -1.
         -5    1    3    3    0  502  0.16213414038E+02 -0.22662660664E+02 -0.18343450069E+02  0.33621801611E+02  0.41800000000E+01 0. -1.
        -11    1    1    2    0    0  0.27838657594E+02 -0.31075687158E+02 -0.64949875284E+02  0.77195696048E+02  0.00000000000E+00 0.  1.
         11    1    1    2    0    0  0.22111667854E+02 -0.64863836726E+02  0.22394734638E+02  0.72095542925E+02  0.00000000000E+00 0. -1.
</event>
<event>
 7    1  0.2648915E-009  0.8711668E+02  0.7561462E-02  0.1309988E+00
          1   -1    0    0  501    0  0.00000000000E+00  0.00000000000E+00  0.33152435498E+03  0.33152435498E+03  0.00000000000E+00 0. -1.
         -1   -1    0    0    0  501 -0.00000000000E+00 -0.00000000000E+00 -0.51165895024E+02  0.51165895024E+02  0.00000000000E+00 0.  1.
         25    2    1    2    0    0 -0.28428164629E+02 -0.34398484793E+02  0.72720686003E+02  0.15141536493E+03  0.12508756239E+03 0.  0.
          5    1    3    3  502    0 -0.45058915829E+01  0.17945097346E+02  0.89368348272E+02  0.91359201236E+02  0.41800000000E+01 0.  1.
         -5    1    3    3    0  502 -0.23922273046E+02 -0.52343582140E+02 -0.16647662269E+02  0.60056163696E+02  0.41800000000E+01 0.  1.
        -11    1    1    2    0    0  0.44529170758E+02  0.55413647889E+02  0.11751131887E+03  0.13734056023E+03  0.00000000000E+00 0. -1.
         11    1    1    2    0    0 -0.16101006128E+02 -0.21015163096E+02  0.90126455079E+02  0.93934324842E+02  0.00000000000E+00 0.  1.
</event>
<event>
 7    1  0.2648915E-009  0.1157771E+03  0.7561462E-02  0.1250231E+00
          1   -1    0    0  501    0  0.00000000000E+00  0.00000000000E+00  0.17475498857E+03  0.17475498857E+03  0.00000000000E+00 0. -1.
         -1   -1    0    0    0  501 -0.00000000000E+00 -0.00000000000E+00 -0.83134033835E+02  0.83134033835E+02  0.00000000000E+00 0.  1.
         25    2    1    2    0    0  0.23427912077E+02  0.38556306073E+02  0.29152579486E+02  0.13614341080E+03  0.12509875943E+03 0.  0.
          5    1    3    3  502    0 -0.92811097819E+01 -0.42884344526E+02  0.17665761887E+01  0.44111213944E+02  0.41800000000E+01 0. -1.
         -5    1    3    3    0  502  0.32709021859E+02  0.81440650599E+02  0.27386003298E+02  0.92032196853E+02  0.41800000000E+01 0. -1.
        -11    1    1    2    0    0 -0.48538732811E+02  0.55568685247E+01  0.12305918904E+02  0.50381772605E+02  0.00000000000E+00 0.  1.
         11    1    1    2    0    0  0.25110820734E+02 -0.44113174597E+02  0.50162456347E+02  0.71363839006E+02  0.00000000000E+00 0. -1.
</event>
<event>
 7    1  0.2699739E-009  0.1345820E+03  0.7561462E-02  0.1220811E+00
          1   -1    0    0  501    0  0.00000000000E+00  0.00000000000E+00  0.51468497395E+03  0.51468497395E+03  0.00000000000E+00 0. -1.
         -1   -1    0    0    0  501 -0.00000000000E+00 -0.00000000000E+00 -0.41402993567E+02  0.41402993567E+02  0.00000000000E+00 0.  1.
         25    2    1    2    0    0 -0.89536654616E+02  0.21347854688E+02  0.19757304925E+03  0.25130601123E+03  0.12508820116E+03 0.  0.
          5    1    3    3  502    0 -0.66783596192E+02 -0.45214982841E+02  0.13370312131E+03  0.15620000142E+03  0.41800000000E+01 0. -1.
         -5    1    3    3    0  502 -0.22753058424E+02  0.66562837529E+02  0.63869927943E+02  0.95106009816E+02  0.41800000000E+01 0. -1.
        -11    1    1    2    0    0  0.62691823480E+02 -0.48871385205E+02  0.23802108945E+03  0.25094365114E+03  0.00000000000E+00 0. -1.
         11    1    1    2    0    0  0.26844831137E+02  0.27523530517E+02  0.37687841679E+02  0.53838305149E+02  0.00000000000E+00 0.  1.
</event>
<event>
 7    1  0.2648915E-009  0.1042469E+03  0.7561462E-02  0.1271610E+00
          2   -1    0    0  501    0  0.00000000000E+00  0.00000000000E+00  0.11768039466E+04  0.11768039466E+04  0.00000000000E+00 0. -1.
         -2   -1    0    0    0  501 -0.00000000000E+00 -0.00000000000E+00 -0.13487884654E+02  0.13487884654E+02  0.00000000000E+00 0.  1.
         25    2    1    2    0    0  0.28920537027E+02  0.36057578562E+02  0.84950999853E+03  0.85991335429E+03  0.12508873989E+03 0.  0.
          5    1    3    3  502    0 -0.37368739251E+02  0.10984848356E+02  0.10574745274E+03  0.11277005688E+03  0.41800000000E+01 0.  1.
         -5    1    3    3    0  502  0.66289276278E+02  0.25072730206E+02  0.74376254579E+03  0.74714329741E+03  0.41800000000E+01 0.  1.
        -11    1    1    2    0    0  0.83412393379E+01  0.25244258748E+02  0.45999929231E+02  0.53130427842E+02  0.00000000000E+00 0.  1.
         11    1    1    2    0    0 -0.37261776365E+02 -0.61301837311E+02  0.26780613421E+03  0.27724804915E+03  0.00000000000E+00 0. -1.
</event>
<event>
 7    1  0.2648915E-009  0.1579260E+03  0.7561462E-02  0.1191058E+00
         -2   -1    0    0    0  501 -0.00000000000E+00  0.00000000000E+00  0.11814703148E+03  0.11814703148E+03  0.00000000000E+00 0.  1.
          2   -1    0    0  501    0  0.00000000000E+00 -0.00000000000E+00 -0.27570970640E+03  0.27570970640E+03  0.00000000000E+00 0. -1.
         25    2    1    2    0    0 -0.14254994726E+03 -0.18616075192E+02 -0.81225836396E+02  0.20715198226E+03  0.12508901444E+03 0.  0.
          5    1    3    3  502    0 -0.56899439432E+02 -0.19439056184E+02 -0.10239840908E+03  0.11882057774E+03  0.41800000000E+01 0.  1.
         -5    1    3    3    0  502 -0.85650507830E+02  0.82298099273E+00  0.21172572683E+02  0.88331404514E+02  0.41800000000E+01 0.  1.
        -11    1    1    2    0    0  0.77368597820E+02  0.55231811180E+02 -0.50234930863E+02  0.10751744590E+03  0.00000000000E+00 0. -1.
         11    1    1    2    0    0  0.65181349442E+02 -0.36615735988E+02 -0.26101907663E+02  0.79187309720E+02  0.00000000000E+00 0.  1.
</event>
<event>
 7    1  0.2648915E-009  0.1358973E+03  0.7561462E-02  0.1218959E+00
          2   -1    0    0  501    0  0.00000000000E+00  0.00000000000E+00  0.12653602819E+04  0.12653602819E+04  0.00000000000E+00 0. -1.
         -2   -1    0    0    0  501 -0.00000000000E+00 -0.00000000000E+00 -0.20760416157E+02  0.20760416157E+02  0.00000000000E+00 0.  1.
         25    2    1    2    0    0  0.26677302269E+01 -0.10227388381E+03  0.91167933746E+03  0.92589094048E+03  0.12509098772E+03 0.  0.
          5    1    3    3  502    0  0.17236807329E+02 -0.11586899367E+03  0.49403957416E+03  0.50775516192E+03  0.41800000000E+01 0.  1.
         -5    1    3    3    0  502 -0.14569077102E+02  0.13595109854E+02  0.41763976330E+03  0.41813577856E+03  0.41800000000E+01 0.  1.
        -11    1    1    2    0    0 -0.61074975895E+00  0.11817758597E+03  0.31355428197E+03  0.33508596297E+03  0.00000000000E+00 0. -1.
         11    1    1    2    0    0 -0.20569804679E+01 -0.15903702153E+02  0.19366246295E+02  0.25143794590E+02  0.00000000000E+00 0.  1.
</event>
<event>
 7    1  0.2648915E-009  0.1024542E+03  0.7561462E-02  0.1275218E+00
          2   -1    0    0  501    0  0.00000000000E+00  0.00000000000E+00  0.92420856675E+03  0.92420856675E+03  0.00000000000E+00 0. -1.
         -2   -1    0    0    0  501 -0.00000000000E+00 -0.00000000000E+00 -0.24148529886E+02  0.24148529886E+02  0.00000000000E+00 0.  1.
         25    2    1    2    0    0 -0.12619452645E+02  0.80019845098E+02  0.68835249053E+03  0.70429910861E+03  0.12508260058E+03 0.  0.
          5    1    3    3  502    0  0.13720076376E+02  0.69813069473E+02  0.66075318344E+03  0.66458584622E+03  0.41800000000E+01 0.  1.
         -5    1    3    3    0  502 -0.26339529021E+02  0.10206775624E+02  0.27599307089E+02  0.39713262387E+02  0.41800000000E+01 0.  1.
        -11    1    1    2    0    0  0.38206838729E+02 -0.28866481098E+02  0.15979675234E+03  0.16681738013E+03  0.00000000000E+00 0. -1.
         11    1    1    2    0    0 -0.25587386084E+02 -0.51153364000E+02  0.51910793996E+02  0.77240607898E+02  0.00000000000E+00 0.  1.
</event>
<event>
 7    1  0.2648915E-009  0.1134961E+03  0.7561462E-02  0.1254229E+00
         -2   -1    0    0    0  501 -0.00000000000E+00  0.00000000000E+00  0.17346570314E+02  0.17346570314E+02  0.00000000000E+00 0.  1.
          2   -1    0    0  501    0  0.00000000000E+00 -0.00000000000E+00 -0.88012396110E+03  0.88012396110E+03  0.00000000000E+00 0. -1.
         25    2    1    2    0    0 -0.47278714632E+02  0.20897476991E+02 -0.57533610077E+03  0.59104318951E+03  0.12509373128E+03 0.  0.
          5    1    3    3  502    0  0.31002783830E+02 -0.16462324850E+02 -0.30644020024E+03  0.30847244524E+03  0.41800000000E+01 0. -1.
         -5    1    3    3    0  502 -0.78281498462E+02  0.37359801841E+02 -0.26889590053E+03  0.28257074427E+03  0.41800000000E+01 0. -1.
        -11    1    1    2    0    0 -0.27677600699E+02 -0.72707891910E+01 -0.58137725325E+02  0.64798989667E+02  0.00000000000E+00 0.  1.
         11    1    1    2    0    0  0.74956315330E+02 -0.13626687800E+02 -0.22930356469E+03  0.24162835224E+03  0.00000000000E+00 0. -1.
</event>
<event>
 7    1  0.2648915E-009  0.1298145E+03  0.7561462E-02  0.1227731E+00
          2   -1    0    0  501    0  0.00000000000E+00  0.00000000000E+00  0.47220360980E+03  0.47220360980E+03  0.00000000000E+00 0.  1.
         -2   -1    0    0    0  501 -0.00000000000E+00 -0.00000000000E+00 -0.60938265960E+02  0.60938265960E+02  0.00000000000E+00 0. -1.
         25    2    1    2    0    0 -0.64717945033E+02 -0.10228004023E+03  0.29284964001E+03  0.34067282383E+03  0.12508973661E+03 0.  0.
          5    1    3    3  502    0  0.76921003052E+00 -0.51107546318E+02  0.19381574976E+02  0.54824181009E+02  0.41800000000E+01 0. -1.
         -5    1    3    3    0  502 -0.65487155063E+02 -0.51172493907E+02  0.27346806503E+03  0.28584864282E+03  0.41800000000E+01 0. -1.
        -11    1    1    2    0    0  0.55001663591E+02  0.58543401656E+02  0.12355592702E+03  0.14737224968E+03  0.00000000000E+00 0.  1.
         11    1    1    2    0    0  0.97162814417E+01  0.43736638570E+02 -0.51402231859E+01  0.45096802246E+02  0.00000000000E+00 0. -1.
</event>
<event>
 7    1  0.2648915E-009  0.3090234E+03  0.7561462E-02  0.1080815E+00
          2   -1    0    0  501    0  0.00000000000E+00  0.00000000000E+00  0.12947449485E+04  0.12947449485E+04  0.00000000000E+00 0.  1.
         -2   -1    0    0    0  501 -0.00000000000E+00 -0.00000000000E+00 -0.77763243225E+02  0.77763243225E+02  0.00000000000E+00 0. -1.
         25    2    1    2    0    0 -0.12645302357E+03 -0.26777196086E+03  0.68999390441E+03  0.76120475949E+03  0.12509559362E+03 0.  0.
          5    1    3    3  502    0  0.17269883666E+02 -0.52226138806E+02  0.69119402824E+02  0.88435189281E+02  0.41800000000E+01 0.  1.
         -5    1    3    3    0  502 -0.14372290723E+03 -0.21554582205E+03  0.62087450159E+03  0.67276957020E+03  0.41800000000E+01 0.  1.
        -11    1    1    2    0    0  0.32396185497E+02  0.18395981211E+02  0.11261257963E+03  0.11861499926E+03  0.00000000000E+00 0.  1.
         11    1    1    2    0    0  0.94056838069E+02  0.24937597965E+03  0.41437522119E+03  0.49268843294E+03  0.00000000000E+00 0. -1.
</event>
<event>
 7    1  0.2648915E-009  0.1020902E+03  0.7561462E-02  0.1275961E+00
         -2   -1    0    0    0  501 -0.00000000000E+00  0.00000000000E+00  0.17130361401E+02  0.17130361401E+02  0.00000000000E+00 0.  1.
          2   -1    0    0  501    0  0.00000000000E+00 -0.00000000000E+00 -0.91339357074E+03  0.91339357074E+03  0.00000000000E+00 0. -1.
         25    2    1    2    0    0 -0.26240849592E+02  0.60320103730E+02 -0.49182256248E+03  0.51172710059E+03  0.12509234752E+03 0.  0.
          5    1    3    3  502    0  0.25692660655E+02  0.18136891786E+02 -0.38019848357E+03  0.38151988017E+03  0.41800000000E+01 0. -1.
         -5    1    3    3    0  502 -0.51933510247E+02  0.42183211944E+02 -0.11162407892E+03  0.13020722042E+03  0.41800000000E+01 0. -1.
        -11    1    1    2    0    0 -0.28020712465E+02 -0.36860081048E+02 -0.12829385400E+03  0.13639332416E+03  0.00000000000E+00 0.  1.
         11    1    1    2    0    0  0.54261562057E+02 -0.23460022682E+02 -0.27614679285E+03  0.28240350739E+03  0.00000000000E+00 0. -1.
</event>
<event>
 7    1  0.2648915E-009  0.2448402E+03  0.7561462E-02  0.1116610E+00
         -3   -1    0    0    0  501 -0.00000000000E+00  0.00000000000E+00  0.40262194194E+02  0.40262194194E+02  0.00000000000E+00 0. -1.
          3   -1    0    0  501    0  0.00000000000E+00 -0.00000000000E+00 -0.15733010858E+04  0.15733010858E+04  0.00000000000E+00 0.  1.
         25    2    1    2    0    0 -0.16573486869E+03  0.15883219029E+03 -0.74246389634E+03  0.78714400615E+03  0.12508931879E+03 0.  0.
          5    1    3    3  502    0  0.51201366890E+01  0.64601904562E+02 -0.15294779179E+03  0.16616293596E+03  0.41800000000E+01 0. -1.
         -5    1    3    3    0  502 -0.17085500538E+03  0.94230285732E+02 -0.58951610455E+03  0.62098107019E+03  0.41800000000E+01 0. -1.
        -11    1    1    2    0    0  0.99043697271E+02 -0.92674184049E+02 -0.33805765438E+03  0.36425421898E+03  0.00000000000E+00 0. -1.
         11    1    1    2    0    0  0.66691171422E+02 -0.66158006245E+02 -0.45251734087E+03  0.46216505485E+03  0.00000000000E+00 0.  1.
</event>
<event>
 7    1  0.2648915E-009  0.9157521E+02  0.7561462E-02  0.1299081E+00
          2   -1    0    0  501    0  0.00000000000E+00  0.00000000000E+00  0.14323146045E+03  0.14323146045E+03  0.00000000000E+00 0. -1.
         -2   -1    0    0    0  501 -0.00000000000E+00 -0.00000000000E+00 -0.10388907219E+03  0.10388907219E+03  0.00000000000E+00 0.  1.
         25    2    1    2    0    0  0.29308526124E+02  0.35600551557E+02  0.58052228935E+02  0.14540453730E+03  0.12508408855E+03 0.  0.
          5    1    3    3  502    0  0.17110328137E+01 -0.46195206113E+02  0.26167613058E+02  0.53283591041E+02  0.41800000000E+01 0.  1.
         -5    1    3    3    0  502  0.27597493311E+02  0.81795757670E+02  0.31884615877E+02  0.92120946258E+02  0.41800000000E+01 0.  1.
        -11    1    1    2    0    0 -0.25295873372E+02 -0.15189176719E+02 -0.53548479006E+02  0.61139446374E+02  0.00000000000E+00 0.  1.
         11    1    1    2    0    0 -0.40126527523E+01 -0.20411374838E+02  0.34838638336E+02  0.40576548966E+02  0.00000000000E+00 0. -1.
</event>
<event>
 7    1  0.2648915E-009  0.8178281E+02  0.7561462E-02  0.1324067E+00
         -2   -1    0    0    0  501 -0.00000000000E+00  0.00000000000E+00  0.11335964816E+03  0.11335964816E+03  0.00000000000E+00 0. -1.
          2   -1    0    0  501    0  0.00000000000E+00 -0.00000000000E+00 -0.16653254060E+03  0.16653254060E+03  0.00000000000E+00 0.  1.
         25    2    1    2    0    0 -0.28649850716E+02 -0.48005960106E+02  0.35545519474E+02  0.14154689268E+03  0.12508658090E+03 0.  0.
          5    1    3    3  502    0 -0.62707130075E+01  0.11818125565E+02  0.68244422411E+02  0.69668956672E+02  0.41800000000E+01 0. -1.
         -5    1    3    3    0  502 -0.22379137708E+02 -0.59824085671E+02 -0.32698902938E+02  0.71877936004E+02  0.41800000000E+01 0. -1.
        -11    1    1    2    0    0 -0.20382426191E+02  0.67842128821E+01 -0.67545302831E+02  0.70879029172E+02  0.00000000000E+00 0.  1.
         11    1    1    2    0    0  0.49032276907E+02  0.41221747224E+02 -0.21173109075E+02  0.67466266910E+02  0.00000000000E+00 0. -1.
</event>
<event>
 7    1  0.2648915E-009  0.3280210E+03  0.7561462E-02  0.1072016E+00
         -2   -1    0    0    0  501 -0.00000000000E+00  0.00000000000E+00  0.71915950656E+02  0.71915950656E+02  0.00000000000E+00 0. -1.
          2   -1    0    0  501    0  0.00000000000E+00 -0.00000000000E+00 -0.15464683939E+04  0.15464683939E+04  0.00000000000E+00 0.  1.
         25    2    1    2    0    0  0.22082239924E+03 -0.22471783445E+03 -0.77605787845E+03  0.84686124130E+03  0.12508994434E+03 0.  0.
          5    1    3    3  502    0  0.20623729038E+03 -0.23749009191E+03 -0.75512104967E+03  0.81802239318E+03  0.41800000000E+01 0.  1.
         -5    1    3    3    0  502  0.14585108865E+02  0.12772257451E+02 -0.20936828781E+02  0.28838848111E+02  0.41800000000E+01 0.  1.
        -11    1    1    2    0    0 -0.33255614888E+02  0.64884996141E+01 -0.37117011603E+02  0.50256433410E+02  0.00000000000E+00 0. -1.
         11    1    1    2    0    0 -0.18756678435E+03  0.21822933484E+03 -0.66137755322E+03  0.72126666988E+03  0.00000000000E+00 0.  1.
</event>
<event>
 7    1  0.2648915E-009  0.1011060E+03  0.7561462E-02  0.1277987E+00
         -3   -1    0    0    0  501 -0.00000000000E+00  0.00000000000E+00  0.22593134971E+03  0.22593134971E+03  0.00000000000E+00 0.  1.
          3   -1    0    0  501    0  0.00000000000E+00 -0.00000000000E+00 -0.74085365819E+02  0.74085365819E+02  0.00000000000E+00 0. -1.
         25    2    1    2    0    0 -0.12097926631E+02 -0.46738354390E+02  0.14260301362E+03  0.19573859977E+03  0.12508855401E+03 0.  0.
          5    1    3    3  502    0 -0.43038979303E+02 -0.53123498115E+02  0.23454727995E+02  0.72402047324E+02  0.41800000000E+01 0. -1.
         -5    1    3    3    0  502  0.30941052671E+02  0.63851437248E+01  0.11914828563E+03  0.12333655244E+03  0.41800000000E+01 0. -1.
        -11    1    1    2    0    0 -0.15587146284E+02 -0.22446320772E+02  0.11682211183E+02  0.29719867153E+02  0.00000000000E+00 0.  1.
         11    1    1    2    0    0  0.27685072915E+02  0.69184675162E+02 -0.24392409120E+01  0.74558248610E+02  0.00000000000E+00 0. -1.
</event>
<event>
 7    1  0.2648915E-009  0.1557701E+03  0.7561462E-02  0.1193557E+00
         -1   -1    0    0    0  501 -0.00000000000E+00  0.00000000000E+00  0.31335621167E+03  0.31335621167E+03  0.00000000000E+00 0.  1.
          1   -1    0    0  501    0  0.00000000000E+00 -0.00000000000E+00 -0.90526265064E+02  0.90526265064E+02  0.00000000000E+00 0. -1.
         25    2    1    2    0    0  0.50107519223E+02 -0.11080157769E+03  0.70145773710E+02  0.18803204625E+03  0.12509143755E+03 0.  0.
          5    1    3    3  502    0 -0.33310206659E+02 -0.11357974723E+02  0.42354358208E+02  0.55226239386E+02  0.41800000000E+01 0. -1.
         -5    1    3    3    0  502  0.83417725882E+02 -0.99443602967E+02  0.27791415502E+02  0.13280580687E+03  0.41800000000E+01 0. -1.
        -11    1    1    2    0    0  0.20759354379E+02  0.10072786661E+02  0.51582778959E+02  0.56508361420E+02  0.00000000000E+00 0.  1.
         11    1    1    2    0    0 -0.70866873602E+02  0.10072879103E+03  0.10110139394E+03  0.15934206906E+03  0.00000000000E+00 0. -1.
</event>
<event>
 7    1  0.2648915E-009  0.9678301E+02  0.7561462E-02  0.1287210E+00
          1   -1    0    0  501    0  0.00000000000E+00  0.00000000000E+00  0.38205254514E+03  0.38205254514E+03  0.00000000000E+00 0.  1.
         -1   -1    0    0    0  501 -0.00000000000E+00 -0.00000000000E+00 -0.53818399341E+02  0.53818399341E+02  0.00000000000E+00 0. -1.
         25    2    1    2    0    0 -0.68392261051E+00  0.13180978152E+02  0.40072202132E+02  0.13201730392E+03  0.12509428930E+03 0.  0.
          5    1    3    3  502    0  0.18647750521E+02 -0.38522182501E+02  0.59445160242E+02  0.73368226231E+02  0.41800000000E+01 0.  1.
         -5    1    3    3    0  502 -0.19331673131E+02  0.51703160653E+02 -0.19372958110E+02  0.58649077687E+02  0.41800000000E+01 0.  1.
        -11    1    1    2    0    0  0.29614973533E+01 -0.54121854359E+02  0.14013052343E+03  0.15024815866E+03  0.00000000000E+00 0.  1.
         11    1    1    2    0    0 -0.22775747428E+01  0.40940876207E+02  0.14803142024E+03  0.15360548190E+03  0.00000000000E+00 0. -1.
</event>
<event>
 7    1  0.2648915E-009  0.1216760E+03  0.7561462E-02  0.1240358E+00
         -2   -1    0    0    0  501 -0.00000000000E+00  0.00000000000E+00  0.11805911071E+03  0.11805911071E+03  0.00000000000E+00 0.  1.
          2   -1    0    0  501    0  0.00000000000E+00 -0.00000000000E+00 -0.18264446451E+03  0.18264446451E+03  0.00000000000E+00 0. -1.
         25    2    1    2    0    0 -0.68983738542E+02 -0.38627232410E+02 -0.95148951798E+02  0.17593952264E+03  0.12510225151E+03 0.  0.
          5    1    3    3  502    0 -0.37644424351E+02 -0.83005299829E+02 -0.74055556986E+02  0.11751034169E+03  0.41800000000E+01 0. -1.
         -5    1    3    3    0  502 -0.31339314191E+02  0.44378067419E+02 -0.21093394812E+02  0.58429180950E+02  0.41800000000E+01 0. -1.
        -11    1    1    2    0    0  0.79005304990E+02  0.37761423445E+02 -0.50949903851E+01  0.87713865746E+02  0.00000000000E+00 0. -1.
         11    1    1    2    0    0 -0.10021566449E+02  0.86580896527E+00  0.35658588376E+02  0.37050186831E+02  0.00000000000E+00 0.  1.
</event>
<event>
 7    1  0.2648915E-009  0.1263153E+03  0.7561462E-02  0.1233028E+00
          2   -1    0    0  501    0  0.00000000000E+00  0.00000000000E+00  0.11681910336E+03  0.11681910336E+03  0.00000000000E+00 0. -1.
         -2   -1    0    0    0  501 -0.00000000000E+00 -0.00000000000E+00 -0.51311127701E+03  0.51311127701E+03  0.00000000000E+00 0.  1.
         25    2    1    2    0    0 -0.14895487339E+02 -0.80696068251E+02 -0.46550253443E+03  0.48895158793E+03  0.12508922738E+03 0.  0.
          5    1    3    3  502    0  0.44177214308E+02 -0.30760996325E+02 -0.85408256032E+02  0.10104408819E+03  0.41800000000E+01 0.  1.
         -5    1    3    3    0  502 -0.59072701647E+02 -0.49935071926E+02 -0.38009427840E+03  0.38790749975E+03  0.41800000000E+01 0.  1.
        -11    1    1    2    0    0  0.57336403480E+01  0.99811394446E+02  0.65331081498E+02  0.11942922298E+03  0.00000000000E+00 0. -1.
         11    1    1    2    0    0  0.91618469910E+01 -0.19115326195E+02  0.38792792821E+01  0.21549569452E+02  0.00000000000E+00 0.  1.
</event>
<event>
 7    1  0.2648915E-009  0.2620355E+03  0.7561462E-02  0.1105926E+00
         -2   -1    0    0    0  501 -0.00000000000E+00  0.00000000000E+00  0.30679872656E+02  0.30679872656E+02  0.00000000000E+00 0. -1.
          2   -1    0    0  501    0  0.00000000000E+00 -0.00000000000E+00 -0.27134617387E+04  0.27134617387E+04  0.00000000000E+00 0.  1.
         25    2    1    2    0    0  0.59310496488E+02  0.23376750219E+03 -0.19403764141E+04  0.19593041261E+04  0.12508816931E+03 0.  0.
          5    1    3    3  502    0  0.77451947201E+02  0.67116977027E+02 -0.83615683430E+03  0.84242460593E+03  0.41800000000E+01 0.  1.
         -5    1    3    3    0  502 -0.18141450714E+02  0.16665052516E+03 -0.11042195798E+04  0.11168795202E+04  0.41800000000E+01 0.  1.
        -11    1    1    2    0    0 -0.27053555543E+01 -0.16376376728E+03 -0.50733149075E+03  0.53311455798E+03  0.00000000000E+00 0.  1.
         11    1    1    2    0    0 -0.56605140933E+02 -0.70003734912E+02 -0.23507396114E+03  0.25172292722E+03  0.00000000000E+00 0. -1.
</event>
<event>
 7    1  0.2648915E-009  0.8518229E+02  0.7561462E-02  0.1314957E+00
         -1   -1    0    0    0  501 -0.00000000000E+00  0.00000000000E+00  0.76718171235E+02  0.76718171235E+02  0.00000000000E+00 0.  1.
          1   -1    0    0  501    0  0.00000000000E+00 -0.00000000000E+00 -0.17259131521E+03  0.17259131521E+03  0.00000000000E+00 0. -1.
         25    2    1    2    0    0  0.97686617447E+01  0.29838843552E+01 -0.77905620926E+02  0.14772033213E+03  0.12509068884E+03 0.  0.
          5    1    3    3  502    0 -0.32492974243E+02  0.39661709433E+02  0.32777763737E+00  0.51443409767E+02  0.41800000000E+01 0. -1.
         -5    1    3    3    0  502  0.42261635987E+02 -0.36677825078E+02 -0.78233398563E+02  0.96276922362E+02  0.41800000000E+01 0. -1.
        -11    1    1    2    0    0  0.26093170883E+02 -0.61460921634E+01  0.30890159915E+02  0.40900244439E+02  0.00000000000E+00 0.  1.
         11    1    1    2    0    0 -0.35861832627E+02  0.31622078082E+01 -0.48857682968E+02  0.60688909882E+02  0.00000000000E+00 0. -1.
</event>
<event>
 7    1  0.2648915E-009  0.1151769E+03  0.7561462E-02  0.1251273E+00
         -1   -1    0    0    0  501 -0.00000000000E+00  0.00000000000E+00  0.22455314314E+02  0.22455314314E+02  0.00000000000E+00 0.  1.
          1   -1    0    0  501    0  0.00000000000E+00 -0.00000000000E+00 -0.69434835371E+03  0.69434835371E+03  0.00000000000E+00 0. -1.
         25    2    1    2    0    0 -0.30631175847E+02  0.30890486300E+02 -0.48315548032E+03  0.50097784956E+03  0.12508835482E+03 0.  0.
          5    1    3    3  502    0  0.43198662992E+02 -0.74942907002E+01 -0.10708044046E+03  0.11578420447E+03  0.41800000000E+01 0.  1.
         -5    1    3    3    0  502 -0.73829838839E+02  0.38384777000E+02 -0.37607503986E+03  0.38519364509E+03  0.41800000000E+01 0.  1.
        -11    1    1    2    0    0  0.88063501625E+01  0.33691865435E+02 -0.46483851153E+02  0.58081339668E+02  0.00000000000E+00 0.  1.
         11    1    1    2    0    0  0.21824825685E+02 -0.64582351735E+02 -0.14225370792E+03  0.15774447879E+03  0.00000000000E+00 0. -1.
</event>
<event>
 7    1  0.2648915E-009  0.1752686E+03  0.7561462E-02  0.1172462E+00
         -1   -1    0    0    0  501 -0.00000000000E+00  0.00000000000E+00  0.35512567013E+02  0.35512567013E+02  0.00000000000E+00 0.  1.
          1   -1    0    0  501    0  0.00000000000E+00 -0.00000000000E+00 -0.88620347479E+03  0.88620347479E+03  0.00000000000E+00 0. -1.
         25    2    1    2    0    0  0.13911102868E+03 -0.67979790646E-01 -0.47824058173E+03  0.51353005597E+03  0.12508869436E+03 0.  0.
          5    1    3    3  502    0  0.56770219800E+02 -0.61846686875E+02 -0.21509458078E+03  0.23093510260E+03  0.41800000000E+01 0. -1.
         -5    1    3    3    0  502  0.82340808880E+02  0.61778707085E+02 -0.26314600095E+03  0.28259495337E+03  0.41800000000E+01 0. -1.
        -11    1    1    2    0    0 -0.60684487059E+02  0.42690770253E+02 -0.12801174921E+03  0.14795984850E+03  0.00000000000E+00 0.  1.
         11    1    1    2    0    0 -0.78426541620E+02 -0.42622790463E+02 -0.24443857685E+03  0.26022613733E+03  0.00000000000E+00 0. -1.
</event>
<event>
 7    1  0.3229826E-009  0.1168438E+03  0.7561462E-02  0.1248396E+00
         -2   -1    0    0    0  501 -0.00000000000E+00  0.00000000000E+00  0.60126740475E+02  0.60126740475E+02  0.00000000000E+00 0.  1.
          2   -1    0    0  501    0  0.00000000000E+00 -0.00000000000E+00 -0.38556936124E+03  0.38556936124E+03  0.00000000000E+00 0. -1.
         25    2    1    2    0    0 -0.10429454738E+03 -0.21353891583E+02 -0.18296086314E+03  0.24587791254E+03  0.12509168290E+03 0.  0.
          5    1    3    3  502    0 -0.43884021732E+02 -0.17989055045E+02 -0.17886273362E+03  0.18509122978E+03  0.41800000000E+01 0. -1.
         -5    1    3    3    0  502 -0.60410525652E+02 -0.33648365376E+01 -0.40981295221E+01  0.60786682753E+02  0.41800000000E+01 0. -1.
        -11    1    1    2    0    0  0.10210891754E+03 -0.18452810318E+01 -0.14391917558E+03  0.17647199552E+03  0.00000000000E+00 0. -1.
         11    1    1    2    0    0  0.21856298419E+01  0.23199172614E+02  0.14374179598E+01  0.23346193655E+02  0.00000000000E+00 0.  1.
</event>
<event>
 7    1  0.2648915E-009  0.1795053E+03  0.7561462E-02  0.1168283E+00
          1   -1    0    0  501    0  0.00000000000E+00  0.00000000000E+00  0.14348526036E+03  0.14348526036E+03  0.00000000000E+00 0. -1.
         -1   -1    0    0    0  501 -0.00000000000E+00 -0.00000000000E+00 -0.34567704403E+03  0.34567704403E+03  0.00000000000E+00 0.  1.
         25    2    1    2    0    0  0.16029836003E+03  0.49320883661E+02 -0.21387864753E+03  0.29919916689E+03  0.12509177354E+03 0.  0.
          5    1    3    3  502    0  0.61149456446E+01  0.34099998051E+02 -0.10267561655E+03  0.10844333571E+03  0.41800000000E+01 0. -1.
         -5    1    3    3    0  502  0.15418341438E+03  0.15220885610E+02 -0.11120303098E+03  0.19075583118E+03  0.41800000000E+01 0. -1.
        -11    1    1    2    0    0 -0.93440394534E+02 -0.39919214996E+02 -0.35454533298E+02  0.10761819079E+03  0.00000000000E+00 0.  1.
         11    1    1    2    0    0 -0.66857965491E+02 -0.94016686650E+01  0.47141397158E+02  0.82344946714E+02  0.00000000000E+00 0. -1.
</event>
<event>
 7    1  0.2648915E-009  0.1067066E+03  0.7561462E-02  0.1266793E+00
          2   -1    0    0  501    0  0.00000000000E+00  0.00000000000E+00  0.38481068763E+03  0.38481068763E+03  0.00000000000E+00 0. -1.
         -2   -1    0    0    0  501 -0.00000000000E+00 -0.00000000000E+00 -0.41003486611E+02  0.41003486611E+02  0.00000000000E+00 0.  1.
         25    2    1    2    0    0  0.41031365713E+02 -0.22046173789E+02  0.11847751512E+03  0.17847903923E+03  0.12509292189E+03 0.  0.
          5    1    3    3  502    0  0.73945319458E+02  0.21418004721E+02  0.83076735741E+02  0.11333956775E+03  0.41800000000E+01 0. -1.
         -5    1    3    3    0  502 -0.32913953746E+02 -0.43464178510E+02  0.35400779374E+02  0.65139471482E+02  0.41800000000E+01 0. -1.
        -11    1    1    2    0    0 -0.16062481673E+02  0.44961434416E+02  0.51476147004E+02  0.70209170431E+02  0.00000000000E+00 0.  1.
         11    1    1    2    0    0 -0.24968884040E+02 -0.22915260627E+02  0.17385353890E+03  0.17712596457E+03  0.00000000000E+00 0. -1.
</event>
<event>
 7    1  0.2648915E-009  0.1054477E+03  0.7561462E-02  0.1269240E+00
          2   -1    0    0  501    0  0.00000000000E+00  0.00000000000E+00  0.55430813855E+03  0.55430813855E+03  0.00000000000E+00 0. -1.
         -2   -1    0    0    0  501 -0.00000000000E+00 -0.00000000000E+00 -0.24416763636E+02  0.24416763636E+02  0.00000000000E+00 0.  1.
         25    2    1    2    0    0  0.76406393383E+01 -0.36924440428E+02  0.25244887533E+03  0.28424870090E+03  0.12508035673E+03 0.  0.
          5    1    3    3  502    0 -0.53915549246E+02 -0.24603102330E+02  0.73182336837E+02  0.94262006767E+02  0.41800000000E+01 0.  1.
         -5    1    3    3    0  502  0.61556188584E+02 -0.12321338098E+02  0.17926653849E+03  0.18998669414E+03  0.41800000000E+01 0.  1.
        -11    1    1    2    0    0  0.36001296258E+02  0.10299336062E+02  0.18582808481E+03  0.18956330542E+03  0.00000000000E+00 0. -1.
         11    1    1    2    0    0 -0.43641935596E+02  0.26625104366E+02  0.91614414776E+02  0.10491289587E+03  0.00000000000E+00 0.  1.
</event>
<event>
 7    1  0.2648915E-009  0.1087349E+03  0.7561462E-02  0.1262931E+00
         -1   -1    0    0    0  501 -0.00000000000E+00  0.00000000000E+00  0.15752897522E+03  0.15752897522E+03  0.00000000000E+00 0.  1.
          1   -1    0    0  501    0  0.00000000000E+00 -0.00000000000E+00 -0.83381419334E+02  0.83381419334E+02  0.00000000000E+00 0. -1.
         25    2    1    2    0    0 -0.25426446707E+02 -0.22565047581E+02  0.23324214705E+02  0.13170481698E+03  0.12508578760E+03 0.  0.
          5    1    3    3  502    0  0.25340213147E+00  0.49566444262E+02  0.23522173157E+02  0.55024191402E+02  0.41800000000E+01 0. -1.
         -5    1    3    3    0  502 -0.25679848838E+02 -0.72131491844E+02 -0.19795845139E+00  0.76680625581E+02  0.41800000000E+01 0. -1.
        -11    1    1    2    0    0  0.52508845132E+02 -0.45719093131E+01  0.10838977370E+02  0.53810450679E+02  0.00000000000E+00 0.  1.
         11    1    1    2    0    0 -0.27082398425E+02  0.27136956895E+02  0.39984363808E+02  0.55395126889E+02  0.00000000000E+00 0. -1.
</event>
<event>
 7    1  0.2648915E-009  0.1022853E+03  0.7561462E-02  0.1275562E+00
         -1   -1    0    0    0  501 -0.00000000000E+00  0.00000000000E+00  0.17970267364E+03  0.17970267364E+03  0.00000000000E+00 0.  1.
          1   -1    0    0  501    0  0.00000000000E+00 -0.00000000000E+00 -0.23363930209E+03  0.23363930209E+03  0.00000000000E+00 0. -1.
         25    2    1    2    0    0 -0.56666722421E+02  0.75803751988E+01  0.13680554657E+03  0.19398857825E+03  0.12508889401E+03 0.  0.
          5    1    3    3  502    0  0.13578517305E+02 -0.16834117772E+02  0.11397432865E+03  0.11608352012E+03  0.41800000000E+01 0. -1.
         -5    1    3    3    0  502 -0.70245239726E+02  0.24414492970E+02  0.22831217920E+02  0.77905058134E+02  0.41800000000E+01 0. -1.
        -11    1    1    2    0    0  0.46329254562E+02 -0.47778420016E+02 -0.12479340226E+03  0.14143044402E+03  0.00000000000E+00 0.  1.
         11    1    1    2    0    0  0.10337467859E+02  0.40198044817E+02 -0.65948772753E+02  0.77922953463E+02  0.00000000000E+00 0. -1.
</event>
<event>
 7    1  0.2648915E-009  0.6630507E+02  0.7561462E-02  0.1373129E+00
          2   -1    0    0  501    0  0.00000000000E+00  0.00000000000E+00  0.19846130132E+03  0.19846130132E+03  0.00000000000E+00 0. -1.
         -2   -1    0    0    0  501 -0.00000000000E+00 -0.00000000000E+00 -0.75738508493E+02  0.75738508493E+02  0.00000000000E+00 0.  1.
         25    2    1    2    0    0 -0.56568994735E+02 -0.12452363826E+02  0.60451863036E+02  0.15052334592E+03  0.12509091650E+03 0.  0.
          5    1    3    3  502    0 -0.47947451873E+02 -0.42630051943E+01  0.98894616525E+02  0.11006702018E+03  0.41800000000E+01 0. -1.
         -5    1    3    3    0  502 -0.86215428622E+01 -0.81893586320E+01 -0.38442753489E+02  0.40456325735E+02  0.41800000000E+01 0. -1.
        -11    1    1    2    0    0  0.49048170804E+01 -0.13145065733E+02  0.64467811774E+02  0.65976880334E+02  0.00000000000E+00 0. -1.
         11    1    1    2    0    0  0.51664177654E+02  0.25597429559E+02 -0.21968819812E+01  0.57699583561E+02  0.00000000000E+00 0.  1.
</event>
<event>
 7    1  0.2648915E-009  0.3670197E+03  0.7561462E-02  0.1055838E+00
          2   -1    0    0  501    0  0.00000000000E+00  0.00000000000E+00  0.17367021788E+04  0.17367021788E+04  0.00000000000E+00 0. -1.
         -2   -1    0    0    0  501 -0.00000000000E+00 -0.00000000000E+00 -0.84974777688E+02  0.84974777688E+02  0.00000000000E+00 0.  1.
         25    2    1    2    0    0 -0.46812931877E+02 -0.35782752825E+03  0.10098880667E+04  0.10797004696E+04  0.12508879324E+03 0.  0.
          5    1    3    3  502    0  0.21682590464E+02 -0.17256898886E+03  0.34969940085E+03  0.39058588556E+03  0.41800000000E+01 0.  1.
         -5    1    3    3    0  502 -0.68495522341E+02 -0.18525853940E+03  0.66018866586E+03  0.68911458403E+03  0.41800000000E+01 0.  1.
        -11    1    1    2    0    0 -0.81046031458E+00  0.11751655064E+03  0.13466409270E+03  0.17873224215E+03  0.00000000000E+00 0.  1.
         11    1    1    2    0    0  0.47623392192E+02  0.24031097761E+03  0.50717524173E+03  0.56324424477E+03  0.00000000000E+00 0. -1.
</event>
<event>
 7    1  0.2648915E-009  0.1186230E+03  0.7561462E-02  0.1245386E+00
          1   -1    0    0  501    0  0.00000000000E+00  0.00000000000E+00  0.14994993579E+03  0.14994993579E+03  0.00000000000E+00 0. -1.
         -1   -1    0    0    0  501 -0.00000000000E+00 -0.00000000000E+00 -0.98678513259E+02  0.98678513259E+02  0.00000000000E+00 0.  1.
         25    2    1    2    0    0 -0.49694290296E+02  0.13593740963E+02  0.95515857911E+01  0.13562181620E+03  0.12509089479E+03 0.  0.
          5    1    3    3  502    0  0.40709290395E+02  0.15361482813E+02 -0.47980555981E+01  0.43974028883E+02  0.41800000000E+01 0. -1.
         -5    1    3    3    0  502 -0.90403580691E+02 -0.17677418503E+01  0.14349641389E+02  0.91647787322E+02  0.41800000000E+01 0. -1.
        -11    1    1    2    0    0 -0.14352768108E+02  0.24574983061E+02  0.20022902331E+01  0.28529649682E+02  0.00000000000E+00 0.  1.
         11    1    1    2    0    0  0.64047058403E+02 -0.38168724024E+02  0.39717546508E+02  0.84476983163E+02  0.00000000000E+00 0. -1.
</event>
<event>
 7    1  0.2648915E-009  0.1691324E+03  0.7561462E-02  0.1178756E+00
         -1   -1    0    0    0  501 -0.00000000000E+00  0.00000000000E+00  0.34209305674E+02  0.34209305674E+02  0.00000000000E+00 0.  1.
          1   -1    0    0  501    0  0.00000000000E+00 -0.00000000000E+00 -0.10771600045E+04  0.10771600045E+04  0.00000000000E+00 0. -1.
         25    2    1    2    0    0  0.62101365421E+02  0.12881277101E+03 -0.73495634413E+03  0.75911912559E+03  0.12510679239E+03 0.  0.
          5    1    3    3  502    0  0.49269046964E+02 -0.96106988508E+01 -0.22196255783E+03  0.22760635755E+03  0.41800000000E+01 0.  1.
         -5    1    3    3    0  502  0.12832318457E+02  0.13842346986E+03 -0.51299378630E+03  0.53151276804E+03  0.41800000000E+01 0.  1.
        -11    1    1    2    0    0 -0.48232600020E+02 -0.52669231246E+02 -0.62700271871E+02  0.95035549756E+02  0.00000000000E+00 0.  1.
         11    1    1    2    0    0 -0.13868765401E+02 -0.76143539759E+02 -0.24529408286E+03  0.25721463486E+03  0.00000000000E+00 0. -1.
</event>
<event>
 7    1  0.3357796E-009  0.1962317E+03  0.7561462E-02  0.1152958E+00
         -2   -1    0    0    0  501 -0.00000000000E+00  0.00000000000E+00  0.86175201498E+02  0.86175201498E+02  0.00000000000E+00 0.  1.
          2   -1    0    0  501    0  0.00000000000E+00 -0.00000000000E+00 -0.46951604316E+03  0.46951604316E+03  0.00000000000E+00 0. -1.
         25    2    1    2    0    0  0.16483432743E+03 -0.19334545037E+02 -0.15662726666E+03  0.26024256545E+03  0.12509960864E+03 0.  0.
          5    1    3    3  502    0  0.10317311796E+02 -0.45046079639E+02 -0.61102408344E+02  0.76724004842E+02  0.41800000000E+01 0.  1.
         -5    1    3    3    0  502  0.15451701564E+03  0.25711534602E+02 -0.95524858312E+02  0.18351856061E+03  0.41800000000E+01 0.  1.
        -11    1    1    2    0    0 -0.26869044087E+02  0.41691800554E+02 -0.63296994323E+02  0.80415553557E+02  0.00000000000E+00 0. -1.
         11    1    1    2    0    0 -0.13796528335E+03 -0.22357255517E+02 -0.16341658068E+03  0.21503312565E+03  0.00000000000E+00 0.  1.
</event>
<event>
 7    1  0.2648915E-009  0.1257129E+03  0.7561462E-02  0.1233959E+00
          4   -1    0    0  501    0  0.00000000000E+00  0.00000000000E+00  0.22534211246E+03  0.22534211246E+03  0.00000000000E+00 0. -1.
         -4   -1    0    0    0  501 -0.00000000000E+00 -0.00000000000E+00 -0.75827217428E+02  0.75827217428E+02  0.00000000000E+00 0.  1.
         25    2    1    2    0    0 -0.64040972411E+02  0.53370487997E+01  0.42880001295E+02  0.14702345614E+03  0.12508985534E+03 0.  0.
          5    1    3    3  502    0 -0.63798361169E+02 -0.52188735470E+02  0.30821785038E+02  0.88098523431E+02  0.41800000000E+01 0.  1.
         -5    1    3    3    0  502 -0.24261124249E+00  0.57525784269E+02  0.12058216257E+02  0.58924932714E+02  0.41800000000E+01 0.  1.
        -11    1    1    2    0    0  0.71494188430E+02 -0.35728672982E+02  0.79430237363E+02  0.11268149653E+03  0.00000000000E+00 0. -1.
         11    1    1    2    0    0 -0.74532160189E+01  0.30391624182E+02  0.27204656376E+02  0.41464377217E+02  0.00000000000E+00 0.  1.
</event>
<event>
 7    1  0.2648915E-009  0.1542987E+03  0.7561462E-02  0.1195288E+00
         -1   -1    0    0    0  501 -0.00000000000E+00  0.00000000000E+00  0.25505550807E+03  0.25505550807E+03  0.00000000000E+00 0.  1.
          1   -1    0    0  501    0  0.00000000000E+00 -0.00000000000E+00 -0.11581924991E+03  0.11581924991E+03  0.00000000000E+00 0. -1.
         25    2    1    2    0    0  0.65348359045E+02  0.11064485157E+03  0.36465601445E+02  0.18300392957E+03  0.12509199392E+03 0.  0.
          5    1    3    3  502    0  0.81680818718E+02  0.39403468765E+02 -0.16983688398E+02  0.92359664187E+02  0.41800000000E+01 0.  1.
         -5    1    3    3    0  502 -0.16332459673E+02  0.71241382801E+02  0.53449289842E+02  0.90644265384E+02  0.41800000000E+01 0.  1.
        -11    1    1    2    0    0  0.11523164993E+02 -0.34622635956E+02 -0.30122535112E+01  0.36613985350E+02  0.00000000000E+00 0.  1.
         11    1    1    2    0    0 -0.76871524038E+02 -0.76022215610E+02  0.10578291023E+03  0.15125684306E+03  0.00000000000E+00 0. -1.
</event>
<event>
 7    1  0.2648915E-009  0.8906749E+02  0.7561462E-02  0.1305126E+00
          2   -1    0    0  501    0  0.00000000000E+00  0.00000000000E+00  0.20896657982E+03  0.20896657982E+03  0.00000000000E+00 0.  1.
         -2   -1    0    0    0  501 -0.00000000000E+00 -0.00000000000E+00 -0.59640434561E+02  0.59640434561E+02  0.00000000000E+00 0. -1.
         25    2    1    2    0    0  0.23978048142E+02  0.77077419298E+01  0.12376877034E+03  0.17777153789E+03  0.12509858150E+03 0.  0.
          5    1    3    3  502    0  0.44988268416E+02  0.36656770575E+02  0.10766852556E+02  0.59169761179E+02  0.41800000000E+01 0. -1.
         -5    1    3    3    0  502 -0.21010220274E+02 -0.28949028645E+02  0.11300191778E+03  0.11860177671E+03  0.41800000000E+01 0. -1.
        -11    1    1    2    0    0 -0.50167995790E+02  0.11490482710E+02  0.27407879307E+02  0.58309954918E+02  0.00000000000E+00 0.  1.
         11    1    1    2    0    0  0.26189947647E+02 -0.19198224640E+02 -0.18505043899E+01  0.32525521573E+02  0.00000000000E+00 0. -1.
</event>
<event>
 7    1  0.2648915E-009  0.1290084E+03  0.7561462E-02  0.1228935E+00
         -2   -1    0    0    0  501 -0.00000000000E+00  0.00000000000E+00  0.30116853348E+03  0.30116853348E+03  0.00000000000E+00 0.  1.
          2   -1    0    0  501    0  0.00000000000E+00 -0.00000000000E+00 -0.85858260557E+02  0.85858260557E+02  0.00000000000E+00 0. -1.
         25    2    1    2    0    0 -0.11479942350E+03 -0.47996144931E+01  0.15016282359E+03  0.22671169389E+03  0.12508946648E+03 0.  0.
          5    1    3    3  502    0 -0.10623857826E+01 -0.15879210894E+02  0.10084433704E+03  0.10217793654E+03  0.41800000000E+01 0.  1.
         -5    1    3    3    0  502 -0.11373703772E+03  0.11079596401E+02  0.49318486553E+02  0.12453375736E+03  0.41800000000E+01 0.  1.
        -11    1    1    2    0    0  0.53404575723E+02  0.29526175835E+02 -0.81402075284E+01  0.61563842848E+02  0.00000000000E+00 0. -1.
         11    1    1    2    0    0  0.61394847777E+02 -0.24726561342E+02  0.73287656855E+02  0.98751257292E+02  0.00000000000E+00 0.  1.
</event>
<event>
 7    1  0.2648915E-009  0.1476449E+03  0.7561462E-02  0.1203397E+00
          1   -1    0    0  501    0  0.00000000000E+00  0.00000000000E+00  0.26385465704E+03  0.26385465704E+03  0.00000000000E+00 0. -1.
         -1   -1    0    0    0  501 -0.00000000000E+00 -0.00000000000E+00 -0.10951010120E+03  0.10951010120E+03  0.00000000000E+00 0.  1.
         25    2    1    2    0    0 -0.87660020254E+02 -0.78262599588E+02  0.20676404387E+02  0.17287406556E+03  0.12509442514E+03 0.  0.
          5    1    3    3  502    0 -0.75798492089E+02 -0.63302226017E+01  0.53220648098E+02  0.92926814780E+02  0.41800000000E+01 0. -1.
         -5    1    3    3    0  502 -0.11861528165E+02 -0.71932376986E+02 -0.32544243711E+02  0.79947250785E+02  0.41800000000E+01 0. -1.
        -11    1    1    2    0    0  0.90160404737E+02  0.26093812384E+02  0.10528252598E+03  0.14104678622E+03  0.00000000000E+00 0. -1.
         11    1    1    2    0    0 -0.25003844832E+01  0.52168787204E+02  0.28385625467E+02  0.59443906450E+02  0.00000000000E+00 0.  1.
</event>
<event>
 7    1  0.2648915E-009  0.1184851E+03  0.7561462E-02  0.1245617E+00
         -2   -1    0    0    0  501 -0.00000000000E+00  0.00000000000E+00  0.10171804916E+03  0.10171804916E+03  0.00000000000E+00 0.  1.
          2   -1    0    0  501    0  0.00000000000E+00 -0.00000000000E+00 -0.13860694479E+03  0.13860694479E+03  0.00000000000E+00 0. -1.
         25    2    1    2    0    0  0.25787297327E+02 -0.38011704368E+02 -0.21293218766E+02  0.13493863159E+03  0.12508060904E+03 0.  0.
          5    1    3    3  502    0  0.36695904276E+02  0.39944215381E+02 -0.75628978344E+01  0.54925399923E+02  0.41800000000E+01 0.  1.
         -5    1    3    3    0  502 -0.10908606949E+02 -0.77955919749E+02 -0.13730320931E+02  0.80013231670E+02  0.41800000000E+01 0.  1.
        -11    1    1    2    0    0 -0.47037392102E+02 -0.12730299063E+02 -0.22648963971E+01  0.48782235759E+02  0.00000000000E+00 0.  1.
         11    1    1    2    0    0  0.21250094775E+02  0.50742003431E+02 -0.13330780475E+02  0.56604126600E+02  0.00000000000E+00 0. -1.
</event>
<event>
 7    1  0.2648915E-009  0.1128877E+03  0.7561462E-02  0.1255314E+00
         -1   -1    0    0    0  501 -0.00000000000E+00  0.00000000000E+00  0.50811979539E+02  0.50811979539E+02  0.00000000000E+00 0.  1.
          1   -1    0    0  501    0  0.00000000000E+00 -0.00000000000E+00 -0.35015951729E+03  0.35015951729E+03  0.00000000000E+00 0. -1.
         25    2    1    2    0    0 -0.12514519206E+02  0.73681707673E+02 -0.12657490153E+03  0.19301106319E+03  0.12508580087E+03 0.  0.
          5    1    3    3  502    0  0.38764054627E+02  0.84345417991E+02 -0.75373269670E+02  0.11964699598E+03  0.41800000000E+01 0. -1.
         -5    1    3    3    0  502 -0.51278573833E+02 -0.10663710318E+02 -0.51201631857E+02  0.73364067205E+02  0.41800000000E+01 0. -1.
        -11    1    1    2    0    0 -0.87478165422E+01 -0.35983499193E+02 -0.15791713166E+03  0.16220097713E+03  0.00000000000E+00 0. -1.
         11    1    1    2    0    0  0.21262335748E+02 -0.37698208480E+02 -0.14855504555E+02  0.45759456505E+02  0.00000000000E+00 0.  1.
</event>
<event>
 7    1  0.2648915E-009  0.1023975E+03  0.7561462E-02  0.1275334E+00
          1   -1    0    0  501    0  0.00000000000E+00  0.00000000000E+00  0.83894105760E+02  0.83894105760E+02  0.00000000000E+00 0.  1.
         -1   -1    0    0    0  501 -0.00000000000E+00 -0.00000000000E+00 -0.18192818833E+03  0.18192818833E+03  0.00000000000E+00 0. -1.
         25    2    1    2    0    0  0.35410279471E+02  0.44906301762E+02 -0.36722572267E+02  0.14235953776E+03  0.12508887580E+03 0.  0.
          5    1    3    3  502    0  0.70538850566E+02  0.64327085646E+02 -0.15642473008E+02  0.96829038768E+02  0.41800000000E+01 0. -1.
         -5    1    3    3    0  502 -0.35128571095E+02 -0.19420783885E+02 -0.21080099259E+02  0.45530498994E+02  0.41800000000E+01 0. -1.
        -11    1    1    2    0    0 -0.15581579462E+02  0.40181317847E+01 -0.68338286818E+02  0.70207210789E+02  0.00000000000E+00 0. -1.
         11    1    1    2    0    0 -0.19828700009E+02 -0.48924433546E+02  0.70267765200E+01  0.53255545534E+02  0.00000000000E+00 0.  1.
</event>
<event>
 7    1  0.2648915E-009  0.7817059E+02  0.7561462E-02  0.1334325E+00
          2   -1    0    0  501    0  0.00000000000E+00  0.00000000000E+00  0.28642390852E+03  0.28642390852E+03  0.00000000000E+00 0. -1.
         -2   -1    0    0    0  501 -0.00000000000E+00 -0.00000000000E+00 -0.62212903722E+02  0.62212903722E+02  0.00000000000E+00 0.  1.
         25    2    1    2    0    0  0.65273109905E+02  0.15134692164E+02  0.68256422428E+02  0.15746633271E+03  0.12508824465E+03 0.  0.
          5    1    3    3  502    0  0.42424806679E+02  0.20496592330E+02 -0.30229688208E+02  0.56136271412E+02  0.41800000000E+01 0. -1.
         -5    1    3    3    0  502  0.22848303226E+02 -0.53619001661E+01  0.98486110636E+02  0.10133006129E+03  0.41800000000E+01 0. -1.
        -11    1    1    2    0    0 -0.21770156295E+02 -0.31865302624E+02  0.13437707795E+03  0.13980892780E+03  0.00000000000E+00 0. -1.
         11    1    1    2    0    0 -0.43502953611E+02  0.16730610460E+02  0.21577504424E+02  0.51361551733E+02  0.00000000000E+00 0.  1.
</event>
<event>
 7    1  0.2648915E-009  0.1818546E+03  0.7561462E-02  0.1166020E+00
          2   -1    0    0  501    0  0.00000000000E+00  0.00000000000E+00  0.11391851052E+04  0.11391851052E+04  0.00000000000E+00 0. -1.
         -2   -1    0    0    0  501 -0.00000000000E+00 -0.00000000000E+00 -0.33627597224E+02  0.33627597224E+02  0.00000000000E+00 0.  1.
         25    2    1    2    0    0  0.14444066395E+03 -0.33789467551E+01  0.36141030896E+03  0.40882695995E+03  0.12509016378E+03 0.  0.
          5    1    3    3  502    0  0.16487532711E+03  0.11238220440E+02  0.30456162789E+03  0.34653344524E+03  0.41800000000E+01 0. -1.
         -5    1    3    3    0  502 -0.20434663158E+02 -0.14617167195E+02  0.56848681065E+02  0.62293514702E+02  0.41800000000E+01 0. -1.
        -11    1    1    2    0    0 -0.25945358652E+02 -0.39206048697E+02  0.20996027156E+03  0.21515945604E+03  0.00000000000E+00 0.  1.
         11    1    1    2    0    0 -0.11849530530E+03  0.42584995452E+02  0.53418692748E+03  0.54882628646E+03  0.00000000000E+00 0. -1.
</event>
<event>
 7    1  0.2743057E-009  0.1654459E+03  0.7561462E-02  0.1182682E+00
         -2   -1    0    0    0  501 -0.00000000000E+00  0.00000000000E+00  0.34428748671E+02  0.34428748671E+02  0.00000000000E+00 0.  1.
          2   -1    0    0  501    0  0.00000000000E+00 -0.00000000000E+00 -0.12016274654E+04  0.12016274654E+04  0.00000000000E+00 0. -1.
         25    2    1    2    0    0  0.12374994999E+03  0.76973196894E+02 -0.88531873841E+03  0.90591185832E+03  0.12509237912E+03 0.  0.
          5    1    3    3  502    0  0.64576062151E+02  0.89286697147E+02 -0.34469073231E+03  0.36189964829E+03  0.41800000000E+01 0.  1.
         -5    1    3    3    0  502  0.59173887835E+02 -0.12313500254E+02 -0.54062800610E+03  0.54401221004E+03  0.41800000000E+01 0.  1.
        -11    1    1    2    0    0 -0.48249034431E+02  0.50983894915E+01 -0.14883827628E+03  0.15654646398E+03  0.00000000000E+00 0. -1.
         11    1    1    2    0    0 -0.75500915555E+02 -0.82071586385E+02 -0.13304170201E+03  0.17359789173E+03  0.00000000000E+00 0.  1.
</event>
<event>
 7    1  0.2648915E-009  0.7691364E+02  0.7561462E-02  0.1338045E+00
         -2   -1    0    0    0  501 -0.00000000000E+00  0.00000000000E+00  0.48985117983E+02  0.48985117983E+02  0.00000000000E+00 0.  1.
          2   -1    0    0  501    0  0.00000000000E+00 -0.00000000000E+00 -0.32184501412E+03  0.32184501412E+03  0.00000000000E+00 0. -1.
         25    2    1    2    0    0 -0.26397329689E+02  0.49109723266E+02 -0.10903995086E+03  0.17506074532E+03  0.12509184520E+03 0.  0.
          5    1    3    3  502    0 -0.29591687388E+02  0.65336953623E+02 -0.76588900569E+01  0.72254525589E+02  0.41800000000E+01 0. -1.
         -5    1    3    3    0  502  0.31943576989E+01 -0.16227230357E+02 -0.10138106080E+03  0.10280621973E+03  0.41800000000E+01 0. -1.
        -11    1    1    2    0    0  0.28079661502E+02 -0.17119821278E+02 -0.44203568731E+01  0.33182754942E+02  0.00000000000E+00 0.  1.
         11    1    1    2    0    0 -0.16823318131E+01 -0.31989901988E+02 -0.15939958840E+03  0.16258663184E+03  0.00000000000E+00 0. -1.
</event>
<event>
 7    1  0.2648915E-009  0.1278778E+03  0.7561462E-02  0.1230639E+00
          2   -1    0    0  501    0  0.00000000000E+00  0.00000000000E+00  0.11823529486E+04  0.11823529486E+04  0.00000000000E+00 0. -1.
         -2   -1    0    0    0  501 -0.00000000000E+00 -0.00000000000E+00 -0.15983000476E+02  0.15983000476E+02  0.00000000000E+00 0.  1.
         25    2    1    2    0    0 -0.69532313723E+02 -0.44948218945E+02  0.58207056507E+03  0.60108939086E+03  0.12508888059E+03 0.  0.
          5    1    3    3  502    0 -0.23027382152E+02 -0.74505188154E+02  0.19439507556E+03  0.20949511019E+03  0.41800000000E+01 0. -1.
         -5    1    3    3    0  502 -0.46504931571E+02  0.29556969210E+02  0.38767548951E+03  0.39159428068E+03  0.41800000000E+01 0. -1.
        -11    1    1    2    0    0  0.13101606269E+02  0.62063125479E+02  0.25969258722E+03  0.26732699730E+03  0.00000000000E+00 0. -1.
         11    1    1    2    0    0  0.56430707454E+02 -0.17114906534E+02  0.32460679588E+03  0.32991956095E+03  0.00000000000E+00 0.  1.
</event>
<event>
 7    1  0.2648915E-009  0.9082271E+02  0.7561462E-02  0.1300872E+00
          2   -1    0    0  501    0  0.00000000000E+00  0.00000000000E+00  0.36117952182E+03  0.36117952182E+03  0.00000000000E+00 0.  1.
         -2   -1    0    0    0  501 -0.00000000000E+00 -0.00000000000E+00 -0.57360398696E+02  0.57360398696E+02  0.00000000000E+00 0. -1.
         25    2    1    2    0    0  0.18339515916E+02 -0.35262834974E+02  0.40902122935E+02  0.13747684856E+03  0.12508834820E+03 0.  0.
          5    1    3    3  502    0 -0.47203311027E+01 -0.60862748334E+02  0.69433682779E+02  0.92547632950E+02  0.41800000000E+01 0.  1.
         -5    1    3    3    0  502  0.23059847019E+02  0.25599913359E+02 -0.28531559844E+02  0.44929215614E+02  0.41800000000E+01 0.  1.
        -11    1    1    2    0    0  0.21352349358E+02  0.40430960666E+02  0.20882460502E+03  0.21377160959E+03  0.00000000000E+00 0.  1.
         11    1    1    2    0    0 -0.39691865274E+02 -0.51681256914E+01  0.54092395168E+02  0.67291462364E+02  0.00000000000E+00 0. -1.
</event>
<event>
 7    1  0.2648915E-009  0.1464044E+03  0.7561462E-02  0.1204962E+00
         -1   -1    0    0    0  501 -0.00000000000E+00  0.00000000000E+00  0.48784261728E+02  0.48784261728E+02  0.00000000000E+00 0.  1.
          1   -1    0    0  501    0  0.00000000000E+00 -0.00000000000E+00 -0.54376307875E+03  0.54376307875E+03  0.00000000000E+00 0. -1.
         25    2    1    2    0    0  0.95934268132E+02  0.69756683114E+02 -0.30563100835E+03  0.35089893940E+03  0.12510145390E+03 0.  0.
          5    1    3    3  502    0 -0.30562685034E+02  0.13411963442E+02 -0.66911676512E+02  0.74890609115E+02  0.41800000000E+01 0. -1.
         -5    1    3    3    0  502  0.12649695317E+03  0.56344719672E+02 -0.23871933183E+03  0.27600833028E+03  0.41800000000E+01 0. -1.
        -11    1    1    2    0    0 -0.85120376965E+02 -0.51722101061E+02 -0.19577876295E+03  0.21965877705E+03  0.00000000000E+00 0. -1.
         11    1    1    2    0    0 -0.10813891167E+02 -0.18034582053E+02  0.64309542757E+01  0.21989624028E+02  0.00000000000E+00 0.  1.
</event>
<event>
 7    1  0.2648915E-009  0.9388671E+02  0.7561462E-02  0.1293703E+00
          1   -1    0    0  501    0  0.00000000000E+00  0.00000000000E+00  0.50591830481E+03  0.50591830481E+03  0.00000000000E+00 0. -1.
         -1   -1    0    0    0  501 -0.00000000000E+00 -0.00000000000E+00 -0.33818206177E+02  0.33818206177E+02  0.00000000000E+00 0.  1.
         25    2    1    2    0    0  0.32909003745E+02 -0.28332101216E+02  0.14087041357E+03  0.19334234767E+03  0.12510427450E+03 0.  0.
          5    1    3    3  502    0  0.59168414681E+02 -0.17594714385E+02  0.15079760005E+03  0.16299651484E+03  0.41800000000E+01 0. -1.
         -5    1    3    3    0  502 -0.26259410936E+02 -0.10737386830E+02 -0.99271864806E+01  0.30345832829E+02  0.41800000000E+01 0. -1.
        -11    1    1    2    0    0 -0.33594711851E+02  0.58280957969E+02  0.26965207871E+03  0.27791638721E+03  0.00000000000E+00 0. -1.
         11    1    1    2    0    0  0.68570810574E+00 -0.29948856753E+02  0.61577606353E+02  0.68477776107E+02  0.00000000000E+00 0.  1.
</event>
<event>
 7    1  0.2648915E-009  0.2024678E+03  0.7561462E-02  0.1147673E+00
          2   -1    0    0  501    0  0.00000000000E+00  0.00000000000E+00  0.13195244043E+04  0.13195244043E+04  0.00000000000E+00 0.  1.
         -2   -1    0    0    0  501 -0.00000000000E+00 -0.00000000000E+00 -0.57788795200E+02  0.57788795200E+02  0.00000000000E+00 0. -1.
         25    2    1    2    0    0 -0.13457614802E+03 -0.11604517354E+03  0.10968257713E+04  0.11181464009E+04  0.12508948583E+03 0.  0.
          5    1    3    3  502    0 -0.58411017046E+02 -0.11587095008E+03  0.84831432030E+03  0.85819146022E+03  0.41800000000E+01 0.  1.
         -5    1    3    3    0  502 -0.76165130973E+02 -0.17422345850E+00  0.24851145098E+03  0.25995494071E+03  0.41800000000E+01 0.  1.
        -11    1    1    2    0    0  0.44507060138E+01  0.54850752875E+02  0.33868409580E+02  0.64617977703E+02  0.00000000000E+00 0. -1.
         11    1    1    2    0    0  0.13012544201E+03  0.61194420660E+02  0.13104142819E+03  0.19454882081E+03  0.00000000000E+00 0.  1.
</event>
<event>
 7    1  0.2648915E-009  0.1386276E+03  0.7561462E-02  0.1215188E+00
         -3   -1    0    0    0  501 -0.00000000000E+00  0.00000000000E+00  0.96229249094E+02  0.96229249094E+02  0.00000000000E+00 0.  1.
          3   -1    0    0  501    0  0.00000000000E+00 -0.00000000000E+00 -0.35663191706E+03  0.35663191706E+03  0.00000000000E+00 0. -1.
         25    2    1    2    0    0 -0.12453611518E+03  0.26879693715E+02 -0.22849169161E+03  0.28997859803E+03  0.12508945702E+03 0.  0.
          5    1    3    3  502    0 -0.45427144139E+02  0.13399687927E+02 -0.19864629228E+03  0.20425718812E+03  0.41800000000E+01 0.  1.
         -5    1    3    3    0  502 -0.79108971045E+02  0.13480005788E+02 -0.29845399336E+02  0.85721409913E+02  0.41800000000E+01 0.  1.
        -11    1    1    2    0    0  0.42664679812E+02  0.27778350173E+02  0.16049625329E+02  0.53380727936E+02  0.00000000000E+00 0.  1.
         11    1    1    2    0    0  0.81871435373E+02 -0.54658043888E+02 -0.47960601684E+02  0.10950184019E+03  0.00000000000E+00 0. -1.
</event>
<event>
 7    1  0.2648915E-009  0.1156801E+03  0.7561462E-02  0.1250399E+00
          1   -1    0    0  501    0  0.00000000000E+00  0.00000000000E+00  0.13064112820E+04  0.13064112820E+04  0.00000000000E+00 0. -1.
         -1   -1    0    0    0  501 -0.00000000000E+00 -0.00000000000E+00 -0.11104174744E+02  0.11104174744E+02  0.00000000000E+00 0.  1.
         25    2    1    2    0    0 -0.24781268018E+02 -0.43563542147E+02  0.85550143034E+03  0.86604967339E+03  0.12508975186E+03 0.  0.
          5    1    3    3  502    0 -0.61576194358E+02 -0.62612567771E+02  0.45713010004E+03  0.46550763916E+03  0.41800000000E+01 0. -1.
         -5    1    3    3    0  502  0.36794926340E+02  0.19049025624E+02  0.39837133030E+03  0.40054203423E+03  0.41800000000E+01 0. -1.
        -11    1    1    2    0    0 -0.28022073015E+02 -0.67930229668E+01  0.11404771149E+03  0.11763614340E+03  0.00000000000E+00 0.  1.
         11    1    1    2    0    0  0.52803341033E+02  0.50356565114E+02  0.32575796545E+03  0.33382963998E+03  0.00000000000E+00 0. -1.
</event>
<event>
 7    1  0.2648915E-009  0.1016384E+03  0.7561462E-02  0.1276888E+00
         -2   -1    0    0    0  501 -0.00000000000E+00  0.00000000000E+00  0.16345981652E+03  0.16345981652E+03  0.00000000000E+00 0. -1.
          2   -1    0    0  501    0  0.00000000000E+00 -0.00000000000E+00 -0.85635959663E+02  0.85635959663E+02  0.00000000000E+00 0.  1.
         25    2    1    2    0    0  0.34646428290E+02  0.26888138751E+02  0.66133548708E+02  0.14813724280E+03  0.12509056495E+03 0.  0.
          5    1    3    3  502    0 -0.34625003682E+02  0.48500584989E+02  0.33133525441E+02  0.68311789117E+02  0.41800000000E+01 0. -1.
         -5    1    3    3    0  502  0.69271431972E+02 -0.21612446238E+02  0.33000023267E+02  0.79825453681E+02  0.41800000000E+01 0. -1.
        -11    1    1    2    0    0 -0.22491764400E+02 -0.44262774562E+02  0.41271103506E+02  0.64562966648E+02  0.00000000000E+00 0. -1.
         11    1    1    2    0    0 -0.12154663890E+02  0.17374635811E+02 -0.29580795359E+02  0.36395566734E+02  0.00000000000E+00 0.  1.
</event>
<event>
 7    1  0.2648915E-009  0.1001098E+03  0.7561462E-02  0.1280065E+00
         -3   -1    0    0    0  501 -0.00000000000E+00  0.00000000000E+00  0.16345615588E+03  0.16345615588E+03  0.00000000000E+00 0.  1.
          3   -1    0    0  501    0  0.00000000000E+00 -0.00000000000E+00 -0.86243233441E+02  0.86243233441E+02  0.00000000000E+00 0. -1.
         25    2    1    2    0    0  0.35614451137E+02 -0.32686868499E+02  0.42805710300E+02  0.14078728394E+03  0.12510759363E+03 0.  0.
          5    1    3    3  502    0 -0.29162760104E+02  0.29111656063E+02  0.27882332695E+02  0.49928468554E+02  0.41800000000E+01 0.  1.
         -5    1    3    3    0  502  0.64777211242E+02 -0.61798524562E+02  0.14923377605E+02  0.90858815387E+02  0.41800000000E+01 0.  1.
        -11    1    1    2    0    0  0.97049992342E+01  0.19816485828E+02  0.53659068227E+02  0.58018753207E+02  0.00000000000E+00 0.  1.
         11    1    1    2    0    0 -0.45319450371E+02  0.12870382671E+02 -0.19251856092E+02  0.50893352169E+02  0.00000000000E+00 0. -1.
</event>
<event>
 7    1  0.2648915E-009  0.9208344E+02  0.7561462E-02  0.1297883E+00
         -1   -1    0    0    0  501 -0.00000000000E+00  0.00000000000E+00  0.33917960812E+02  0.33917960812E+02  0.00000000000E+00 0.  1.
          1   -1    0    0  501    0  0.00000000000E+00 -0.00000000000E+00 -0.57061555529E+03  0.57061555529E+03  0.00000000000E+00 0. -1.
         25    2    1    2    0    0 -0.37017528647E+02 -0.17511067398E+02 -0.46068417602E+03  0.47911817926E+03  0.12508950698E+03 0.  0.
          5    1    3    3  502    0 -0.60981149583E+02 -0.38156263753E+02 -0.42576002293E+03  0.43181439368E+03  0.41800000000E+01 0.  1.
         -5    1    3    3    0  502  0.23963620936E+02  0.20645196356E+02 -0.34924153085E+02  0.47303785574E+02  0.41800000000E+01 0.  1.
        -11    1    1    2    0    0 -0.53890969491E+01 -0.21754353950E+02 -0.62029316732E+02  0.65954002274E+02  0.00000000000E+00 0. -1.
         11    1    1    2    0    0  0.42406625596E+02  0.39265421348E+02 -0.13984101735E+02  0.59461334575E+02  0.00000000000E+00 0.  1.
</event>
<event>
 7    1  0.2648915E-009  0.1500795E+03  0.7561462E-02  0.1200375E+00
         -2   -1    0    0    0  501 -0.00000000000E+00  0.00000000000E+00  0.40674236939E+02  0.40674236939E+02  0.00000000000E+00 0.  1.
          2   -1    0    0  501    0  0.00000000000E+00 -0.00000000000E+00 -0.58292944953E+03  0.58292944953E+03  0.00000000000E+00 0. -1.
         25    2    1    2    0    0 -0.48525660602E+02 -0.96329606209E+02 -0.32638416866E+03  0.36579758234E+03  0.12508842040E+03 0.  0.
          5    1    3    3  502    0 -0.42600804661E+02 -0.12502294895E+03 -0.29146915716E+03  0.32002704308E+03  0.41800000000E+01 0.  1.
         -5    1    3    3    0  502 -0.59248559405E+01  0.28693342746E+02 -0.34915011500E+02  0.45770539257E+02  0.41800000000E+01 0.  1.
        -11    1    1    2    0    0  0.56824857566E+01 -0.16646162169E+02 -0.46816777515E+02  0.50011958732E+02  0.00000000000E+00 0. -1.
         11    1    1    2    0    0  0.42843174845E+02  0.11297576838E+03 -0.16905426642E+03  0.20779414541E+03  0.00000000000E+00 0.  1.
</event>
<event>
 7    1  0.2648915E-009  0.1056902E+03  0.7561462E-02  0.1268766E+00
         -1   -1    0    0    0  501 -0.00000000000E+00  0.00000000000E+00  0.30297631904E+03  0.30297631904E+03  0.00000000000E+00 0.  1.
          1   -1    0    0  501    0  0.00000000000E+00 -0.00000000000E+00 -0.61185339410E+02  0.61185339410E+02  0.00000000000E+00 0. -1.
         25    2    1    2    0    0  0.75374445578E+02  0.25301229549E+02  0.10672698754E+03  0.18264378801E+03  0.12508654669E+03 0.  0.
          5    1    3    3  502    0  0.31391626082E+02  0.32540528681E+02 -0.18971115349E+02  0.49210728632E+02  0.41800000000E+01 0. -1.
         -5    1    3    3    0  502  0.43982819497E+02 -0.72392991320E+01  0.12569810289E+03  0.13343305937E+03  0.41800000000E+01 0. -1.
        -11    1    1    2    0    0 -0.15064848311E+02 -0.52809536230E+02  0.58200408403E+02  0.80019274614E+02  0.00000000000E+00 0. -1.
         11    1    1    2    0    0 -0.60309597268E+02  0.27508306681E+02  0.76863583684E+02  0.10149859583E+03  0.00000000000E+00 0.  1.
</event>
<event>
 7    1  0.2648915E-009  0.1419203E+03  0.7561462E-02  0.1210768E+00
          1   -1    0    0  501    0  0.00000000000E+00  0.00000000000E+00  0.17209204345E+03  0.17209204345E+03  0.00000000000E+00 0. -1.
         -1   -1    0    0    0  501 -0.00000000000E+00 -0.00000000000E+00 -0.16492821918E+03  0.16492821918E+03  0.00000000000E+00 0.  1.
         25    2    1    2    0    0 -0.35374272444E+02  0.12381295988E+03  0.10993214962E+02  0.17986074096E+03  0.12509215474E+03 0.  0.
          5    1    3    3  502    0 -0.60906425292E+02  0.93260328950E+02 -0.36921818238E+02  0.11742135521E+03  0.41800000000E+01 0.  1.
         -5    1    3    3    0  502  0.25532152848E+02  0.30552630932E+02  0.47915033200E+02  0.62439385747E+02  0.41800000000E+01 0.  1.
        -11    1    1    2    0    0 -0.36331558996E+01 -0.36855470976E+02  0.38015080303E+02  0.53072326999E+02  0.00000000000E+00 0. -1.
         11    1    1    2    0    0  0.39007428343E+02 -0.86957488907E+02 -0.41844470989E+02  0.10408719467E+03  0.00000000000E+00 0.  1.
</event>
<event>
 7    1  0.2648915E-009  0.9172707E+02  0.7561462E-02  0.1298722E+00
          1   -1    0    0  501    0  0.00000000000E+00  0.00000000000E+00  0.44495316310E+03  0.44495316310E+03  0.00000000000E+00 0. -1.
         -1   -1    0    0    0  501 -0.00000000000E+00 -0.00000000000E+00 -0.28673168429E+02  0.28673168429E+02  0.00000000000E+00 0.  1.
         25    2    1    2    0    0 -0.57144463319E+00 -0.36193675044E+01  0.29324114838E+03  0.31882811170E+03  0.12509023676E+03 0.  0.
          5    1    3    3  502    0 -0.61736577030E+02  0.49966912836E+00  0.17419487647E+03  0.18485935735E+03  0.41800000000E+01 0. -1.
         -5    1    3    3    0  502  0.61165132397E+02 -0.41190366328E+01  0.11904627191E+03  0.13396875434E+03  0.41800000000E+01 0. -1.
        -11    1    1    2    0    0  0.30289338737E+02  0.12277387775E+01  0.12119344266E+03  0.12492718650E+03  0.00000000000E+00 0. -1.
         11    1    1    2    0    0 -0.29717894104E+02  0.23916287269E+01  0.18454036320E+01  0.29871033335E+02  0.00000000000E+00 0.  1.
</event>
<event>
 7    1  0.2648915E-009  0.8638371E+02  0.7561462E-02  0.1311853E+00
          3   -1    0    0  501    0  0.00000000000E+00  0.00000000000E+00  0.55642332821E+02  0.55642332821E+02  0.00000000000E+00 0. -1.
         -3   -1    0    0    0  501 -0.00000000000E+00 -0.00000000000E+00 -0.23944096540E+03  0.23944096540E+03  0.00000000000E+00 0.  1.
         25    2    1    2    0    0 -0.56603152453E+01  0.15605988663E+02 -0.56126835876E+02  0.13810694426E+03  0.12509084818E+03 0.  0.
          5    1    3    3  502    0 -0.44223998264E+02  0.80239161204E+01 -0.80054993860E+02  0.91904405195E+02  0.41800000000E+01 0. -1.
         -5    1    3    3    0  502  0.38563683018E+02  0.75820725427E+01  0.23928157984E+02  0.46202539070E+02  0.41800000000E+01 0. -1.
        -11    1    1    2    0    0  0.14092989213E+02 -0.50384089787E+02 -0.54641851883E+02  0.75649856747E+02  0.00000000000E+00 0. -1.
         11    1    1    2    0    0 -0.84326739679E+01  0.34778101124E+02 -0.73029944823E+02  0.81326497213E+02  0.00000000000E+00 0.  1.
</event>
<event>
 7    1  0.2648915E-009  0.1188379E+03  0.7561462E-02  0.1245027E+00
         -2   -1    0    0    0  501 -0.00000000000E+00  0.00000000000E+00  0.56093852312E+02  0.56093852312E+02  0.00000000000E+00 0.  1.
          2   -1    0    0  501    0  0.00000000000E+00 -0.00000000000E+00 -0.25375788080E+03  0.25375788080E+03  0.00000000000E+00 0. -1.
         25    2    1    2    0    0  0.22349652500E+02 -0.53394677322E+02 -0.11833949815E+03  0.18166700797E+03  0.12509263140E+03 0.  0.
          5    1    3    3  502    0  0.43059679807E+02  0.29075429649E+02 -0.53123701097E+02  0.74425242039E+02  0.41800000000E+01 0.  1.
         -5    1    3    3    0  502 -0.20710027307E+02 -0.82470106971E+02 -0.65215797049E+02  0.10724176593E+03  0.41800000000E+01 0.  1.
        -11    1    1    2    0    0  0.16031993021E+02 -0.15022113146E+02 -0.21393231963E+02  0.30665274455E+02  0.00000000000E+00 0.  1.
         11    1    1    2    0    0 -0.38381645521E+02  0.68416790468E+02 -0.57931298381E+02  0.97519450691E+02  0.00000000000E+00 0. -1.
</event>
<event>
 7    1  0.2648915E-009  0.1151357E+03  0.7561462E-02  0.1251344E+00
          1   -1    0    0  501    0  0.00000000000E+00  0.00000000000E+00  0.53909561118E+02  0.53909561118E+02  0.00000000000E+00 0. -1.
         -1   -1    0    0    0  501 -0.00000000000E+00 -0.00000000000E+00 -0.26695358766E+03  0.26695358766E+03  0.00000000000E+00 0.  1.
         25    2    1    2    0    0  0.42231324920E+02  0.30570364890E+02 -0.10261697186E+03  0.16998823024E+03  0.12509086094E+03 0.  0.
          5    1    3    3  502    0  0.15473001369E+02 -0.45223274576E+02 -0.65915259730E+02  0.81528229467E+02  0.41800000000E+01 0.  1.
         -5    1    3    3    0  502  0.26758323552E+02  0.75793639466E+02 -0.36701712133E+02  0.88460000770E+02  0.41800000000E+01 0.  1.
        -11    1    1    2    0    0 -0.18632430755E+02  0.30831491929E+02 -0.49441128236E+02  0.61173307346E+02  0.00000000000E+00 0.  1.
         11    1    1    2    0    0 -0.23598894166E+02 -0.61401856819E+02 -0.60985926440E+02  0.89701611192E+02  0.00000000000E+00 0. -1.
</event>
<event>
 7    1  0.2648915E-009  0.1184780E+03  0.7561462E-02  0.1245629E+00
          1   -1    0    0  501    0  0.00000000000E+00  0.00000000000E+00  0.63217972110E+02  0.63217972110E+02  0.00000000000E+00 0. -1.
         -1   -1    0    0    0  501 -0.00000000000E+00 -0.00000000000E+00 -0.26670828606E+03  0.26670828606E+03  0.00000000000E+00 0.  1.
         25    2    1    2    0    0 -0.12714184634E+02  0.51587921838E+02 -0.17286068755E+03  0.21989177341E+03  0.12509440651E+03 0.  0.
          5    1    3    3  502    0 -0.62626088425E+02  0.56985355640E+02 -0.96962614228E+02  0.12879665627E+03  0.41800000000E+01 0.  1.
         -5    1    3    3    0  502  0.49911903791E+02 -0.53974338026E+01 -0.75898073321E+02  0.91095117134E+02  0.41800000000E+01 0.  1.
        -11    1    1    2    0    0  0.24341421904E+02 -0.73266645102E+02 -0.35470500985E+02  0.84962712674E+02  0.00000000000E+00 0.  1.
         11    1    1    2    0    0 -0.11627237270E+02  0.21678723264E+02  0.48408745863E+01  0.25071772088E+02  0.00000000000E+00 0. -1.
</event>
<event>
 7    1  0.2648915E-009  0.1175705E+03  0.7561462E-02  0.1247160E+00
         -2   -1    0    0    0  501 -0.00000000000E+00  0.00000000000E+00  0.16690834787E+03  0.16690834787E+03  0.00000000000E+00 0.  1.
          2   -1    0    0  501    0  0.00000000000E+00 -0.00000000000E+00 -0.13073437570E+03  0.13073437570E+03  0.00000000000E+00 0. -1.
         25    2    1    2    0    0 -0.66200355411E+02  0.67227497522E+02  0.54029716680E+02  0.16573412243E+03  0.12508623255E+03 0.  0.
          5    1    3    3  502    0 -0.19173580648E+02  0.73129766475E+02  0.81133452385E+02  0.11097611651E+03  0.41800000000E+01 0.  1.
         -5    1    3    3    0  502 -0.47026774763E+02 -0.59022689525E+01 -0.27103735705E+02  0.54758005922E+02  0.41800000000E+01 0.  1.
        -11    1    1    2    0    0  0.39003737235E+02 -0.74148205841E+02 -0.43050848951E+02  0.94194604639E+02  0.00000000000E+00 0. -1.
         11    1    1    2    0    0  0.27196618176E+02  0.69207083186E+01  0.25195104448E+02  0.37713996500E+02  0.00000000000E+00 0.  1.
</event>
<event>
 7    1  0.2648915E-009  0.1081655E+03  0.7561462E-02  0.1264005E+00
          4   -1    0    0  501    0  0.00000000000E+00  0.00000000000E+00  0.19951376402E+03  0.19951376402E+03  0.00000000000E+00 0. -1.
         -4   -1    0    0    0  501 -0.00000000000E+00 -0.00000000000E+00 -0.88840252141E+02  0.88840252141E+02  0.00000000000E+00 0.  1.
         25    2    1    2    0    0  0.19583737425E+02  0.61633939638E+02  0.11185876023E+03  0.17983908373E+03  0.12508976181E+03 0.  0.
          5    1    3    3  502    0  0.27077643731E+02 -0.26638428274E+02  0.14773360887E+01  0.38242117787E+02  0.41800000000E+01 0.  1.
         -5    1    3    3    0  502 -0.74939063056E+01  0.88272367912E+02  0.11038142414E+03  0.14159696594E+03  0.41800000000E+01 0.  1.
        -11    1    1    2    0    0 -0.32883277772E+02 -0.67353195210E+02 -0.26378679173E+02  0.79458149846E+02  0.00000000000E+00 0.  1.
         11    1    1    2    0    0  0.13299540346E+02  0.57192555718E+01  0.25193430826E+02  0.29056782590E+02  0.00000000000E+00 0. -1.
</event>
<event>
 7    1  0.2648915E-009  0.1026073E+03  0.7561462E-02  0.1274907E+00
          1   -1    0    0  501    0  0.00000000000E+00  0.00000000000E+00  0.56187861319E+03  0.56187861319E+03  0.00000000000E+00 0. -1.
         -1   -1    0    0    0  501 -0.00000000000E+00 -0.00000000000E+00 -0.22553996954E+02  0.22553996954E+02  0.00000000000E+00 0.  1.
         25    2    1    2    0    0  0.73226340921E+01  0.30592213319E+01  0.26858801088E+03  0.29639247748E+03  0.12508397703E+03 0.  0.
          5    1    3    3  502    0 -0.14431578787E+02 -0.58024463782E+02  0.11678838323E+03  0.13127112295E+03  0.41800000000E+01 0.  1.
         -5    1    3    3    0  502  0.21754212879E+02  0.61083685114E+02  0.15179962765E+03  0.16512135452E+03  0.41800000000E+01 0.  1.
        -11    1    1    2    0    0 -0.19164842522E+02  0.35293204641E+02  0.21851421357E+03  0.22217417270E+03  0.00000000000E+00 0.  1.
         11    1    1    2    0    0  0.11842208429E+02 -0.38352425973E+02  0.52222391781E+02  0.65865959963E+02  0.00000000000E+00 0. -1.
</event>
<event>
 7    1  0.2648915E-009  0.1047607E+03  0.7561462E-02  0.1270592E+00
          3   -1    0    0  501    0  0.00000000000E+00  0.00000000000E+00  0.39537916794E+03  0.39537916794E+03  0.00000000000E+00 0. -1.
         -3   -1    0    0    0  501 -0.00000000000E+00 -0.00000000000E+00 -0.39588430074E+02  0.39588430074E+02  0.00000000000E+00 0.  1.
         25    2    1    2    0    0  0.39879150995E+01 -0.47120554466E+02  0.12643864697E+03  0.18403863328E+03  0.12508891627E+03 0.  0.
          5    1    3    3  502    0 -0.45571467464E+02 -0.52358350219E+01  0.10648990688E+03  0.11602476151E+03  0.41800000000E+01 0.  1.
         -5    1    3    3    0  502  0.49559382564E+02 -0.41884719444E+02  0.19948740089E+02  0.68013871777E+02  0.41800000000E+01 0.  1.
        -11    1    1    2    0    0  0.11253400805E+02 -0.23572120758E+02  0.35862476780E+02  0.44366667077E+02  0.00000000000E+00 0.  1.
         11    1    1    2    0    0 -0.15241315905E+02  0.70692675223E+02  0.19348961412E+03  0.20656229765E+03  0.00000000000E+00 0. -1.
</event>
<event>
 7    1  0.2648915E-009  0.1570494E+03  0.7561462E-02  0.1192069E+00
          2   -1    0    0  501    0  0.00000000000E+00  0.00000000000E+00  0.34624916229E+03  0.34624916229E+03  0.00000000000E+00 0. -1.
         -2   -1    0    0    0  501 -0.00000000000E+00 -0.00000000000E+00 -0.76078195983E+02  0.76078195983E+02  0.00000000000E+00 0.  1.
         25    2    1    2    0    0 -0.11860589058E+03  0.65064259314E+01  0.16442671649E+03  0.23831392582E+03  0.12509073220E+03 0.  0.
          5    1    3    3  502    0 -0.17012435356E+02  0.54922471165E+02  0.38226634381E+02  0.69171155634E+02  0.41800000000E+01 0.  1.
         -5    1    3    3    0  502 -0.10159345522E+03 -0.48416045234E+02  0.12620008211E+03  0.16914277018E+03  0.41800000000E+01 0.  1.
        -11    1    1    2    0    0  0.98160764943E+02  0.29437980136E+02  0.98286276228E+02  0.14199409334E+03  0.00000000000E+00 0.  1.
         11    1    1    2    0    0  0.20445125635E+02 -0.35944406067E+02  0.74579735849E+01  0.42019339116E+02  0.00000000000E+00 0. -1.
</event>
<event>
 7    1  0.2648915E-009  0.1088296E+03  0.7561462E-02  0.1262753E+00
          2   -1    0    0  501    0  0.00000000000E+00  0.00000000000E+00  0.26129248768E+03  0.26129248768E+03  0.00000000000E+00 0. -1.
         -2   -1    0    0    0  501 -0.00000000000E+00 -0.00000000000E+00 -0.66750719621E+02  0.66750719621E+02  0.00000000000E+00 0.  1.
         25    2    1    2    0    0 -0.34485996789E+02  0.63965942442E+02  0.86732182267E+02  0.16867206502E+03  0.12508744265E+03 0.  0.
          5    1    3    3  502    0  0.44168917553E+02  0.19590149439E+01  0.27570856326E+02  0.52271938321E+02  0.41800000000E+01 0. -1.
         -5    1    3    3    0  502 -0.78654914341E+02  0.62006927498E+02  0.59161325941E+02  0.11640012670E+03  0.41800000000E+01 0. -1.
        -11    1    1    2    0    0  0.34910962961E+01 -0.12004739579E+02 -0.16746090479E+02  0.20898159537E+02  0.00000000000E+00 0.  1.
         11    1    1    2    0    0  0.30994900493E+02 -0.51961202863E+02  0.12455567627E+03  0.13847298275E+03  0.00000000000E+00 0. -1.
</event>
<event>
 7    1  0.2648915E-009  0.6219357E+02  0.7561462E-02  0.1388850E+00
          2   -1    0    0  501    0  0.00000000000E+00  0.00000000000E+00  0.24817181080E+03  0.24817181080E+03  0.00000000000E+00 0. -1.
         -2   -1    0    0    0  501 -0.00000000000E+00 -0.00000000000E+00 -0.54408411179E+02  0.54408411179E+02  0.00000000000E+00 0.  1.
         25    2    1    2    0    0 -0.11701512651E+02  0.52731895581E+01  0.15918159572E+03  0.20285706193E+03  0.12508986862E+03 0.  0.
          5    1    3    3  502    0  0.11483601768E+02  0.13860804937E+02 -0.16874447905E+02  0.25024276517E+02  0.41800000000E+01 0. -1.
         -5    1    3    3    0  502 -0.23185114419E+02 -0.85876153789E+01  0.17605604363E+03  0.17783278541E+03  0.41800000000E+01 0. -1.
        -11    1    1    2    0    0  0.35906822202E+02  0.23742606814E+02 -0.69167877536E+01  0.43598775347E+02  0.00000000000E+00 0.  1.
         11    1    1    2    0    0 -0.24205309551E+02 -0.29015796372E+02  0.41498591654E+02  0.56124384708E+02  0.00000000000E+00 0. -1.
</event>
<event>
 7    1  0.2648915E-009  0.1010853E+03  0.7561462E-02  0.1278030E+00
         -2   -1    0    0    0  501 -0.00000000000E+00  0.00000000000E+00  0.25097887922E+02  0.25097887922E+02  0.00000000000E+00 0.  1.
          2   -1    0    0  501    0  0.00000000000E+00 -0.00000000000E+00 -0.55647567472E+03  0.55647567472E+03  0.00000000000E+00 0. -1.
         25    2    1    2    0    0 -0.52340968529E+02 -0.16786110837E+02 -0.30854284853E+03  0.33744299666E+03  0.12509091140E+03 0.  0.
          5    1    3    3  502    0 -0.44682123987E+02 -0.55124732390E+02 -0.27993290339E+03  0.28881677778E+03  0.41800000000E+01 0. -1.
         -5    1    3    3    0  502 -0.76588445419E+01  0.38338621553E+02 -0.28609945139E+02  0.48626218886E+02  0.41800000000E+01 0. -1.
        -11    1    1    2    0    0  0.96481454475E+01 -0.28166992246E+02 -0.12349043225E+03  0.12702894560E+03  0.00000000000E+00 0. -1.
         11    1    1    2    0    0  0.42692823081E+02  0.44953103084E+02 -0.99344506027E+02  0.11710162039E+03  0.00000000000E+00 0.  1.
</event>
<event>
 7    1  0.2648915E-009  0.1082724E+03  0.7561462E-02  0.1263803E+00
          1   -1    0    0  501    0  0.00000000000E+00  0.00000000000E+00  0.20596134921E+03  0.20596134921E+03  0.00000000000E+00 0. -1.
         -1   -1    0    0    0  501 -0.00000000000E+00 -0.00000000000E+00 -0.60562166788E+02  0.60562166788E+02  0.00000000000E+00 0.  1.
         25    2    1    2    0    0  0.48925190180E+01  0.19488889394E+02  0.11084384674E+03  0.16833801586E+03  0.12509027009E+03 0.  0.
          5    1    3    3  502    0 -0.49353949075E+02  0.42921984575E+02  0.72694567677E+02  0.97877891370E+02  0.41800000000E+01 0.  1.
         -5    1    3    3    0  502  0.54246468094E+02 -0.23433095181E+02  0.38149279066E+02  0.70460124494E+02  0.41800000000E+01 0.  1.
        -11    1    1    2    0    0  0.24500347896E+02  0.27191904496E+02  0.11152899195E+02  0.38262956990E+02  0.00000000000E+00 0.  1.
         11    1    1    2    0    0 -0.29392866914E+02 -0.46680793890E+02  0.23402436485E+02  0.59922543145E+02  0.00000000000E+00 0. -1.
</event>
<event>
 7    1  0.2648915E-009  0.1694503E+03  0.7561462E-02  0.1178422E+00
          1   -1    0    0  501    0  0.00000000000E+00  0.00000000000E+00  0.11513946369E+04  0.11513946369E+04  0.00000000000E+00 0. -1.
         -1   -1    0    0    0  501 -0.00000000000E+00 -0.00000000000E+00 -0.29135672221E+02  0.29135672221E+02  0.00000000000E+00 0.  1.
         25    2    1    2    0    0 -0.13993477988E+03 -0.38493659980E+02  0.67611291388E+03  0.70273725365E+03  0.12508985120E+03 0.  0.
          5    1    3    3  502    0 -0.10762253285E+03 -0.78415524437E+02  0.39285056065E+03  0.41482603517E+03  0.41800000000E+01 0. -1.
         -5    1    3    3    0  502 -0.32312247021E+02  0.39921864456E+02  0.28326235324E+03  0.28791121849E+03  0.41800000000E+01 0. -1.
        -11    1    1    2    0    0  0.78807643184E+02 -0.52440881766E+01  0.12417558617E+03  0.14716562535E+03  0.00000000000E+00 0. -1.
         11    1    1    2    0    0  0.61127136691E+02  0.43737748157E+02  0.32197046464E+03  0.33062743013E+03  0.00000000000E+00 0.  1.
</event>
<event>
 7    1  0.2648915E-009  0.1261406E+03  0.7561462E-02  0.1233297E+00
          1   -1    0    0  501    0  0.00000000000E+00  0.00000000000E+00  0.31556877914E+03  0.31556877914E+03  0.00000000000E+00 0. -1.
         -1   -1    0    0    0  501 -0.00000000000E+00 -0.00000000000E+00 -0.78017536370E+02  0.78017536370E+02  0.00000000000E+00 0.  1.
         25    2    1    2    0    0 -0.87241605156E+02 -0.49996034208E+02  0.62232057215E+02  0.17213528479E+03  0.12508807384E+03 0.  0.
          5    1    3    3  502    0 -0.90851172326E+02  0.40769054398E+01  0.20786009525E+01  0.91062339377E+02  0.41800000000E+01 0. -1.
         -5    1    3    3    0  502  0.36095671701E+01 -0.54072939647E+02  0.60153456263E+02  0.81072945411E+02  0.41800000000E+01 0. -1.
        -11    1    1    2    0    0  0.65222677926E+02  0.53793487280E+02  0.59221345337E+02  0.10322259798E+03  0.00000000000E+00 0.  1.
         11    1    1    2    0    0  0.22018927230E+02 -0.37974530720E+01  0.11609784022E+03  0.11822843275E+03  0.00000000000E+00 0. -1.
</event>
<event>
 7    1  0.2648915E-009  0.1292632E+03  0.7561462E-02  0.1228553E+00
         -2   -1    0    0    0  501 -0.00000000000E+00  0.00000000000E+00  0.17692443164E+03  0.17692443164E+03  0.00000000000E+00 0. -1.
          2   -1    0    0  501    0  0.00000000000E+00 -0.00000000000E+00 -0.12811386770E+03  0.12811386770E+03  0.00000000000E+00 0.  1.
         25    2    1    2    0    0 -0.77227653377E+02  0.33194884479E+02 -0.32199096344E+02  0.15409735918E+03  0.12507279280E+03 0.  0.
          5    1    3    3  502    0 -0.10900167999E+03  0.38739659917E+02 -0.36302537099E+02  0.12131559706E+03  0.41800000000E+01 0.  1.
         -5    1    3    3    0  502  0.31774026611E+02 -0.55447754383E+01  0.41034407554E+01  0.32781762121E+02  0.41800000000E+01 0.  1.
        -11    1    1    2    0    0  0.21294819160E+02  0.22732614335E+02 -0.77027849246E+01  0.32086975132E+02  0.00000000000E+00 0.  1.
         11    1    1    2    0    0  0.55932834217E+02 -0.55927498814E+02  0.88712445205E+02  0.11885396502E+03  0.00000000000E+00 0. -1.
</event>
<event>
 7    1  0.2648915E-009  0.1654174E+03  0.7561462E-02  0.1182713E+00
          2   -1    0    0  501    0  0.00000000000E+00  0.00000000000E+00  0.52029196052E+03  0.52029196052E+03  0.00000000000E+00 0. -1.
         -2   -1    0    0    0  501 -0.00000000000E+00 -0.00000000000E+00 -0.59585581653E+02  0.59585581653E+02  0.00000000000E+00 0.  1.
         25    2    1    2    0    0  0.51687829426E+02 -0.12016263940E+03  0.31794035789E+03  0.36584589490E+03  0.12508579463E+03 0.  0.
          5    1    3    3  502    0  0.30685802010E+02 -0.14420549777E+03  0.24264730483E+03  0.28395779787E+03  0.41800000000E+01 0.  1.
         -5    1    3    3    0  502  0.21002027416E+02  0.24042858377E+02  0.75293053065E+02  0.81888097025E+02  0.41800000000E+01 0.  1.
        -11    1    1    2    0    0 -0.54469929635E+02  0.32481065658E+02  0.27362190007E+02  0.69070125978E+02  0.00000000000E+00 0. -1.
         11    1    1    2    0    0  0.27821002086E+01  0.87681573737E+02  0.11540383097E+03  0.14496152130E+03  0.00000000000E+00 0.  1.
</event>
<event>
 7    1  0.2648915E-009  0.1196743E+03  0.7561462E-02  0.1243635E+00
         -1   -1    0    0    0  501 -0.00000000000E+00  0.00000000000E+00  0.79622198279E+02  0.79622198279E+02  0.00000000000E+00 0.  1.
          1   -1    0    0  501    0  0.00000000000E+00 -0.00000000000E+00 -0.26275135682E+03  0.26275135682E+03  0.00000000000E+00 0. -1.
         25    2    1    2    0    0 -0.58287060385E+02  0.66049581703E+02 -0.14449593099E+03  0.21044282617E+03  0.12508868998E+03 0.  0.
          5    1    3    3  502    0  0.32221346488E+02  0.42230857240E+02 -0.82125848366E+02  0.97896822433E+02  0.41800000000E+01 0. -1.
         -5    1    3    3    0  502 -0.90508406873E+02  0.23818724463E+02 -0.62370082624E+02  0.11254600373E+03  0.41800000000E+01 0. -1.
        -11    1    1    2    0    0 -0.28719737741E+00 -0.14059608666E+02  0.26543874264E+02  0.30038847167E+02  0.00000000000E+00 0.  1.
         11    1    1    2    0    0  0.58574257762E+02 -0.51989973037E+02 -0.65177101818E+02  0.10189188177E+03  0.00000000000E+00 0. -1.
</event>
<event>
 7    1  0.2648915E-009  0.9075617E+02  0.7561462E-02  0.1301031E+00
         -2   -1    0    0    0  501 -0.00000000000E+00  0.00000000000E+00  0.23316360391E+02  0.23316360391E+02  0.00000000000E+00 0.  1.
          2   -1    0    0  501    0  0.00000000000E+00 -0.00000000000E+00 -0.67403792839E+03  0.67403792839E+03  0.00000000000E+00 0. -1.
         25    2    1    2    0    0  0.43853465084E+02 -0.19205778784E+02 -0.42931779426E+03  0.44972584374E+03  0.12509027829E+03 0.  0.
          5    1    3    3  502    0  0.59875382398E+02 -0.27118573631E+02 -0.99052287708E+02  0.11895085772E+03  0.41800000000E+01 0.  1.
         -5    1    3    3    0  502 -0.16021917314E+02  0.79127948472E+01 -0.33026550655E+03  0.33077498602E+03  0.41800000000E+01 0.  1.
        -11    1    1    2    0    0 -0.50807063881E+02 -0.22103611965E+02 -0.63555798955E+02  0.84316469227E+02  0.00000000000E+00 0. -1.
         11    1    1    2    0    0  0.69535987965E+01  0.41309390749E+02 -0.15784797479E+03  0.16331197582E+03  0.00000000000E+00 0.  1.
</event>
<event>
 7    1  0.2648915E-009  0.6735024E+02  0.7561462E-02  0.1369343E+00
          3   -1    0    0  501    0  0.00000000000E+00  0.00000000000E+00  0.23644120283E+03  0.23644120283E+03  0.00000000000E+00 0. -1.
         -3   -1    0    0    0  501 -0.00000000000E+00 -0.00000000000E+00 -0.65901004836E+02  0.65901004836E+02  0.00000000000E+00 0.  1.
         25    2    1    2    0    0 -0.16234773883E+02  0.24824744255E+02  0.30418433200E+02  0.13211464756E+03  0.12509661551E+03 0.  0.
          5    1    3    3  502    0 -0.14142866418E+02 -0.45436119444E+01 -0.46847405401E+02  0.49323593470E+02  0.41800000000E+01 0. -1.
         -5    1    3    3    0  502 -0.20919074651E+01  0.29368356199E+02  0.77265838601E+02  0.82791054091E+02  0.41800000000E+01 0. -1.
        -11    1    1    2    0    0 -0.15298612714E+02 -0.48011672603E+02  0.45748221175E+02  0.68059297659E+02  0.00000000000E+00 0.  1.
         11    1    1    2    0    0  0.31533386597E+02  0.23186928348E+02  0.94373543622E+02  0.10216826245E+03  0.00000000000E+00 0. -1.
</event>
<event>
 7    1  0.2648915E-009  0.1328621E+03  0.7561462E-02  0.1223270E+00
         -1   -1    0    0    0  501 -0.00000000000E+00  0.00000000000E+00  0.14729087620E+03  0.14729087620E+03  0.00000000000E+00 0.  1.
          1   -1    0    0  501    0  0.00000000000E+00 -0.00000000000E+00 -0.16390834613E+03  0.16390834613E+03  0.00000000000E+00 0. -1.
         25    2    1    2    0    0 -0.52640015326E+02  0.93919041979E+02  0.20273055038E+02  0.16628314283E+03  0.12508928479E+03 0.  0.
          5    1    3    3  502    0  0.24040459334E+02 -0.88999734935E+00 -0.26116485263E+02  0.35753027603E+02  0.41800000000E+01 0.  1.
         -5    1    3    3    0  502 -0.76680474660E+02  0.94809039328E+02  0.46389540301E+02  0.13053011523E+03  0.41800000000E+01 0.  1.
        -11    1    1    2    0    0  0.29734905494E+02 -0.91565433089E+02  0.57625089542E+01  0.96444801057E+02  0.00000000000E+00 0.  1.
         11    1    1    2    0    0  0.22905109832E+02 -0.23536088897E+01 -0.42653033924E+02  0.48471278445E+02  0.00000000000E+00 0. -1.
</event>
<event>
 7    1  0.2648915E-009  0.1762234E+03  0.7561462E-02  0.1171509E+00
         -2   -1    0    0    0  501 -0.00000000000E+00  0.00000000000E+00  0.97683977983E+02  0.97683977983E+02  0.00000000000E+00 0. -1.
          2   -1    0    0  501    0  0.00000000000E+00 -0.00000000000E+00 -0.37189727600E+03  0.37189727600E+03  0.00000000000E+00 0.  1.
         25    2    1    2    0    0 -0.12607106665E+03 -0.87636971159E+02 -0.11453980688E+03  0.22878004970E+03  0.12508713452E+03 0.  0.
          5    1    3    3  502    0 -0.84355641195E+02 -0.10396991831E+03 -0.12430113117E+03  0.18273987448E+03  0.41800000000E+01 0.  1.
         -5    1    3    3    0  502 -0.41715425450E+02  0.16332947149E+02  0.97613242856E+01  0.46040175226E+02  0.41800000000E+01 0.  1.
        -11    1    1    2    0    0  0.28418315143E+02  0.68267457840E+02 -0.10122131958E+03  0.12535470463E+03  0.00000000000E+00 0.  1.
         11    1    1    2    0    0  0.97652751502E+02  0.19369513319E+02 -0.58452171558E+02  0.11544649965E+03  0.00000000000E+00 0. -1.
</event>
<event>
 7    1  0.2648915E-009  0.1070004E+03  0.7561462E-02  0.1266228E+00
         -2   -1    0    0    0  501 -0.00000000000E+00  0.00000000000E+00  0.14666771810E+03  0.14666771810E+03  0.00000000000E+00 0. -1.
          2   -1    0    0  501    0  0.00000000000E+00 -0.00000000000E+00 -0.20198563834E+03  0.20198563834E+03  0.00000000000E+00 0.  1.
         25    2    1    2    0    0 -0.59785171659E+02  0.48263366846E+02 -0.13961625533E+03  0.20259593266E+03  0.12509513918E+03 0.  0.
          5    1    3    3  502    0 -0.49245948227E+02 -0.29396149006E+02 -0.22791290919E+02  0.61856384754E+02  0.41800000000E+01 0.  1.
         -5    1    3    3    0  502 -0.10539223432E+02  0.77659515851E+02 -0.11682496441E+03  0.14073954790E+03  0.41800000000E+01 0.  1.
        -11    1    1    2    0    0  0.32829791625E+02 -0.34944872127E+02  0.10089961370E+03  0.11171244940E+03  0.00000000000E+00 0. -1.
         11    1    1    2    0    0  0.26955380035E+02 -0.13318494719E+02 -0.16601278608E+02  0.34344974389E+02  0.00000000000E+00 0.  1.
</event>
<event>
 7    1  0.3308323E-009  0.1000416E+03  0.7561462E-02  0.1280209E+00
         -2   -1    0    0    0  501 -0.00000000000E+00  0.00000000000E+00  0.50951070618E+02  0.50951070618E+02  0.00000000000E+00 0.  1.
          2   -1    0    0  501    0  0.00000000000E+00 -0.00000000000E+00 -0.34692857852E+03  0.34692857852E+03  0.00000000000E+00 0. -1.
         25    2    1    2    0    0  0.24386554781E+02  0.40149793523E+02 -0.25373419482E+03  0.28676600314E+03  0.12508792492E+03 0.  0.
          5    1    3    3  502    0  0.45313139138E+02 -0.32566452246E+02 -0.13198944373E+03  0.14336157102E+03  0.41800000000E+01 0.  1.
         -5    1    3    3    0  502 -0.20926584357E+02  0.72716245769E+02 -0.12174475109E+03  0.14340443212E+03  0.41800000000E+01 0.  1.
        -11    1    1    2    0    0 -0.16512157548E+02  0.88357432977E+01  0.22673851002E+02  0.29407910939E+02  0.00000000000E+00 0.  1.
         11    1    1    2    0    0 -0.78743972325E+01 -0.48985536821E+02 -0.64917164083E+02  0.81705735062E+02  0.00000000000E+00 0. -1.
</event>
<event>
 7    1  0.2648915E-009  0.8097978E+02  0.7561462E-02  0.1326294E+00
         -2   -1    0    0    0  501 -0.00000000000E+00  0.00000000000E+00  0.29917689051E+02  0.29917689051E+02  0.00000000000E+00 0.  1.
          2   -1    0    0  501    0  0.00000000000E+00 -0.00000000000E+00 -0.46355805574E+03  0.46355805574E+03  0.00000000000E+00 0. -1.
         25    2    1    2    0    0 -0.30302155858E+01 -0.16359234438E+02 -0.32603091693E+03  0.34960013417E+03  0.12508912128E+03 0.  0.
          5    1    3    3  502    0 -0.41914070001E+02 -0.27993367704E+02 -0.29235105051E+03  0.29669349004E+03  0.41800000000E+01 0. -1.
         -5    1    3    3    0  502  0.38883854415E+02  0.11634133266E+02 -0.33679866418E+02  0.52906644128E+02  0.41800000000E+01 0. -1.
        -11    1    1    2    0    0  0.34593875609E+02 -0.90483008069E+00 -0.10168786907E+03  0.10741497876E+03  0.00000000000E+00 0. -1.
         11    1    1    2    0    0 -0.31563660024E+02  0.17264064519E+02 -0.59215806976E+01  0.36460631862E+02  0.00000000000E+00 0.  1.
</event>
<event>
 7    1  0.2648915E-009  0.1022526E+03  0.7561462E-02  0.1275629E+00
         -2   -1    0    0    0  501 -0.00000000000E+00  0.00000000000E+00  0.26041256748E+02  0.26041256748E+02  0.00000000000E+00 0.  1.
          2   -1    0    0  501    0  0.00000000000E+00 -0.00000000000E+00 -0.52046006434E+03  0.52046006434E+03  0.00000000000E+00 0. -1.
         25    2    1    2    0    0 -0.17648034183E+02 -0.20613585891E+02 -0.35747713166E+03  0.37970844474E+03  0.12510887383E+03 0.  0.
          5    1    3    3  502    0  0.27554592320E+02  0.34843713982E+02 -0.66830432136E+02  0.80356200890E+02  0.41800000000E+01 0.  1.
         -5    1    3    3    0  502 -0.45202626503E+02 -0.55457299873E+02 -0.29064669952E+03  0.29935224385E+03  0.41800000000E+01 0.  1.
        -11    1    1    2    0    0 -0.32707022731E+02 -0.25204116577E+01 -0.22918171344E+02  0.40016801329E+02  0.00000000000E+00 0.  1.
         11    1    1    2    0    0  0.50355056913E+02  0.23133997549E+02 -0.11402350459E+03  0.12677607502E+03  0.00000000000E+00 0. -1.
</event>
<event>
 7    1  0.2648915E-009  0.1740288E+03  0.7561462E-02  0.1173710E+00
          2   -1    0    0  501    0  0.00000000000E+00  0.00000000000E+00  0.32836844779E+03  0.32836844779E+03  0.00000000000E+00 0. -1.
         -2   -1    0    0    0  501 -0.00000000000E+00 -0.00000000000E+00 -0.14282699579E+03  0.14282699579E+03  0.00000000000E+00 0.  1.
         25    2    1    2    0    0 -0.70104655055E+02  0.12597650291E+03  0.22538256114E+03  0.29534627095E+03  0.12508948377E+03 0.  0.
          5    1    3    3  502    0 -0.22379110937E+02  0.12989282360E+03  0.11508083246E+03  0.17502582846E+03  0.41800000000E+01 0. -1.
         -5    1    3    3    0  502 -0.47725544118E+02 -0.39163206923E+01  0.11030172868E+03  0.12032044248E+03  0.41800000000E+01 0. -1.
        -11    1    1    2    0    0 -0.40282919330E+01 -0.81635604738E+02 -0.36194741138E+02  0.89390482620E+02  0.00000000000E+00 0.  1.
         11    1    1    2    0    0  0.74132946988E+02 -0.44340898173E+02 -0.36463680043E+01  0.86458690017E+02  0.00000000000E+00 0. -1.
</event>
<event>
 7    1  0.2648915E-009  0.9216944E+02  0.7561462E-02  0.1297682E+00
         -1   -1    0    0    0  501 -0.00000000000E+00  0.00000000000E+00  0.35579979272E+03  0.35579979272E+03  0.00000000000E+00 0.  1.
          1   -1    0    0  501    0  0.00000000000E+00 -0.00000000000E+00 -0.37229952457E+02  0.37229952457E+02  0.00000000000E+00 0. -1.
         25    2    1    2    0    0  0.22662163476E+02  0.63415118362E+00  0.24131829304E+03  0.27275665217E+03  0.12509075484E+03 0.  0.
          5    1    3    3  502    0  0.26442224435E+02  0.42510075486E+02  0.32791635751E+02  0.59992178875E+02  0.41800000000E+01 0. -1.
         -5    1    3    3    0  502 -0.37800609586E+01 -0.41875924303E+02  0.20852665729E+03  0.21276447330E+03  0.41800000000E+01 0. -1.
        -11    1    1    2    0    0  0.91024185057E+01 -0.40138259498E+02  0.39742753056E+02  0.57213812307E+02  0.00000000000E+00 0.  1.
         11    1    1    2    0    0 -0.31764581982E+02  0.39504108315E+02  0.37508794163E+02  0.63059280695E+02  0.00000000000E+00 0. -1.
</event>
<event>
 7    1  0.2648915E-009  0.1577208E+03  0.7561462E-02  0.1191294E+00
          1   -1    0    0  501    0  0.00000000000E+00  0.00000000000E+00  0.15056317411E+04  0.15056317411E+04  0.00000000000E+00 0. -1.
         -1   -1    0    0    0  501 -0.00000000000E+00 -0.00000000000E+00 -0.44261328753E+02  0.44261328753E+02  0.00000000000E+00 0.  1.
         25    2    1    2    0    0  0.91737774491E+02 -0.11926120605E+03  0.12904819030E+04  0.13052323004E+04  0.12509501007E+03 0.  0.
          5    1    3    3  502    0 -0.68639091479E+01 -0.12088571303E+02  0.13051570826E+02  0.19520827492E+02  0.41800000000E+01 0. -1.
         -5    1    3    3    0  502  0.98601683639E+02 -0.10717263474E+03  0.12774303321E+04  0.12857114729E+04  0.41800000000E+01 0. -1.
        -11    1    1    2    0    0 -0.79420899175E+02  0.74801522216E+02  0.16548299620E+03  0.19821092045E+03  0.00000000000E+00 0. -1.
         11    1    1    2    0    0 -0.12316875316E+02  0.44459683831E+02  0.54055132060E+01  0.46449849051E+02  0.00000000000E+00 0.  1.
</event>
<event>
 7    1  0.2648915E-009  0.9749244E+02  0.7561462E-02  0.1285659E+00
          2   -1    0    0  501    0  0.00000000000E+00  0.00000000000E+00  0.61552545386E+02  0.61552545386E+02  0.00000000000E+00 0. -1.
         -2   -1    0    0    0  501 -0.00000000000E+00 -0.00000000000E+00 -0.25733329310E+03  0.25733329310E+03  0.00000000000E+00 0.  1.
         25    2    1    2    0    0  0.20445949304E+02 -0.16760615170E+02 -0.18159722190E+03  0.22208878745E+03  0.12508766304E+03 0.  0.
          5    1    3    3  502    0  0.80963756070E+01 -0.64208776111E+02 -0.50919238592E+02  0.82453377653E+02  0.41800000000E+01 0.  1.
         -5    1    3    3    0  502  0.12349573697E+02  0.47448160941E+02 -0.13067798331E+03  0.13963540979E+03  0.41800000000E+01 0.  1.
        -11    1    1    2    0    0  0.39647054674E+01  0.44098136330E+02 -0.33356614463E+02  0.55434900971E+02  0.00000000000E+00 0.  1.
         11    1    1    2    0    0 -0.24410654772E+02 -0.27337521160E+02  0.19173088650E+02  0.41362150065E+02  0.00000000000E+00 0. -1.
</event>
<event>
 7    1  0.2812402E-009  0.9544826E+02  0.7561462E-02  0.1290170E+00
         -2   -1    0    0    0  501 -0.00000000000E+00  0.00000000000E+00  0.14096930048E+02  0.14096930048E+02  0.00000000000E+00 0. -1.
          2   -1    0    0  501    0  0.00000000000E+00 -0.00000000000E+00 -0.10486163121E+04  0.10486163121E+04  0.00000000000E+00 0.  1.
         25    2    1    2    0    0  0.99636776630E+01 -0.42851072101E+02 -0.72903894135E+03  0.74099972235E+03  0.12508925323E+03 0.  0.
          5    1    3    3  502    0 -0.11748859173E+02  0.25317749249E+02 -0.50477855891E+03  0.50556689968E+03  0.41800000000E+01 0. -1.
         -5    1    3    3    0  502  0.21712536836E+02 -0.68168821350E+02 -0.22426038244E+03  0.23543282267E+03  0.41800000000E+01 0. -1.
        -11    1    1    2    0    0  0.32163818245E+02  0.36089969468E+02 -0.22984347641E+03  0.23487234991E+03  0.00000000000E+00 0.  1.
         11    1    1    2    0    0 -0.42127495908E+02  0.67611026331E+01 -0.75636964290E+02  0.86841169887E+02  0.00000000000E+00 0. -1.
</event>
<event>
 7    1  0.2648915E-009  0.7552077E+02  0.7561462E-02  0.1342266E+00
          2   -1    0    0  501    0  0.00000000000E+00  0.00000000000E+00  0.23402959644E+03  0.23402959644E+03  0.00000000000E+00 0. -1.
         -2   -1    0    0    0  501 -0.00000000000E+00 -0.00000000000E+00 -0.63255328954E+02  0.63255328954E+02  0.00000000000E+00 0.  1.
         25    2    1    2    0    0  0.18115852497E+02  0.51369171030E+02  0.10857125724E+03  0.17436255354E+03  0.12509039266E+03 0.  0.
          5    1    3    3  502    0  0.41665030525E+01 -0.11249370068E+02 -0.23927388307E+02  0.27090595892E+02  0.41800000000E+01 0. -1.
         -5    1    3    3    0  502  0.13949349444E+02  0.62618541098E+02  0.13249864554E+03  0.14727195765E+03  0.41800000000E+01 0. -1.
        -11    1    1    2    0    0  0.24303367557E+01 -0.53351555581E+02 -0.40190085384E+01  0.53557888768E+02  0.00000000000E+00 0.  1.
         11    1    1    2    0    0 -0.20546189252E+02  0.19823845504E+01  0.66222018785E+02  0.69364483082E+02  0.00000000000E+00 0. -1.
</event>
<event>
 7    1  0.2648915E-009  0.1068358E+03  0.7561462E-02  0.1266544E+00
         -1   -1    0    0    0  501 -0.00000000000E+00  0.00000000000E+00  0.47307855859E+02  0.47307855859E+02  0.00000000000E+00 0.  1.
          1   -1    0    0  501    0  0.00000000000E+00 -0.00000000000E+00 -0.29079506462E+03  0.29079506462E+03  0.00000000000E+00 0. -1.
         25    2    1    2    0    0 -0.27576406558E+01 -0.18233742078E+02 -0.19740819935E+03  0.23442709284E+03  0.12508393483E+03 0.  0.
          5    1    3    3  502    0 -0.58624088508E+01 -0.69370834073E+02 -0.14562222259E+03  0.16146202207E+03  0.41800000000E+01 0. -1.
         -5    1    3    3    0  502  0.31047681950E+01  0.51137091995E+02 -0.51785976761E+02  0.72965070769E+02  0.41800000000E+01 0. -1.
        -11    1    1    2    0    0  0.28828898351E+02  0.46096162220E+02 -0.31450331733E+02  0.62809910983E+02  0.00000000000E+00 0.  1.
         11    1    1    2    0    0 -0.26071257696E+02 -0.27862420142E+02 -0.14628677677E+02  0.40865916662E+02  0.00000000000E+00 0. -1.
</event>
<event>
 7    1  0.2648915E-009  0.6205684E+02  0.7561462E-02  0.1389397E+00
         -1   -1    0    0    0  501 -0.00000000000E+00  0.00000000000E+00  0.11033078068E+03  0.11033078068E+03  0.00000000000E+00 0.  1.
          1   -1    0    0  501    0  0.00000000000E+00 -0.00000000000E+00 -0.18547944391E+03  0.18547944391E+03  0.00000000000E+00 0. -1.
         25    2    1    2    0    0 -0.11407082171E+02 -0.22358314603E+02  0.52107952367E+02  0.13781074070E+03  0.12508615350E+03 0.  0.
          5    1    3    3  502    0  0.27153359851E+02 -0.29234388923E+02 -0.27740490255E+02  0.48774600423E+02  0.41800000000E+01 0.  1.
         -5    1    3    3    0  502 -0.38560442021E+02  0.68760743201E+01  0.79848442622E+02  0.89036140281E+02  0.41800000000E+01 0.  1.
        -11    1    1    2    0    0 -0.67325049539E+01  0.25342448877E+02 -0.13538377672E+03  0.13789972203E+03  0.00000000000E+00 0. -1.
         11    1    1    2    0    0  0.18139587124E+02 -0.29841342746E+01  0.81271611216E+01  0.20099761847E+02  0.00000000000E+00 0.  1.
</event>
<event>
 7    1  0.2648915E-009  0.1156777E+03  0.7561462E-02  0.1250403E+00
         -1   -1    0    0    0  501 -0.00000000000E+00  0.00000000000E+00  0.33044301642E+02  0.33044301642E+02  0.00000000000E+00 0.  1.
          1   -1    0    0  501    0  0.00000000000E+00 -0.00000000000E+00 -0.68583530202E+03  0.68583530202E+03  0.00000000000E+00 0. -1.
         25    2    1    2    0    0  0.81100136463E+02  0.28186392094E+02 -0.21003927869E+03  0.25910623350E+03  0.12509131389E+03 0.  0.
          5    1    3    3  502    0  0.16157667111E+02 -0.20627063781E+02 -0.16298014931E+03  0.16512585332E+03  0.41800000000E+01 0.  1.
         -5    1    3    3    0  502  0.64942469352E+02  0.48813455875E+02 -0.47059129383E+02  0.93980380177E+02  0.41800000000E+01 0.  1.
        -11    1    1    2    0    0 -0.53166587959E+02 -0.60644022430E+02 -0.30778705270E+03  0.31817802146E+03  0.00000000000E+00 0. -1.
         11    1    1    2    0    0 -0.27933548504E+02  0.32457630337E+02 -0.13496466898E+03  0.14159534870E+03  0.00000000000E+00 0.  1.
</event>
<event>
 7    1  0.2648915E-009  0.2134630E+03  0.7561462E-02  0.1138853E+00
          1   -1    0    0  501    0  0.00000000000E+00  0.00000000000E+00  0.71127116147E+03  0.71127116147E+03  0.00000000000E+00 0. -1.
         -1   -1    0    0    0  501 -0.00000000000E+00 -0.00000000000E+00 -0.67413862164E+02  0.67413862164E+02  0.00000000000E+00 0.  1.
         25    2    1    2    0    0 -0.46119694982E+02 -0.17853339136E+03  0.24981917065E+03  0.33474996990E+03  0.12508687473E+03 0.  0.
          5    1    3    3  502    0  0.40037892148E+02 -0.27238148122E+02  0.51448195473E+02  0.70776682165E+02  0.41800000000E+01 0. -1.
         -5    1    3    3    0  502 -0.86157587130E+02 -0.15129524324E+03  0.19837097518E+03  0.26397328774E+03  0.41800000000E+01 0. -1.
        -11    1    1    2    0    0  0.72578760803E+02  0.13121332458E+03  0.30002995458E+03  0.33541405264E+03  0.00000000000E+00 0. -1.
         11    1    1    2    0    0 -0.26459065821E+02  0.47320066775E+02  0.94008174085E+02  0.10852100109E+03  0.00000000000E+00 0.  1.
</event>
<event>
 7    1  0.2648915E-009  0.1173236E+03  0.7561462E-02  0.1247579E+00
          2   -1    0    0  501    0  0.00000000000E+00  0.00000000000E+00  0.48068025932E+03  0.48068025932E+03  0.00000000000E+00 0. -1.
         -2   -1    0    0    0  501 -0.00000000000E+00 -0.00000000000E+00 -0.58538932195E+02  0.58538932195E+02  0.00000000000E+00 0.  1.
         25    2    1    2    0    0  0.34562170004E+02 -0.99612097935E+02  0.10940496328E+03  0.19680928875E+03  0.12508931407E+03 0.  0.
          5    1    3    3  502    0 -0.13023004674E+02 -0.25104597872E+02 -0.23584566702E+02  0.37061350105E+02  0.41800000000E+01 0. -1.
         -5    1    3    3    0  502  0.47585174678E+02 -0.74507500062E+02  0.13298952998E+03  0.15974793864E+03  0.41800000000E+01 0. -1.
        -11    1    1    2    0    0 -0.47711950919E+02  0.87561736511E+02  0.30830709673E+03  0.32403202597E+03  0.00000000000E+00 0. -1.
         11    1    1    2    0    0  0.13149780915E+02  0.12050361424E+02  0.44292671171E+01  0.18377876802E+02  0.00000000000E+00 0.  1.
</event>
<event>
 7    1  0.2648915E-009  0.1864644E+03  0.7561462E-02  0.1161689E+00
          2   -1    0    0  501    0  0.00000000000E+00  0.00000000000E+00  0.17124489663E+03  0.17124489663E+03  0.00000000000E+00 0. -1.
         -2   -1    0    0    0  501 -0.00000000000E+00 -0.00000000000E+00 -0.27569466275E+03  0.27569466275E+03  0.00000000000E+00 0.  1.
         25    2    1    2    0    0  0.11020986072E+03  0.14665312417E+03 -0.93039740255E+02  0.24074144664E+03  0.12508676443E+03 0.  0.
          5    1    3    3  502    0  0.99825073534E+01  0.93207770850E+01 -0.67224655005E+02  0.68725206287E+02  0.41800000000E+01 0.  1.
         -5    1    3    3    0  502  0.10022735337E+03  0.13733234708E+03 -0.25815085249E+02  0.17201624035E+03  0.41800000000E+01 0.  1.
        -11    1    1    2    0    0 -0.73433070162E+02 -0.12744440675E+03  0.27131542130E+02  0.14956808878E+03  0.00000000000E+00 0. -1.
         11    1    1    2    0    0 -0.36776790562E+02 -0.19208717420E+02 -0.38541568000E+02  0.56630023952E+02  0.00000000000E+00 0.  1.
</event>
<event>
 7    1  0.2648915E-009  0.9668452E+02  0.7561462E-02  0.1287427E+00
          1   -1    0    0  501    0  0.00000000000E+00  0.00000000000E+00  0.18180712509E+03  0.18180712509E+03  0.00000000000E+00 0. -1.
         -1   -1    0    0    0  501 -0.00000000000E+00 -0.00000000000E+00 -0.84905041383E+02  0.84905041383E+02  0.00000000000E+00 0.  1.
         25    2    1    2    0    0  0.18474347649E+02  0.32891417637E+02  0.54337465337E+01  0.13076622322E+03  0.12508849930E+03 0.  0.
          5    1    3    3  502    0  0.17242247605E+02  0.75954320221E+02  0.26829075129E+02  0.82484092618E+02  0.41800000000E+01 0.  1.
         -5    1    3    3    0  502  0.12321000449E+01 -0.43062902584E+02 -0.21395328596E+02  0.48282130600E+02  0.41800000000E+01 0.  1.
        -11    1    1    2    0    0  0.93733447612E+01 -0.41808844258E+02  0.32064430498E+01  0.42966502385E+02  0.00000000000E+00 0.  1.
         11    1    1    2    0    0 -0.27847692411E+02  0.89174266211E+01  0.88261894124E+02  0.92979440870E+02  0.00000000000E+00 0. -1.
</event>
<event>
 7    1  0.2648915E-009  0.8265131E+02  0.7561462E-02  0.1321691E+00
          2   -1    0    0  501    0  0.00000000000E+00  0.00000000000E+00  0.52615225089E+03  0.52615225089E+03  0.00000000000E+00 0.  1.
         -2   -1    0    0    0  501 -0.00000000000E+00 -0.00000000000E+00 -0.25817536600E+02  0.25817536600E+02  0.00000000000E+00 0. -1.
         25    2    1    2    0    0  0.30319170917E+02  0.17623488836E+02  0.25555210985E+03  0.28668001203E+03  0.12509479990E+03 0.  0.
          5    1    3    3  502    0 -0.12690559801E+02 -0.29738812049E+02  0.19755393288E+03  0.20022606236E+03  0.41800000000E+01 0.  1.
         -5    1    3    3    0  502  0.43009730718E+02  0.47362300885E+02  0.57998176968E+02  0.86453949668E+02  0.41800000000E+01 0.  1.
        -11    1    1    2    0    0 -0.97931336679E+01  0.21934129870E+02  0.95126273262E+01  0.25836052307E+02  0.00000000000E+00 0. -1.
         11    1    1    2    0    0 -0.20526037249E+02 -0.39557618706E+02  0.23526997711E+03  0.23945372316E+03  0.00000000000E+00 0.  1.
</event>
<event>
 7    1  0.2648915E-009  0.7906545E+02  0.7561462E-02  0.1331725E+00
          2   -1    0    0  501    0  0.00000000000E+00  0.00000000000E+00  0.21807810646E+03  0.21807810646E+03  0.00000000000E+00 0. -1.
         -2   -1    0    0    0  501 -0.00000000000E+00 -0.00000000000E+00 -0.55750674912E+02  0.55750674912E+02  0.00000000000E+00 0.  1.
         25    2    1    2    0    0  0.92396105135E+01  0.40258563416E+01  0.93981720698E+02  0.15678640732E+03  0.12509130974E+03 0.  0.
          5    1    3    3  502    0  0.38915003803E+02  0.48698505086E+02  0.20572054162E+02  0.65776924002E+02  0.41800000000E+01 0.  1.
         -5    1    3    3    0  502 -0.29675393290E+02 -0.44672648745E+02  0.73409666535E+02  0.91009483317E+02  0.41800000000E+01 0.  1.
        -11    1    1    2    0    0 -0.16760834644E+02 -0.18858076421E+02  0.87855550859E+02  0.91406512027E+02  0.00000000000E+00 0. -1.
         11    1    1    2    0    0  0.75212241305E+01  0.14832220079E+02 -0.19509840006E+02  0.25635862029E+02  0.00000000000E+00 0.  1.
</event>
<event>
 7    1  0.2648915E-009  0.1225117E+03  0.7561462E-02  0.1239010E+00
         -1   -1    0    0    0  501 -0.00000000000E+00  0.00000000000E+00  0.14350216014E+02  0.14350216014E+02  0.00000000000E+00 0.  1.
          1   -1    0    0  501    0  0.00000000000E+00 -0.00000000000E+00 -0.12910360637E+04  0.12910360637E+04  0.00000000000E+00 0. -1.
         25    2    1    2    0    0  0.44692034959E+01  0.75564787124E+02 -0.85084857127E+03  0.86331996376E+03  0.12509219707E+03 0.  0.
          5    1    3    3  502    0  0.50388729075E+02 -0.75316102903E+01 -0.30957149898E+03  0.31376381970E+03  0.41800000000E+01 0.  1.
         -5    1    3    3    0  502 -0.45919525579E+02  0.83096397414E+02 -0.54127707228E+03  0.54955614406E+03  0.41800000000E+01 0.  1.
        -11    1    1    2    0    0  0.12206846284E+02  0.73819137339E+01 -0.93132968550E+01  0.17036350691E+02  0.00000000000E+00 0.  1.
         11    1    1    2    0    0 -0.16676049780E+02 -0.82946700858E+02 -0.41652397957E+03  0.42502996527E+03  0.00000000000E+00 0. -1.
</event>
<event>
 7    1  0.2648915E-009  0.1117646E+03  0.7561462E-02  0.1257337E+00
         -3   -1    0    0    0  501 -0.00000000000E+00  0.00000000000E+00  0.34766339107E+03  0.34766339107E+03  0.00000000000E+00 0.  1.
          3   -1    0    0  501    0  0.00000000000E+00 -0.00000000000E+00 -0.55934791134E+02  0.55934791134E+02  0.00000000000E+00 0. -1.
         25    2    1    2    0    0  0.43194789523E+02 -0.69863692397E+02  0.11916692045E+03  0.19129830495E+03  0.12509021221E+03 0.  0.
          5    1    3    3  502    0  0.17264448640E+02 -0.98831683318E+02  0.11389881945E+03  0.15184260366E+03  0.41800000000E+01 0.  1.
         -5    1    3    3    0  502  0.25930340883E+02  0.28967990921E+02  0.52681009984E+01  0.39455701292E+02  0.41800000000E+01 0.  1.
        -11    1    1    2    0    0 -0.18626862457E+02  0.46566727435E+02  0.16787883046E+02  0.52889064335E+02  0.00000000000E+00 0. -1.
         11    1    1    2    0    0 -0.24567927066E+02  0.23296964961E+02  0.15577379645E+03  0.15941081292E+03  0.00000000000E+00 0.  1.
</event>
<event>
 7    1  0.2648915E-009  0.1466827E+03  0.7561462E-02  0.1204610E+00
         -1   -1    0    0    0  501 -0.00000000000E+00  0.00000000000E+00  0.16332115481E+03  0.16332115481E+03  0.00000000000E+00 0.  1.
          1   -1    0    0  501    0  0.00000000000E+00 -0.00000000000E+00 -0.18874193868E+03  0.18874193868E+03  0.00000000000E+00 0. -1.
         25    2    1    2    0    0 -0.35196130591E+02 -0.10666153504E+03  0.66035963325E+02  0.18062141957E+03  0.12509155882E+03 0.  0.
          5    1    3    3  502    0  0.33775522297E+02 -0.35884505657E+02  0.65033384071E+02  0.81702491373E+02  0.41800000000E+01 0.  1.
         -5    1    3    3    0  502 -0.68971652889E+02 -0.70777029379E+02  0.10025792537E+01  0.98918928194E+02  0.41800000000E+01 0.  1.
        -11    1    1    2    0    0  0.12545876632E+02  0.11868846833E+03 -0.76216841898E+02  0.14160988145E+03  0.00000000000E+00 0. -1.
         11    1    1    2    0    0  0.22650253959E+02 -0.12026933292E+02 -0.15239905304E+02  0.29831792479E+02  0.00000000000E+00 0.  1.
</event>
<event>
 7    1  0.2648915E-009  0.1191749E+03  0.7561462E-02  0.1244464E+00
          3   -1    0    0  501    0  0.00000000000E+00  0.00000000000E+00  0.10344495410E+04  0.10344495410E+04  0.00000000000E+00 0. -1.
         -3   -1    0    0    0  501 -0.00000000000E+00 -0.00000000000E+00 -0.14444168126E+02  0.14444168126E+02  0.00000000000E+00 0.  1.
         25    2    1    2    0    0 -0.16079783571E+02 -0.52552949916E+02  0.62760460609E+03  0.64230442445E+03  0.12508820927E+03 0.  0.
          5    1    3    3  502    0 -0.17979955974E+02  0.38232367596E+02  0.27052227727E+03  0.27383346700E+03  0.41800000000E+01 0.  1.
         -5    1    3    3    0  502  0.19001724027E+01 -0.90785317512E+02  0.35708232882E+03  0.36847095745E+03  0.41800000000E+01 0.  1.
        -11    1    1    2    0    0 -0.27887208310E+02 -0.90415017768E+01  0.14236495185E+03  0.14535207139E+03  0.00000000000E+00 0. -1.
         11    1    1    2    0    0  0.43966991881E+02  0.61594451693E+02  0.25003581489E+03  0.26123721324E+03  0.00000000000E+00 0.  1.
</event>
<event>
 7    1  0.2648915E-009  0.8892867E+02  0.7561462E-02  0.1305467E+00
         -1   -1    0    0    0  501 -0.00000000000E+00  0.00000000000E+00  0.12633306451E+03  0.12633306451E+03  0.00000000000E+00 0. -1.
          1   -1    0    0  501    0  0.00000000000E+00 -0.00000000000E+00 -0.11308839186E+03  0.11308839186E+03  0.00000000000E+00 0.  1.
         25    2    1    2    0    0 -0.34876785663E+02  0.35339908534E+02  0.20673297339E+02  0.13616311130E+03  0.12509080039E+03 0.  0.
          5    1    3    3  502    0 -0.19323938313E+02  0.78252780439E+02  0.35238900213E+02  0.88069090643E+02  0.41800000000E+01 0.  1.
         -5    1    3    3    0  502 -0.15552847350E+02 -0.42912871905E+02 -0.14565602875E+02  0.48094020657E+02  0.41800000000E+01 0.  1.
        -11    1    1    2    0    0  0.13236919798E+02 -0.52343112562E+01 -0.46954674050E+02  0.49064808929E+02  0.00000000000E+00 0.  1.
         11    1    1    2    0    0  0.21639865866E+02 -0.30105597278E+02  0.39526049353E+02  0.54193536143E+02  0.00000000000E+00 0. -1.
</event>
<event>
 7    1  0.3252743E-009  0.8690541E+02  0.7561462E-02  0.1310524E+00
         -4   -1    0    0    0  501 -0.00000000000E+00  0.00000000000E+00  0.15808342175E+03  0.15808342175E+03  0.00000000000E+00 0.  1.
          4   -1    0    0  501    0  0.00000000000E+00 -0.00000000000E+00 -0.86035792748E+02  0.86035792748E+02  0.00000000000E+00 0. -1.
         25    2    1    2    0    0  0.32348998630E+02  0.68634805398E+01  0.12962458938E+02  0.13002913939E+03  0.12508391852E+03 0.  0.
          5    1    3    3  502    0  0.60520686439E+02 -0.16142019261E+02 -0.33277290892E+02  0.71050466304E+02  0.41800000000E+01 0. -1.
         -5    1    3    3    0  502 -0.28171687809E+02  0.23005499800E+02  0.46239749830E+02  0.58978673090E+02  0.41800000000E+01 0. -1.
        -11    1    1    2    0    0 -0.45246867165E+02  0.16150003071E+02  0.70526016018E+02  0.85334755655E+02  0.00000000000E+00 0.  1.
         11    1    1    2    0    0  0.12897868535E+02 -0.23013483611E+02 -0.11440845952E+02  0.28755319451E+02  0.00000000000E+00 0. -1.
</event>
<event>
 7    1  0.2648915E-009  0.9509893E+02  0.7561462E-02  0.1290953E+00
         -2   -1    0    0    0  501 -0.00000000000E+00  0.00000000000E+00  0.48918279783E+02  0.48918279783E+02  0.00000000000E+00 0.  1.
          2   -1    0    0  501    0  0.00000000000E+00 -0.00000000000E+00 -0.56527240167E+03  0.56527240167E+03  0.00000000000E+00 0. -1.
         25    2    1    2    0    0 -0.60194931008E+02 -0.15635793155E+02 -0.48065270442E+03  0.50054332728E+03  0.12509473397E+03 0.  0.
          5    1    3    3  502    0  0.12098323350E+02  0.36549953832E+02 -0.25422184781E+03  0.25715460108E+03  0.41800000000E+01 0.  1.
         -5    1    3    3    0  502 -0.72293254358E+02 -0.52185746986E+02 -0.22643085662E+03  0.24338872620E+03  0.41800000000E+01 0.  1.
        -11    1    1    2    0    0  0.29162008121E+02  0.67599469534E+01  0.28787926665E+02  0.41531485913E+02  0.00000000000E+00 0.  1.
         11    1    1    2    0    0  0.31032922888E+02  0.88758462012E+01 -0.64489344126E+02  0.72115868258E+02  0.00000000000E+00 0. -1.
</event>
<event>
 7    1  0.2648915E-009  0.9935028E+02  0.7561462E-02  0.1281668E+00
         -2   -1    0    0    0  501 -0.00000000000E+00  0.00000000000E+00  0.64266349352E+02  0.64266349352E+02  0.00000000000E+00 0.  1.
          2   -1    0    0  501    0  0.00000000000E+00 -0.00000000000E+00 -0.27167622719E+03  0.27167622719E+03  0.00000000000E+00 0. -1.
         25    2    1    2    0    0  0.55341754835E+02  0.45640416476E+02 -0.14429178593E+03  0.20399127514E+03  0.12508622388E+03 0.  0.
          5    1    3    3  502    0  0.65106389246E+02  0.55182450844E+02 -0.32702897947E+02  0.91492604816E+02  0.41800000000E+01 0.  1.
         -5    1    3    3    0  502 -0.97646344114E+01 -0.95420343676E+01 -0.11158888798E+03  0.11249867033E+03  0.41800000000E+01 0.  1.
        -11    1    1    2    0    0  0.87494019189E+01  0.10572862379E+02 -0.41914075042E+02  0.44103595539E+02  0.00000000000E+00 0. -1.
         11    1    1    2    0    0 -0.64091156754E+02 -0.56213278855E+02 -0.21204016871E+02  0.87847705861E+02  0.00000000000E+00 0.  1.
</event>
<event>
 7    1  0.2648915E-009  0.1563039E+03  0.7561462E-02  0.1192934E+00
          4   -1    0    0  501    0  0.00000000000E+00  0.00000000000E+00  0.16725739921E+03  0.16725739921E+03  0.00000000000E+00 0. -1.
         -4   -1    0    0    0  501 -0.00000000000E+00 -0.00000000000E+00 -0.20981201968E+03  0.20981201968E+03  0.00000000000E+00 0.  1.
         25    2    1    2    0    0  0.13427859143E+03  0.58099352248E+02 -0.62677237939E+02  0.20243628444E+03  0.12508292552E+03 0.  0.
          5    1    3    3  502    0  0.13418428674E+03  0.64132119026E+02 -0.98556977027E+01  0.14910720531E+03  0.41800000000E+01 0. -1.
         -5    1    3    3    0  502  0.94304689790E-01 -0.60327667780E+01 -0.52821540236E+02  0.53329079134E+02  0.41800000000E+01 0. -1.
        -11    1    1    2    0    0 -0.83067785982E+02 -0.64101957283E+02  0.48706206219E+02  0.11567891995E+03  0.00000000000E+00 0. -1.
         11    1    1    2    0    0 -0.51210805447E+02  0.60026050355E+01 -0.28583588750E+02  0.58954214502E+02  0.00000000000E+00 0.  1.
</event>
<event>
 7    1  0.2648915E-009  0.1139033E+03  0.7561462E-02  0.1253508E+00
          2   -1    0    0  501    0  0.00000000000E+00  0.00000000000E+00  0.29649591801E+03  0.29649591801E+03  0.00000000000E+00 0. -1.
         -2   -1    0    0    0  501 -0.00000000000E+00 -0.00000000000E+00 -0.56030766401E+02  0.56030766401E+02  0.00000000000E+00 0.  1.
         25    2    1    2    0    0  0.68744047698E+02  0.20342505715E+01  0.11686784979E+03  0.18448771029E+03  0.12509092158E+03 0.  0.
          5    1    3    3  502    0  0.36433675970E+02 -0.47628610658E+02  0.10913001060E+03  0.12459024405E+03  0.41800000000E+01 0.  1.
         -5    1    3    3    0  502  0.32310371728E+02  0.49662861229E+02  0.77378391936E+01  0.59897466241E+02  0.41800000000E+01 0.  1.
        -11    1    1    2    0    0  0.14272385258E+02  0.17929626878E+02  0.78857303126E+01  0.24235454267E+02  0.00000000000E+00 0.  1.
         11    1    1    2    0    0 -0.83016432956E+02 -0.19963877450E+02  0.11571157150E+03  0.14380351986E+03  0.00000000000E+00 0. -1.
</event>
<event>
 7    1  0.2648915E-009  0.1036311E+03  0.7561462E-02  0.1272840E+00
          1   -1    0    0  501    0  0.00000000000E+00  0.00000000000E+00  0.22226094401E+03  0.22226094401E+03  0.00000000000E+00 0. -1.
         -1   -1    0    0    0  501 -0.00000000000E+00 -0.00000000000E+00 -0.69261119374E+02  0.69261119374E+02  0.00000000000E+00 0.  1.
         25    2    1    2    0    0 -0.39245028905E+02  0.42703867606E+02  0.91080793650E+02  0.16524795873E+03  0.12508950512E+03 0.  0.
          5    1    3    3  502    0  0.75702470166E+01  0.49170078280E+02 -0.12371955522E+02  0.51434841513E+02  0.41800000000E+01 0.  1.
         -5    1    3    3    0  502 -0.46815275922E+02 -0.64662106742E+01  0.10345274917E+03  0.11381311722E+03  0.41800000000E+01 0.  1.
        -11    1    1    2    0    0 -0.14736383200E+02  0.21466050345E+02  0.11842975549E+02  0.28604341927E+02  0.00000000000E+00 0. -1.
         11    1    1    2    0    0  0.53981412106E+02 -0.64169917951E+02  0.50076055440E+02  0.97669762727E+02  0.00000000000E+00 0.  1.
</event>
<event>
 7    1  0.2648915E-009  0.1465589E+03  0.7561462E-02  0.1204766E+00
          2   -1    0    0  501    0  0.00000000000E+00  0.00000000000E+00  0.38192901768E+03  0.38192901768E+03  0.00000000000E+00 0. -1.
         -2   -1    0    0    0  501 -0.00000000000E+00 -0.00000000000E+00 -0.58940573293E+02  0.58940573293E+02  0.00000000000E+00 0.  1.
         25    2    1    2    0    0 -0.64817026985E+02  0.78821605318E+02  0.21087006155E+03  0.26557322444E+03  0.12509541250E+03 0.  0.
          5    1    3    3  502    0  0.32722247002E+02  0.15062041463E+00  0.67377356779E+02  0.75019655704E+02  0.41800000000E+01 0. -1.
         -5    1    3    3    0  502 -0.97539273987E+02  0.78670984904E+02  0.14349270477E+03  0.19055356874E+03  0.41800000000E+01 0. -1.
        -11    1    1    2    0    0 -0.13113891391E+02 -0.49946565285E+02  0.43693615121E+02  0.67644405042E+02  0.00000000000E+00 0. -1.
         11    1    1    2    0    0  0.77930918376E+02 -0.28875040034E+02  0.68424767717E+02  0.10765196149E+03  0.00000000000E+00 0.  1.
</event>
<event>
 7    1  0.2648915E-009  0.2746972E+03  0.7561462E-02  0.1098621E+00
         -2   -1    0    0    0  501 -0.00000000000E+00  0.00000000000E+00  0.86482665513E+02  0.86482665513E+02  0.00000000000E+00 0. -1.
          2   -1    0    0  501    0  0.00000000000E+00 -0.00000000000E+00 -0.10397676874E+04  0.10397676874E+04  0.00000000000E+00 0.  1.
         25    2    1    2    0    0 -0.16077216233E+03 -0.21226488025E+03 -0.64320675821E+03  0.70729486765E+03  0.12508808270E+03 0.  0.
          5    1    3    3  502    0 -0.74151699434E+02 -0.63554414647E+02 -0.38314304515E+03  0.39541586159E+03  0.41800000000E+01 0. -1.
         -5    1    3    3    0  502 -0.86620462901E+02 -0.14871046560E+03 -0.26006371306E+03  0.31187900606E+03  0.41800000000E+01 0. -1.
        -11    1    1    2    0    0  0.56898340958E+02  0.14494795320E+03 -0.14627482641E+03  0.21364375765E+03  0.00000000000E+00 0.  1.
         11    1    1    2    0    0  0.10387382138E+03  0.67316927046E+02 -0.16380343728E+03  0.20531172762E+03  0.00000000000E+00 0. -1.
</event>
<event>
 7    1  0.2648915E-009  0.9772869E+02  0.7561462E-02  0.1285146E+00
          2   -1    0    0  501    0  0.00000000000E+00  0.00000000000E+00  0.49503120534E+03  0.49503120534E+03  0.00000000000E+00 0. -1.
         -2   -1    0    0    0  501 -0.00000000000E+00 -0.00000000000E+00 -0.25856793717E+02  0.25856793717E+02  0.00000000000E+00 0.  1.
         25    2    1    2    0    0 -0.28288480454E+00  0.30063551657E+02  0.26876911398E+03  0.29797288795E+03  0.12508840141E+03 0.  0.
          5    1    3    3  502    0  0.11870738860E+02  0.67431347308E+02  0.81244151757E+02  0.10632960846E+03  0.41800000000E+01 0.  1.
         -5    1    3    3    0  502 -0.12153623664E+02 -0.37367795651E+02  0.18752496222E+03  0.19164327949E+03  0.41800000000E+01 0.  1.
        -11    1    1    2    0    0  0.11447847726E+02 -0.57025460372E+02  0.17434297571E+03  0.18378908979E+03  0.00000000000E+00 0. -1.
         11    1    1    2    0    0 -0.11164962921E+02  0.26961908715E+02  0.26062321941E+02  0.39126021310E+02  0.00000000000E+00 0.  1.
</event>
<event>
 7    1  0.2648915E-009  0.1057911E+03  0.7561462E-02  0.1268569E+00
         -1   -1    0    0    0  501 -0.00000000000E+00  0.00000000000E+00  0.57458630052E+03  0.57458630052E+03  0.00000000000E+00 0.  1.
          1   -1    0    0  501    0  0.00000000000E+00 -0.00000000000E+00 -0.31025467864E+02  0.31025467864E+02  0.00000000000E+00 0. -1.
         25    2    1    2    0    0  0.40765694604E+02 -0.64610241500E+02  0.27626608732E+03  0.31274052689E+03  0.12508941201E+03 0.  0.
          5    1    3    3  502    0 -0.19736327754E+02  0.18846690373E+02  0.14086517191E+02  0.30993914529E+02  0.41800000000E+01 0.  1.
         -5    1    3    3    0  502  0.60502022358E+02 -0.83456931873E+02  0.26217957013E+03  0.28174661236E+03  0.41800000000E+01 0.  1.
        -11    1    1    2    0    0 -0.69349884181E+01  0.35522402579E+02  0.19539249941E+02  0.41130492796E+02  0.00000000000E+00 0. -1.
         11    1    1    2    0    0 -0.33830706186E+02  0.29087838920E+02  0.24775549540E+03  0.25174074869E+03  0.00000000000E+00 0.  1.
</event>
<event>
 7    1  0.2648915E-009  0.6272758E+02  0.7561462E-02  0.1386729E+00
          1   -1    0    0  501    0  0.00000000000E+00  0.00000000000E+00  0.10794629632E+03  0.10794629632E+03  0.00000000000E+00 0. -1.
         -1   -1    0    0    0  501 -0.00000000000E+00 -0.00000000000E+00 -0.10916302574E+03  0.10916302574E+03  0.00000000000E+00 0.  1.
         25    2    1    2    0    0  0.17717651012E+01 -0.74692913965E+01  0.99262967999E+01  0.12571871092E+03  0.12509090071E+03 0.  0.
          5    1    3    3  502    0 -0.17838279516E+02 -0.44557807557E+02 -0.38383433713E+02  0.61598399444E+02  0.41800000000E+01 0. -1.
         -5    1    3    3    0  502  0.19610044617E+02  0.37088516161E+02  0.48309730513E+02  0.64120311471E+02  0.41800000000E+01 0. -1.
        -11    1    1    2    0    0  0.64921567510E+01  0.19482133582E+02 -0.47754418460E+02  0.51982555830E+02  0.00000000000E+00 0.  1.
         11    1    1    2    0    0 -0.82639218521E+01 -0.12012842185E+02  0.36611392246E+02  0.39408055318E+02  0.00000000000E+00 0. -1.
</event>
<event>
 7    1  0.2648915E-009  0.1173182E+03  0.7561462E-02  0.1247588E+00
          1   -1    0    0  501    0  0.00000000000E+00  0.00000000000E+00  0.89961366467E+03  0.89961366467E+03  0.00000000000E+00 0. -1.
         -1   -1    0    0    0  501 -0.00000000000E+00 -0.00000000000E+00 -0.17671290807E+02  0.17671290807E+02  0.00000000000E+00 0.  1.
         25    2    1    2    0    0 -0.49583333821E+02 -0.24154176162E+02  0.61802133712E+03  0.63296159830E+03  0.12509228823E+03 0.  0.
          5    1    3    3  502    0 -0.85895965373E+02 -0.37816741240E+02  0.36239327062E+03  0.37437224493E+03  0.41800000000E+01 0. -1.
         -5    1    3    3    0  502  0.36312631552E+02  0.13662565078E+02  0.25562806650E+03  0.25858935337E+03  0.41800000000E+01 0. -1.
        -11    1    1    2    0    0  0.72408941777E+02  0.29562625085E+02  0.16412755987E+03  0.18180995451E+03  0.00000000000E+00 0.  1.
         11    1    1    2    0    0 -0.22825607956E+02 -0.54084489234E+01  0.99793476880E+02  0.10251340267E+03  0.00000000000E+00 0. -1.
</event>
<event>
 7    1  0.2648915E-009  0.3301445E+03  0.7561462E-02  0.1071073E+00
         -2   -1    0    0    0  501 -0.00000000000E+00  0.00000000000E+00  0.50656763016E+03  0.50656763016E+03  0.00000000000E+00 0. -1.
          2   -1    0    0  501    0  0.00000000000E+00 -0.00000000000E+00 -0.22329919097E+03  0.22329919097E+03  0.00000000000E+00 0.  1.
         25    2    1    2    0    0  0.29778519642E+03 -0.10536949466E+03  0.10607014149E+03  0.35591707617E+03  0.12508931443E+03 0.  0.
          5    1    3    3  502    0  0.25070273759E+03 -0.33108068711E+02  0.70737414336E+02  0.26261999359E+03  0.41800000000E+01 0. -1.
         -5    1    3    3    0  502  0.47082458827E+02 -0.72261425947E+02  0.35332727149E+02  0.93297082574E+02  0.41800000000E+01 0. -1.
        -11    1    1    2    0    0 -0.11631059401E+03  0.71172453053E+02  0.11712684084E+03  0.17975641629E+03  0.00000000000E+00 0. -1.
         11    1    1    2    0    0 -0.18147460241E+03  0.34197041605E+02  0.60071456866E+02  0.19419332868E+03  0.00000000000E+00 0.  1.
</event>
<event>
 7    1  0.2648915E-009  0.1434749E+03  0.7561462E-02  0.1208728E+00
          4   -1    0    0  501    0  0.00000000000E+00  0.00000000000E+00  0.15910304928E+03  0.15910304928E+03  0.00000000000E+00 0. -1.
         -4   -1    0    0    0  501 -0.00000000000E+00 -0.00000000000E+00 -0.14708496030E+03  0.14708496030E+03  0.00000000000E+00 0.  1.
         25    2    1    2    0    0 -0.98197035152E+02  0.28063851792E+02  0.39785851563E+02  0.16630463978E+03  0.12507630366E+03 0.  0.
          5    1    3    3  502    0  0.24425358417E+02  0.14206766123E+02  0.31545835746E+02  0.42556344890E+02  0.41800000000E+01 0.  1.
         -5    1    3    3    0  502 -0.12262239357E+03  0.13857085669E+02  0.82400158171E+01  0.12374829489E+03  0.41800000000E+01 0.  1.
        -11    1    1    2    0    0  0.30165344623E+02 -0.54203062987E+02 -0.39753001943E+00  0.62032879052E+02  0.00000000000E+00 0. -1.
         11    1    1    2    0    0  0.68031690529E+02  0.26139211195E+02 -0.27370232567E+02  0.77850490743E+02  0.00000000000E+00 0.  1.
</event>
<event>
 7    1  0.2648915E-009  0.8093709E+02  0.7561462E-02  0.1326413E+00
         -2   -1    0    0    0  501 -0.00000000000E+00  0.00000000000E+00  0.30205387820E+02  0.30205387820E+02  0.00000000000E+00 0. -1.
          2   -1    0    0  501    0  0.00000000000E+00 -0.00000000000E+00 -0.44965102955E+03  0.44965102955E+03  0.00000000000E+00 0.  1.
         25    2    1    2    0    0  0.91297004677E+01  0.27820286373E+01 -0.30881733657E+03  0.33332962704E+03  0.12509756904E+03 0.  0.
          5    1    3    3  502    0  0.61940032226E+02  0.10031071592E+02 -0.10299721041E+03  0.12067761906E+03  0.41800000000E+01 0.  1.
         -5    1    3    3    0  502 -0.52810331758E+02 -0.72490429547E+01 -0.20582012616E+03  0.21265200798E+03  0.41800000000E+01 0.  1.
        -11    1    1    2    0    0 -0.36086546702E+01  0.20896202900E+02  0.10019543124E+02  0.23453463041E+02  0.00000000000E+00 0. -1.
         11    1    1    2    0    0 -0.55210457975E+01 -0.23678231538E+02 -0.12064784828E+03  0.12307332729E+03  0.00000000000E+00 0.  1.
</event>
<event>
 7    1  0.2648915E-009  0.6885947E+02  0.7561462E-02  0.1364015E+00
         -1   -1    0    0    0  501 -0.00000000000E+00  0.00000000000E+00  0.17967732604E+03  0.17967732604E+03  0.00000000000E+00 0.  1.
          1   -1    0    0  501    0  0.00000000000E+00 -0.00000000000E+00 -0.64571270777E+02  0.64571270777E+02  0.00000000000E+00 0. -1.
         25    2    1    2    0    0 -0.11057364937E+02 -0.24103222199E+01  0.62993666948E+02  0.14051255553E+03  0.12508997247E+03 0.  0.
          5    1    3    3  502    0  0.20526710675E+02  0.14981857610E+01 -0.33099597035E+02  0.39200078260E+02  0.41800000000E+01 0. -1.
         -5    1    3    3    0  502 -0.31584075612E+02 -0.39085079809E+01  0.96093263983E+02  0.10131247727E+03  0.41800000000E+01 0. -1.
        -11    1    1    2    0    0 -0.10908777951E+02 -0.37504734164E+02  0.41432676531E+02  0.56940962457E+02  0.00000000000E+00 0. -1.
         11    1    1    2    0    0  0.21966142888E+02  0.39915056383E+02  0.10679711787E+02  0.46795078837E+02  0.00000000000E+00 0.  1.
</event>
<event>
 7    1  0.2648915E-009  0.9907203E+02  0.7561462E-02  0.1282260E+00
         -2   -1    0    0    0  501 -0.00000000000E+00  0.00000000000E+00  0.23666707797E+03  0.23666707797E+03  0.00000000000E+00 0.  1.
          2   -1    0    0  501    0  0.00000000000E+00 -0.00000000000E+00 -0.69372524051E+02  0.69372524051E+02  0.00000000000E+00 0. -1.
         25    2    1    2    0    0 -0.19696443226E+02  0.95342414614E+01  0.15533653258E+02  0.12793606704E+03  0.12508993257E+03 0.  0.
          5    1    3    3  502    0  0.32588929046E+02  0.41926553345E+02  0.34467724336E+02  0.63445808315E+02  0.41800000000E+01 0. -1.
         -5    1    3    3    0  502 -0.52285372272E+02 -0.32392311884E+02 -0.18934071078E+02  0.64490258725E+02  0.41800000000E+01 0. -1.
        -11    1    1    2    0    0 -0.30736744757E+02  0.40400515759E+01  0.99504204588E+02  0.10422166870E+03  0.00000000000E+00 0.  1.
         11    1    1    2    0    0  0.50433187982E+02 -0.13574293037E+02  0.52256696073E+02  0.73881866287E+02  0.00000000000E+00 0. -1.
</event>
<event>
 7    1  0.2648915E-009  0.1685511E+03  0.7561462E-02  0.1179367E+00
          1   -1    0    0  501    0  0.00000000000E+00  0.00000000000E+00  0.13177697692E+04  0.13177697692E+04  0.00000000000E+00 0. -1.
         -1   -1    0    0    0  501 -0.00000000000E+00 -0.00000000000E+00 -0.24991853509E+02  0.24991853509E+02  0.00000000000E+00 0.  1.
         25    2    1    2    0    0  0.99102531303E+02 -0.10545612624E+03  0.63391917316E+03  0.66215118254E+03  0.12509342177E+03 0.  0.
          5    1    3    3  502    0 -0.18084301186E+02 -0.28393146855E+02  0.42832871991E+02  0.54638265535E+02  0.41800000000E+01 0.  1.
         -5    1    3    3    0  502  0.11718683249E+03 -0.77062979385E+02  0.59108630117E+03  0.60751291700E+03  0.41800000000E+01 0.  1.
        -11    1    1    2    0    0 -0.43467621126E+02  0.97385519106E+02  0.51962233725E+03  0.53045334082E+03  0.00000000000E+00 0. -1.
         11    1    1    2    0    0 -0.55634910177E+02  0.80706071339E+01  0.13923640533E+03  0.15015709940E+03  0.00000000000E+00 0.  1.
</event>
<event>
 7    1  0.2871473E-009  0.1334440E+03  0.7561462E-02  0.1222433E+00
         -1   -1    0    0    0  501 -0.00000000000E+00  0.00000000000E+00  0.99178688559E+02  0.99178688559E+02  0.00000000000E+00 0.  1.
          1   -1    0    0  501    0  0.00000000000E+00 -0.00000000000E+00 -0.23530186690E+03  0.23530186690E+03  0.00000000000E+00 0. -1.
         25    2    1    2    0    0  0.53043576612E+02  0.89040806411E+02 -0.10405307291E+03  0.19291236117E+03  0.12508497466E+03 0.  0.
          5    1    3    3  502    0 -0.37109140409E+02  0.20949655854E+02 -0.54927884841E+02  0.69645684111E+02  0.41800000000E+01 0. -1.
         -5    1    3    3    0  502  0.90152717020E+02  0.68091150558E+02 -0.49125188066E+02  0.12326667706E+03  0.41800000000E+01 0. -1.
        -11    1    1    2    0    0 -0.33881237243E+02 -0.84898338675E+02  0.13084669214E+02  0.92341078158E+02  0.00000000000E+00 0.  1.
         11    1    1    2    0    0 -0.19162339368E+02 -0.41424677363E+01 -0.45154774645E+02  0.49227116128E+02  0.00000000000E+00 0. -1.
</event>
<event>
 7    1  0.2841000E-009  0.8126856E+02  0.7561462E-02  0.1325490E+00
         -1   -1    0    0    0  501 -0.00000000000E+00  0.00000000000E+00  0.45650815509E+02  0.45650815509E+02  0.00000000000E+00 0.  1.
          1   -1    0    0  501    0  0.00000000000E+00 -0.00000000000E+00 -0.37595169377E+03  0.37595169377E+03  0.00000000000E+00 0. -1.
         25    2    1    2    0    0 -0.33668988135E+02  0.17732090896E+02 -0.28425121655E+03  0.31287532367E+03  0.12507672144E+03 0.  0.
          5    1    3    3  502    0 -0.45829635127E+02 -0.40911841080E+02 -0.20109420517E+03  0.21031045136E+03  0.41800000000E+01 0. -1.
         -5    1    3    3    0  502  0.12160646992E+02  0.58643931976E+02 -0.83157011374E+02  0.10256487232E+03  0.41800000000E+01 0. -1.
        -11    1    1    2    0    0  0.25157450742E+02 -0.50641641922E+01 -0.73207390759E+02  0.77574900248E+02  0.00000000000E+00 0. -1.
         11    1    1    2    0    0  0.85115373928E+01 -0.12667926704E+02  0.27157729046E+02  0.31152285353E+02  0.00000000000E+00 0.  1.
</event>
<event>
 7    1  0.2648915E-009  0.7375569E+02  0.7561462E-02  0.1347768E+00
         -1   -1    0    0    0  501 -0.00000000000E+00  0.00000000000E+00  0.50712004664E+02  0.50712004664E+02  0.00000000000E+00 0.  1.
          1   -1    0    0  501    0  0.00000000000E+00 -0.00000000000E+00 -0.24379516086E+03  0.24379516086E+03  0.00000000000E+00 0. -1.
         25    2    1    2    0    0  0.91144138433E+01  0.19289900975E+02 -0.13042564936E+03  0.18197235034E+03  0.12509162026E+03 0.  0.
          5    1    3    3  502    0 -0.51191363828E+01  0.35517878763E+02 -0.14892127509E+03  0.15324080346E+03  0.41800000000E+01 0.  1.
         -5    1    3    3    0  502  0.14233550226E+02 -0.16227977788E+02  0.18495625733E+02  0.28731546885E+02  0.41800000000E+01 0.  1.
        -11    1    1    2    0    0 -0.48052679451E+02 -0.69644645761E+01 -0.17413235476E+02  0.51582793051E+02  0.00000000000E+00 0.  1.
         11    1    1    2    0    0  0.38938265608E+02 -0.12325436399E+02 -0.45244271357E+02  0.60952022129E+02  0.00000000000E+00 0. -1.
</event>
<event>
 7    1  0.2648915E-009  0.9832828E+02  0.7561462E-02  0.1283851E+00
          1   -1    0    0  501    0  0.00000000000E+00  0.00000000000E+00  0.84404640438E+03  0.84404640438E+03  0.00000000000E+00 0. -1.
         -1   -1    0    0    0  501 -0.00000000000E+00 -0.00000000000E+00 -0.24658506141E+02  0.24658506141E+02  0.00000000000E+00 0.  1.
         25    2    1    2    0    0  0.13060611966E+02  0.75247377967E+02  0.61059423489E+03  0.62793717531E+03  0.12508808487E+03 0.  0.
          5    1    3    3  502    0 -0.18472253741E+02  0.41013787551E+02  0.58714481487E+02  0.74082505788E+02  0.41800000000E+01 0. -1.
         -5    1    3    3    0  502  0.31532865707E+02  0.34233590416E+02  0.55187975340E+03  0.55385466952E+03  0.41800000000E+01 0. -1.
        -11    1    1    2    0    0  0.22135489792E+02 -0.51104866148E+00  0.10896281273E+03  0.11118963817E+03  0.00000000000E+00 0. -1.
         11    1    1    2    0    0 -0.35196101758E+02 -0.74736329306E+02  0.99830850614E+02  0.12957809704E+03  0.00000000000E+00 0.  1.
</event>
<event>
 7    1  0.2648915E-009  0.1885181E+03  0.7561462E-02  0.1159805E+00
         -2   -1    0    0    0  501 -0.00000000000E+00  0.00000000000E+00  0.50125771141E+02  0.50125771141E+02  0.00000000000E+00 0.  1.
          2   -1    0    0  501    0  0.00000000000E+00 -0.00000000000E+00 -0.89729612486E+03  0.89729612486E+03  0.00000000000E+00 0. -1.
         25    2    1    2    0    0  0.17223061780E+03  0.39664036865E+02 -0.34230297040E+03  0.40503708109E+03  0.12508833673E+03 0.  0.
          5    1    3    3  502    0  0.13688253381E+03  0.20652388295E+02 -0.33698511906E+03  0.36433472532E+03  0.41800000000E+01 0. -1.
         -5    1    3    3    0  502  0.35348083988E+02  0.19011648570E+02 -0.53178513476E+01  0.40702355779E+02  0.41800000000E+01 0. -1.
        -11    1    1    2    0    0 -0.66031001655E+02  0.28580962986E+02 -0.18781965394E+03  0.20112977659E+03  0.00000000000E+00 0. -1.
         11    1    1    2    0    0 -0.10619961615E+03 -0.68244999851E+02 -0.31704772937E+03  0.34125503831E+03  0.00000000000E+00 0.  1.
</event>
<event>
 7    1  0.2648915E-009  0.1855575E+03  0.7561462E-02  0.1162530E+00
         -2   -1    0    0    0  501 -0.00000000000E+00  0.00000000000E+00  0.55322429985E+02  0.55322429985E+02  0.00000000000E+00 0.  1.
          2   -1    0    0  501    0  0.00000000000E+00 -0.00000000000E+00 -0.65535453099E+03  0.65535453099E+03  0.00000000000E+00 0. -1.
         25    2    1    2    0    0 -0.15266344725E+03  0.15587820694E+02 -0.37576131439E+03  0.42472746343E+03  0.12509094501E+03 0.  0.
          5    1    3    3  502    0 -0.97928224575E+02 -0.50711156407E+02 -0.23704837167E+03  0.26147841491E+03  0.41800000000E+01 0.  1.
         -5    1    3    3    0  502 -0.54735222676E+02  0.66298977101E+02 -0.13871294272E+03  0.16324904852E+03  0.41800000000E+01 0.  1.
        -11    1    1    2    0    0  0.88258374550E+02 -0.50229336654E+02 -0.10522370507E+03  0.14623458909E+03  0.00000000000E+00 0.  1.
         11    1    1    2    0    0  0.64405072701E+02  0.34641515960E+02 -0.11904708154E+03  0.13971490844E+03  0.00000000000E+00 0. -1.
</event>
<event>
 7    1  0.2648915E-009  0.1593415E+03  0.7561462E-02  0.1189442E+00
         -2   -1    0    0    0  501 -0.00000000000E+00  0.00000000000E+00  0.95238904985E+02  0.95238904985E+02  0.00000000000E+00 0. -1.
          2   -1    0    0  501    0  0.00000000000E+00 -0.00000000000E+00 -0.31544985430E+03  0.31544985430E+03  0.00000000000E+00 0.  1.
         25    2    1    2    0    0  0.99821059192E+02 -0.78854301007E+02 -0.16804175197E+03  0.24508669236E+03  0.12508881533E+03 0.  0.
          5    1    3    3  502    0  0.12068680118E+03 -0.49522400066E+02 -0.16250143840E+03  0.20842735418E+03  0.41800000000E+01 0.  1.
         -5    1    3    3    0  502 -0.20865741987E+02 -0.29331900940E+02 -0.55403135737E+01  0.36659338182E+02  0.41800000000E+01 0.  1.
        -11    1    1    2    0    0 -0.63234125390E+02 -0.19075370761E+01 -0.42941985924E+02  0.76460496118E+02  0.00000000000E+00 0.  1.
         11    1    1    2    0    0 -0.36586933802E+02  0.80761838083E+02 -0.92272114154E+01  0.89141570807E+02  0.00000000000E+00 0. -1.
</event>
<event>
 7    1  0.2648915E-009  0.4041245E+03  0.7561462E-02  0.1042361E+00
         -2   -1    0    0    0  501 -0.00000000000E+00  0.00000000000E+00  0.78253426462E+02  0.78253426462E+02  0.00000000000E+00 0.  1.
          2   -1    0    0  501    0  0.00000000000E+00 -0.00000000000E+00 -0.20938594633E+04  0.20938594633E+04  0.00000000000E+00 0. -1.
         25    2    1    2    0    0 -0.28103304265E+03 -0.27018561342E+03 -0.10632478412E+04  0.11393522316E+04  0.12509076360E+03 0.  0.
          5    1    3    3  502    0 -0.91620317802E+02 -0.17134606071E+02 -0.24460867829E+03  0.26179907420E+03  0.41800000000E+01 0.  1.
         -5    1    3    3    0  502 -0.18941272485E+03 -0.25305100735E+03 -0.81863916292E+03  0.87755315744E+03  0.41800000000E+01 0.  1.
        -11    1    1    2    0    0  0.11174432797E+03  0.16581558932E+03 -0.50757641924E+03  0.54554140618E+03  0.00000000000E+00 0.  1.
         11    1    1    2    0    0  0.16928871468E+03  0.10437002410E+03 -0.44478177636E+03  0.48721925191E+03  0.00000000000E+00 0. -1.
</event>
<event>
 7    1  0.2648915E-009  0.1107698E+03  0.7561462E-02  0.1259151E+00
         -1   -1    0    0    0  501 -0.00000000000E+00  0.00000000000E+00  0.13108419288E+02  0.13108419288E+02  0.00000000000E+00 0.  1.
          1   -1    0    0  501    0  0.00000000000E+00 -0.00000000000E+00 -0.99146249335E+03  0.99146249335E+03  0.00000000000E+00 0. -1.
         25    2    1    2    0    0  0.25842612271E+02  0.16926227364E+02 -0.66718883900E+03  0.67951641960E+03  0.12508908759E+03 0.  0.
          5    1    3    3  502    0  0.20729119667E+02  0.70861982056E+02 -0.35291086817E+03  0.36057547084E+03  0.41800000000E+01 0.  1.
         -5    1    3    3    0  502  0.51134926041E+01 -0.53935754692E+02 -0.31427797083E+03  0.31894094876E+03  0.41800000000E+01 0.  1.
        -11    1    1    2    0    0 -0.58509565479E+02 -0.60517143999E+01 -0.17581434622E+03  0.18539330311E+03  0.00000000000E+00 0. -1.
         11    1    1    2    0    0  0.32666953208E+02 -0.10874512964E+02 -0.13535088884E+03  0.13966118993E+03  0.00000000000E+00 0.  1.
</event>
<event>
 7    1  0.2648915E-009  0.1851108E+03  0.7561462E-02  0.1162946E+00
         -2   -1    0    0    0  501 -0.00000000000E+00  0.00000000000E+00  0.23582272056E+03  0.23582272056E+03  0.00000000000E+00 0.  1.
          2   -1    0    0  501    0  0.00000000000E+00 -0.00000000000E+00 -0.20238758799E+03  0.20238758799E+03  0.00000000000E+00 0. -1.
         25    2    1    2    0    0 -0.13085656720E+03 -0.10131006793E+03 -0.73605256822E+02  0.22011980801E+03  0.12509126670E+03 0.  0.
          5    1    3    3  502    0 -0.33578649760E+02  0.26705051522E+02 -0.32859662655E+02  0.54202539851E+02  0.41800000000E+01 0.  1.
         -5    1    3    3    0  502 -0.97277917441E+02 -0.12801511946E+03 -0.40745594167E+02  0.16591726816E+03  0.41800000000E+01 0.  1.
        -11    1    1    2    0    0  0.99961230244E+02  0.85674565088E+02  0.12281133552E+03  0.18004166958E+03  0.00000000000E+00 0.  1.
         11    1    1    2    0    0  0.30895336957E+02  0.15635502845E+02 -0.15770946123E+02  0.38048830948E+02  0.00000000000E+00 0. -1.
</event>
<event>
 7    1  0.2648915E-009  0.1334667E+03  0.7561462E-02  0.1222401E+00
         -2   -1    0    0    0  501 -0.00000000000E+00  0.00000000000E+00  0.14336998627E+03  0.14336998627E+03  0.00000000000E+00 0.  1.
          2   -1    0    0  501    0  0.00000000000E+00 -0.00000000000E+00 -0.13808645878E+03  0.13808645878E+03  0.00000000000E+00 0. -1.
         25    2    1    2    0    0 -0.80295749985E+02 -0.30212611570E+02 -0.18400947688E+02  0.15279761407E+03  0.12509319177E+03 0.  0.
          5    1    3    3  502    0 -0.68384534051E+02  0.40610021926E+02 -0.12481988870E+02  0.80615698374E+02  0.41800000000E+01 0.  1.
         -5    1    3    3    0  502 -0.11911215933E+02 -0.70822633496E+02 -0.59189588176E+01  0.72181915698E+02  0.41800000000E+01 0.  1.
        -11    1    1    2    0    0  0.74049343532E+01 -0.23608849947E+02  0.28723100653E+02  0.37910781576E+02  0.00000000000E+00 0.  1.
         11    1    1    2    0    0  0.72890815631E+02  0.53821461517E+02 -0.50386254786E+01  0.90748049400E+02  0.00000000000E+00 0. -1.
</event>
<event>
 7    1  0.2648915E-009  0.1314310E+03  0.7561462E-02  0.1225348E+00
         -1   -1    0    0    0  501 -0.00000000000E+00  0.00000000000E+00  0.42315699342E+02  0.42315699342E+02  0.00000000000E+00 0.  1.
          1   -1    0    0  501    0  0.00000000000E+00 -0.00000000000E+00 -0.45283451953E+03  0.45283451953E+03  0.00000000000E+00 0. -1.
         25    2    1    2    0    0  0.83261377206E+02 -0.78559314928E+01 -0.19726235362E+03  0.24810098705E+03  0.12508993176E+03 0.  0.
          5    1    3    3  502    0  0.11469110634E+03  0.76191214978E+01 -0.15584109061E+03  0.19369052328E+03  0.41800000000E+01 0. -1.
         -5    1    3    3    0  502 -0.31429729137E+02 -0.15475052991E+02 -0.41421263010E+02  0.54410463774E+02  0.41800000000E+01 0. -1.
        -11    1    1    2    0    0 -0.78105548848E+02  0.34526376190E+02 -0.10451599023E+03  0.13496717981E+03  0.00000000000E+00 0.  1.
         11    1    1    2    0    0 -0.51558283579E+01 -0.26670444698E+02 -0.10874047634E+03  0.11208205200E+03  0.00000000000E+00 0. -1.
</event>
<event>
 7    1  0.2648915E-009  0.1012321E+03  0.7561462E-02  0.1277726E+00
          2   -1    0    0  501    0  0.00000000000E+00  0.00000000000E+00  0.61056765359E+03  0.61056765359E+03  0.00000000000E+00 0.  1.
         -2   -1    0    0    0  501 -0.00000000000E+00 -0.00000000000E+00 -0.20679590233E+02  0.20679590233E+02  0.00000000000E+00 0. -1.
         25    2    1    2    0    0  0.90650144620E+01 -0.11958914654E+02  0.26743506612E+03  0.29562625101E+03  0.12509266791E+03 0.  0.
          5    1    3    3  502    0  0.52560734764E+02  0.18868081536E+02  0.20918835111E+03  0.21655455197E+03  0.41800000000E+01 0. -1.
         -5    1    3    3    0  502 -0.43495720302E+02 -0.30826996190E+02  0.58246715016E+02  0.79071699039E+02  0.41800000000E+01 0. -1.
        -11    1    1    2    0    0 -0.25571072231E+02 -0.34923499225E+02  0.14231615883E+03  0.14875288097E+03  0.00000000000E+00 0. -1.
         11    1    1    2    0    0  0.16506057769E+02  0.46882413878E+02  0.18013683840E+03  0.18686811185E+03  0.00000000000E+00 0.  1.
</event>
<event>
 7    1  0.2648915E-009  0.1643011E+03  0.7561462E-02  0.1183925E+00
          2   -1    0    0  501    0  0.00000000000E+00  0.00000000000E+00  0.10289016039E+03  0.10289016039E+03  0.00000000000E+00 0. -1.
         -2   -1    0    0    0  501 -0.00000000000E+00 -0.00000000000E+00 -0.50152928601E+03  0.50152928601E+03  0.00000000000E+00 0.  1.
         25    2    1    2    0    0 -0.13717123361E+03  0.67420054929E+02 -0.37732902615E+03  0.42589345485E+03  0.12508648916E+03 0.  0.
          5    1    3    3  502    0 -0.11587237731E+03  0.29911581863E+02 -0.13815932943E+03  0.18282938293E+03  0.41800000000E+01 0. -1.
         -5    1    3    3    0  502 -0.21298856307E+02  0.37508473066E+02 -0.23916969672E+03  0.24306407192E+03  0.41800000000E+01 0. -1.
        -11    1    1    2    0    0  0.13131147939E+03 -0.39687908791E+02  0.84366920541E+01  0.13743730387E+03  0.00000000000E+00 0. -1.
         11    1    1    2    0    0  0.58597542238E+01 -0.27732146138E+02 -0.29746791527E+02  0.41088687679E+02  0.00000000000E+00 0.  1.
</event>
<event>
 7    1  0.2648915E-009  0.1102755E+03  0.7561462E-02  0.1260061E+00
          2   -1    0    0  501    0  0.00000000000E+00  0.00000000000E+00  0.96204388565E+03  0.96204388565E+03  0.00000000000E+00 0. -1.
         -2   -1    0    0    0  501 -0.00000000000E+00 -0.00000000000E+00 -0.20826236163E+02  0.20826236163E+02  0.00000000000E+00 0.  1.
         25    2    1    2    0    0 -0.65787969425E+01  0.45765664901E+02  0.69736413913E+03  0.71000087632E+03  0.12508687048E+03 0.  0.
          5    1    3    3  502    0 -0.56966712639E+02  0.24225436942E+02  0.19483547234E+03  0.20447594437E+03  0.41800000000E+01 0.  1.
         -5    1    3    3    0  502  0.50387915697E+02  0.21540227960E+02  0.50252866680E+03  0.50552493195E+03  0.41800000000E+01 0.  1.
        -11    1    1    2    0    0 -0.43147796499E+02 -0.20464646483E+02  0.18781877471E+03  0.19379480445E+03  0.00000000000E+00 0. -1.
         11    1    1    2    0    0  0.49726593442E+02 -0.25301018419E+02  0.56034735640E+02  0.79074441045E+02  0.00000000000E+00 0.  1.
</event>
<event>
 7    1  0.2648915E-009  0.9751050E+02  0.7561462E-02  0.1285620E+00
         -2   -1    0    0    0  501 -0.00000000000E+00  0.00000000000E+00  0.83211133770E+02  0.83211133770E+02  0.00000000000E+00 0.  1.
          2   -1    0    0  501    0  0.00000000000E+00 -0.00000000000E+00 -0.19933474583E+03  0.19933474583E+03  0.00000000000E+00 0. -1.
         25    2    1    2    0    0 -0.63232663303E+02 -0.20311022068E+02 -0.85871284683E+02  0.16562773211E+03  0.12509101000E+03 0.  0.
          5    1    3    3  502    0 -0.73762199617E+01  0.43140111391E+02 -0.64970221664E+02  0.78447944108E+02  0.41800000000E+01 0.  1.
         -5    1    3    3    0  502 -0.55856443342E+02 -0.63451133460E+02 -0.20901063019E+02  0.87179787998E+02  0.41800000000E+01 0.  1.
        -11    1    1    2    0    0  0.13798228380E+02  0.41258839438E+01  0.32418014395E+02  0.35473112100E+02  0.00000000000E+00 0.  1.
         11    1    1    2    0    0  0.49434434923E+02  0.16185138125E+02 -0.62670341774E+02  0.81445035394E+02  0.00000000000E+00 0. -1.
</event>
<event>
 7    1  0.2648915E-009  0.1038753E+03  0.7561462E-02  0.1272352E+00
          1   -1    0    0  501    0  0.00000000000E+00  0.00000000000E+00  0.43697348843E+02  0.43697348843E+02  0.00000000000E+00 0. -1.
         -1   -1    0    0    0  501 -0.00000000000E+00 -0.00000000000E+00 -0.38118049845E+03  0.38118049845E+03  0.00000000000E+00 0.  1.
         25    2    1    2    0    0  0.29744796079E+02  0.39752536956E+01 -0.29493377186E+03  0.32176807991E+03  0.12509281325E+03 0.  0.
          5    1    3    3  502    0 -0.14403584257E+02  0.56877719957E+02 -0.15357760228E+03  0.16445695664E+03  0.41800000000E+01 0. -1.
         -5    1    3    3    0  502  0.44148380335E+02 -0.52902466262E+02 -0.14135616958E+03  0.15731112326E+03  0.41800000000E+01 0. -1.
        -11    1    1    2    0    0  0.12558697045E+02 -0.28397831851E+02  0.87640904932E+01  0.32264020324E+02  0.00000000000E+00 0. -1.
         11    1    1    2    0    0 -0.42303493124E+02  0.24422578156E+02 -0.51313468239E+02  0.70845747064E+02  0.00000000000E+00 0.  1.
</event>
<event>
 7    1  0.2648915E-009  0.1220806E+03  0.7561462E-02  0.1239704E+00
         -3   -1    0    0    0  501 -0.00000000000E+00  0.00000000000E+00  0.46995036267E+03  0.46995036267E+03  0.00000000000E+00 0.  1.
          3   -1    0    0  501    0  0.00000000000E+00 -0.00000000000E+00 -0.38269447377E+02  0.38269447377E+02  0.00000000000E+00 0. -1.
         25    2    1    2    0    0  0.61851811788E+02  0.86339477230E+01  0.14492346384E+03  0.20137345874E+03  0.12509303673E+03 0.  0.
          5    1    3    3  502    0  0.91989114482E+02  0.33596183702E+02  0.85338694472E+02  0.12996486416E+03  0.41800000000E+01 0.  1.
         -5    1    3    3    0  502 -0.30137302693E+02 -0.24962235979E+02  0.59584769369E+02  0.71408594577E+02  0.41800000000E+01 0.  1.
        -11    1    1    2    0    0 -0.82730726759E+02  0.31861475661E+01  0.24591909003E+03  0.25948164391E+03  0.00000000000E+00 0. -1.
         11    1    1    2    0    0  0.20878914971E+02 -0.11820095289E+02  0.40838361425E+02  0.47364707398E+02  0.00000000000E+00 0.  1.
</event>
<event>
 7    1  0.2909662E-009  0.1286790E+03  0.7561462E-02  0.1229429E+00
          2   -1    0    0  501    0  0.00000000000E+00  0.00000000000E+00  0.86955809264E+03  0.86955809264E+03  0.00000000000E+00 0. -1.
         -2   -1    0    0    0  501 -0.00000000000E+00 -0.00000000000E+00 -0.36443998273E+02  0.36443998273E+02  0.00000000000E+00 0.  1.
         25    2    1    2    0    0 -0.11461875747E+03 -0.12716349313E+02  0.23545052648E+03  0.29048709376E+03  0.12508651452E+03 0.  0.
          5    1    3    3  502    0 -0.73509524524E+02 -0.64531296482E+01  0.23740911570E+03  0.24864805187E+03  0.41800000000E+01 0. -1.
         -5    1    3    3    0  502 -0.41109232950E+02 -0.62632196647E+01 -0.19585892246E+01  0.41839041887E+02  0.41800000000E+01 0. -1.
        -11    1    1    2    0    0  0.64411912988E+02 -0.34208738420E+02  0.22367934231E+03  0.23526916605E+03  0.00000000000E+00 0.  1.
         11    1    1    2    0    0  0.50206844486E+02  0.46925087733E+02  0.37398422558E+03  0.38024583111E+03  0.00000000000E+00 0. -1.
</event>
<event>
 7    1  0.2648915E-009  0.8999805E+02  0.7561462E-02  0.1302856E+00
          1   -1    0    0  501    0  0.00000000000E+00  0.00000000000E+00  0.11259683356E+03  0.11259683356E+03  0.00000000000E+00 0.  1.
         -1   -1    0    0    0  501 -0.00000000000E+00 -0.00000000000E+00 -0.13217312296E+03  0.13217312296E+03  0.00000000000E+00 0. -1.
         25    2    1    2    0    0  0.41625064358E+02  0.34600328361E+02 -0.24644955180E+02  0.13850827271E+03  0.12508932443E+03 0.  0.
          5    1    3    3  502    0  0.58504269802E+02  0.41765484171E+02  0.32020769196E+02  0.78802965129E+02  0.41800000000E+01 0. -1.
         -5    1    3    3    0  502 -0.16879205445E+02 -0.71651558109E+01 -0.56665724375E+02  0.59705307580E+02  0.41800000000E+01 0. -1.
        -11    1    1    2    0    0 -0.39454573209E+02  0.12995246648E+02  0.31171711157E+02  0.51934722094E+02  0.00000000000E+00 0.  1.
         11    1    1    2    0    0 -0.21704911488E+01 -0.47595575009E+02 -0.26103045377E+02  0.54326961724E+02  0.00000000000E+00 0. -1.
</event>
<event>
 7    1  0.2648915E-009  0.9883530E+02  0.7561462E-02  0.1282764E+00
          1   -1    0    0  501    0  0.00000000000E+00  0.00000000000E+00  0.13693003815E+02  0.13693003815E+02  0.00000000000E+00 0. -1.
         -1   -1    0    0    0  501 -0.00000000000E+00 -0.00000000000E+00 -0.13952677714E+04  0.13952677714E+04  0.00000000000E+00 0.  1.
         25    2    1    2    0    0 -0.75039803810E+02 -0.18502339247E+02 -0.90214927894E+03  0.91405291479E+03  0.12508437488E+03 0.  0.
          5    1    3    3  502    0 -0.64263203560E+02 -0.17779555354E+02 -0.89974828583E+03  0.90222520591E+03  0.41800000000E+01 0. -1.
         -5    1    3    3    0  502 -0.10776600250E+02 -0.72278389313E+00 -0.24009931035E+01  0.11827708881E+02  0.41800000000E+01 0. -1.
        -11    1    1    2    0    0  0.90419523856E+02  0.34788079329E+02 -0.42778914914E+03  0.43862222570E+03  0.00000000000E+00 0.  1.
         11    1    1    2    0    0 -0.15379720046E+02 -0.16285740082E+02 -0.51636339561E+02  0.56285634774E+02  0.00000000000E+00 0. -1.
</event>
<event>
 7    1  0.2648915E-009  0.8664156E+02  0.7561462E-02  0.1311195E+00
         -1   -1    0    0    0  501 -0.00000000000E+00  0.00000000000E+00  0.25827303807E+03  0.25827303807E+03  0.00000000000E+00 0.  1.
          1   -1    0    0  501    0  0.00000000000E+00 -0.00000000000E+00 -0.49612330454E+02  0.49612330454E+02  0.00000000000E+00 0. -1.
         25    2    1    2    0    0  0.20069840097E+02  0.82274157115E+01  0.19230971456E+03  0.23044451070E+03  0.12510458565E+03 0.  0.
          5    1    3    3  502    0  0.56958802088E+02 -0.12159194917E+02  0.36226233233E+02  0.68716544810E+02  0.41800000000E+01 0. -1.
         -5    1    3    3    0  502 -0.36888961991E+02  0.20386610629E+02  0.15608348133E+03  0.16172796589E+03  0.41800000000E+01 0. -1.
        -11    1    1    2    0    0  0.25092014457E+02 -0.10765145360E+02  0.17072538771E+02  0.32202004972E+02  0.00000000000E+00 0. -1.
         11    1    1    2    0    0 -0.45161854554E+02  0.25377296483E+01 -0.72154571589E+00  0.45238852845E+02  0.00000000000E+00 0.  1.
</event>
<event>
 7    1  0.2648915E-009  0.7855576E+02  0.7561462E-02  0.1333201E+00
         -2   -1    0    0    0  501 -0.00000000000E+00  0.00000000000E+00  0.61093533003E+02  0.61093533003E+02  0.00000000000E+00 0.  1.
          2   -1    0    0  501    0  0.00000000000E+00 -0.00000000000E+00 -0.20024618074E+03  0.20024618074E+03  0.00000000000E+00 0. -1.
         25    2    1    2    0    0  0.17970014126E+02 -0.15811338196E+02 -0.93928940598E+02  0.15824475298E+03  0.12508331679E+03 0.  0.
          5    1    3    3  502    0 -0.37607718766E+02 -0.13090591095E+02 -0.94293625564E+02  0.10244249269E+03  0.41800000000E+01 0. -1.
         -5    1    3    3    0  502  0.55577732892E+02 -0.27207471009E+01  0.36468496635E+00  0.55802260288E+02  0.41800000000E+01 0. -1.
        -11    1    1    2    0    0 -0.81717470053E+01  0.37018376353E+02  0.13225299960E+02  0.40150295092E+02  0.00000000000E+00 0.  1.
         11    1    1    2    0    0 -0.97982671202E+01 -0.21207038158E+02 -0.58449007098E+02  0.62944665674E+02  0.00000000000E+00 0. -1.
</event>
<event>
 7    1  0.2648915E-009  0.1006197E+03  0.7561462E-02  0.1278998E+00
         -1   -1    0    0    0  501 -0.00000000000E+00  0.00000000000E+00  0.19518107192E+03  0.19518107192E+03  0.00000000000E+00 0.  1.
          1   -1    0    0  501    0  0.00000000000E+00 -0.00000000000E+00 -0.64639367651E+02  0.64639367651E+02  0.00000000000E+00 0. -1.
         25    2    1    2    0    0 -0.14903877206E+02 -0.41453272643E+02  0.53623437953E+02  0.14304930320E+03  0.12508849139E+03 0.  0.
          5    1    3    3  502    0  0.32955949559E+02  0.24121696390E+02  0.45609577403E+02  0.61364947641E+02  0.41800000000E+01 0.  1.
         -5    1    3    3    0  502 -0.47859826765E+02 -0.65574969033E+02  0.80138605499E+01  0.81684355556E+02  0.41800000000E+01 0.  1.
        -11    1    1    2    0    0  0.56249342302E+01  0.58882150789E+02  0.76911153485E+02  0.97026146461E+02  0.00000000000E+00 0.  1.
         11    1    1    2    0    0  0.92789429757E+01 -0.17428878145E+02  0.71128322011E-02  0.19744989915E+02  0.00000000000E+00 0. -1.
</event>
<event>
 7    1  0.2648915E-009  0.8499534E+02  0.7561462E-02  0.1315445E+00
          1   -1    0    0  501    0  0.00000000000E+00  0.00000000000E+00  0.97742330067E+02  0.97742330067E+02  0.00000000000E+00 0. -1.
         -1   -1    0    0    0  501 -0.00000000000E+00 -0.00000000000E+00 -0.19525374594E+03  0.19525374594E+03  0.00000000000E+00 0.  1.
         25    2    1    2    0    0 -0.70838615019E+02  0.42572164137E+02 -0.75752122618E+02  0.16797749019E+03  0.12509018584E+03 0.  0.
          5    1    3    3  502    0 -0.19649986198E+02  0.25178278225E+02 -0.10255205449E+03  0.10749169239E+03  0.41800000000E+01 0. -1.
         -5    1    3    3    0  502 -0.51188628821E+02  0.17393885912E+02  0.26799931873E+02  0.60485797805E+02  0.41800000000E+01 0. -1.
        -11    1    1    2    0    0  0.29290582267E+02 -0.24746199971E+02 -0.56304056309E+02  0.68120917341E+02  0.00000000000E+00 0.  1.
         11    1    1    2    0    0  0.41548032752E+02 -0.17825964167E+02  0.34544763050E+02  0.56897668478E+02  0.00000000000E+00 0. -1.
</event>
<event>
 7    1  0.2648915E-009  0.1045400E+03  0.7561462E-02  0.1271029E+00
         -3   -1    0    0    0  501 -0.00000000000E+00  0.00000000000E+00  0.14825391597E+03  0.14825391597E+03  0.00000000000E+00 0. -1.
          3   -1    0    0  501    0  0.00000000000E+00 -0.00000000000E+00 -0.11279369333E+03  0.11279369333E+03  0.00000000000E+00 0.  1.
         25    2    1    2    0    0 -0.34371213979E+00 -0.95228742041E+01 -0.50911804058E+02  0.13539221229E+03  0.12509290981E+03 0.  0.
          5    1    3    3  502    0  0.43083467441E+02  0.35250238479E+02 -0.17291505405E+01  0.55850038864E+02  0.41800000000E+01 0. -1.
         -5    1    3    3    0  502 -0.43427179581E+02 -0.44773112683E+02 -0.49182653517E+02  0.79542173422E+02  0.41800000000E+01 0. -1.
        -11    1    1    2    0    0 -0.62695404727E+01  0.49665109820E+02  0.54269241185E+02  0.73831435107E+02  0.00000000000E+00 0. -1.
         11    1    1    2    0    0  0.66132526125E+01 -0.40142235616E+02  0.32102785511E+02  0.51823961909E+02  0.00000000000E+00 0.  1.
</event>
<event>
 7    1  0.2648915E-009  0.1043202E+03  0.7561462E-02  0.1271465E+00
         -2   -1    0    0    0  501 -0.00000000000E+00  0.00000000000E+00  0.10905357600E+02  0.10905357600E+02  0.00000000000E+00 0.  1.
          2   -1    0    0  501    0  0.00000000000E+00 -0.00000000000E+00 -0.12062288803E+04  0.12062288803E+04  0.00000000000E+00 0. -1.
         25    2    1    2    0    0 -0.20793981918E+02  0.26688929997E+02 -0.67335017960E+03  0.68570579442E+03  0.12508910211E+03 0.  0.
          5    1    3    3  502    0 -0.62961144480E+02  0.12039211171E+02 -0.56213418750E+03  0.56579268772E+03  0.41800000000E+01 0. -1.
         -5    1    3    3    0  502  0.42167162562E+02  0.14649718826E+02 -0.11121599210E+03  0.11991310670E+03  0.41800000000E+01 0. -1.
        -11    1    1    2    0    0 -0.29691602379E+02 -0.37606621979E+02 -0.23312950248E+03  0.23800255082E+03  0.00000000000E+00 0.  1.
         11    1    1    2    0    0  0.50485584297E+02  0.10917691982E+02 -0.28884384061E+03  0.29342589265E+03  0.00000000000E+00 0. -1.
</event>
<event>
 7    1  0.2648915E-009  0.7086775E+02  0.7561462E-02  0.1357167E+00
          2   -1    0    0  501    0  0.00000000000E+00  0.00000000000E+00  0.56870728848E+03  0.56870728848E+03  0.00000000000E+00 0. -1.
         -2   -1    0    0    0  501 -0.00000000000E+00 -0.00000000000E+00 -0.25327389562E+02  0.25327389562E+02  0.00000000000E+00 0.  1.
         25    2    1    2    0    0 -0.15557648039E+00  0.40060493109E+02  0.37923381376E+03  0.40133670294E+03  0.12509195143E+03 0.  0.
          5    1    3    3  502    0  0.42199942164E+01  0.43333417560E+02  0.32393033790E+02  0.54427699443E+02  0.41800000000E+01 0. -1.
         -5    1    3    3    0  502 -0.43755706968E+01 -0.32729244508E+01  0.34684077997E+03  0.34690900350E+03  0.41800000000E+01 0. -1.
        -11    1    1    2    0    0 -0.40726987774E+02 -0.16588544350E+02  0.38313862322E+02  0.58325117941E+02  0.00000000000E+00 0.  1.
         11    1    1    2    0    0  0.40882564255E+02 -0.23471948759E+02  0.12583222283E+03  0.13437285716E+03  0.00000000000E+00 0. -1.
</event>
<event>
 7    1  0.2648915E-009  0.1808970E+03  0.7561462E-02  0.1166938E+00
         -1   -1    0    0    0  501 -0.00000000000E+00  0.00000000000E+00  0.42004260087E+02  0.42004260087E+02  0.00000000000E+00 0.  1.
          1   -1    0    0  501    0  0.00000000000E+00 -0.00000000000E+00 -0.93698560121E+03  0.93698560121E+03  0.00000000000E+00 0. -1.
         25    2    1    2    0    0  0.13779126622E+03 -0.59676709119E+02 -0.29882858430E+03  0.35705907559E+03  0.12507964668E+03 0.  0.
          5    1    3    3  502    0  0.31878356729E+02  0.37311819884E+02 -0.10309210224E+03  0.11425347030E+03  0.41800000000E+01 0. -1.
         -5    1    3    3    0  502  0.10591290949E+03 -0.96988529003E+02 -0.19573648206E+03  0.24280560529E+03  0.41800000000E+01 0. -1.
        -11    1    1    2    0    0 -0.12340493764E+03  0.17915530107E+02 -0.34323084785E+03  0.36518099590E+03  0.00000000000E+00 0.  1.
         11    1    1    2    0    0 -0.14386328571E+02  0.41761179012E+02 -0.25292190897E+03  0.25674978980E+03  0.00000000000E+00 0. -1.
</event>
<event>
 7    1  0.2648915E-009  0.2743355E+03  0.7561462E-02  0.1098824E+00
          2   -1    0    0  501    0  0.00000000000E+00  0.00000000000E+00  0.57757588102E+02  0.57757588102E+02  0.00000000000E+00 0.  1.
         -2   -1    0    0    0  501 -0.00000000000E+00 -0.00000000000E+00 -0.14074506575E+04  0.14074506575E+04  0.00000000000E+00 0. -1.
         25    2    1    2    0    0 -0.65490963896E+02  0.25128263515E+03 -0.57731942146E+03  0.64527280321E+03  0.12508895669E+03 0.  0.
          5    1    3    3  502    0 -0.23859836090E+01 -0.13826798879E+02 -0.43567917179E+02  0.45962039689E+02  0.41800000000E+01 0. -1.
         -5    1    3    3    0  502 -0.63104980287E+02  0.26510943403E+03 -0.53375150428E+03  0.59931076352E+03  0.41800000000E+01 0. -1.
        -11    1    1    2    0    0  0.16221297551E+02 -0.12296425158E+03 -0.49594474670E+03  0.51121867086E+03  0.00000000000E+00 0. -1.
         11    1    1    2    0    0  0.49269666344E+02 -0.12831838357E+03 -0.27642890122E+03  0.30871677151E+03  0.00000000000E+00 0.  1.
</event>
<event>
 7    1  0.2648915E-009  0.8880399E+02  0.7561462E-02  0.1305774E+00
          2   -1    0    0  501    0  0.00000000000E+00  0.00000000000E+00  0.15772653645E+03  0.15772653645E+03  0.00000000000E+00 0. -1.
         -2   -1    0    0    0  501 -0.00000000000E+00 -0.00000000000E+00 -0.87531528342E+02  0.87531528342E+02  0.00000000000E+00 0.  1.
         25    2    1    2    0    0 -0.43275851653E+02  0.10499112986E+02  0.53339700314E+02  0.14309302059E+03  0.12508980056E+03 0.  0.
          5    1    3    3  502    0 -0.56499700219E+02 -0.95623134187E+01 -0.23800003061E+02  0.62189762087E+02  0.41800000000E+01 0. -1.
         -5    1    3    3    0  502  0.13223848565E+02  0.20061426404E+02  0.77139703376E+02  0.80903258508E+02  0.41800000000E+01 0. -1.
        -11    1    1    2    0    0  0.69187735825E+02 -0.58104552618E+01  0.26219359514E+02  0.74216972400E+02  0.00000000000E+00 0. -1.
         11    1    1    2    0    0 -0.25911884171E+02 -0.46886577240E+01 -0.93640517204E+01  0.27948071797E+02  0.00000000000E+00 0.  1.
</event>
<event>
 7    1  0.2648915E-009  0.8179510E+02  0.7561462E-02  0.1324033E+00
          2   -1    0    0  501    0  0.00000000000E+00  0.00000000000E+00  0.86208911559E+03  0.86208911559E+03  0.00000000000E+00 0. -1.
         -2   -1    0    0    0  501 -0.00000000000E+00 -0.00000000000E+00 -0.22149305035E+02  0.22149305035E+02  0.00000000000E+00 0.  1.
         25    2    1    2    0    0  0.16805515659E+01 -0.38288692487E+02  0.70271609475E+03  0.71479089418E+03  0.12508902571E+03 0.  0.
          5    1    3    3  502    0 -0.19559514358E+01  0.19065494408E+02  0.56712613683E+03  0.56746528202E+03  0.41800000000E+01 0. -1.
         -5    1    3    3    0  502  0.36365030017E+01 -0.57354186895E+02  0.13558995792E+03  0.14732561215E+03  0.41800000000E+01 0. -1.
        -11    1    1    2    0    0  0.37845277518E+02  0.19914309276E+02  0.26147696766E+02  0.50125310877E+02  0.00000000000E+00 0.  1.
         11    1    1    2    0    0 -0.39525829084E+02  0.18374383211E+02  0.11107601904E+03  0.11932221557E+03  0.00000000000E+00 0. -1.
</event>
<event>
 7    1  0.2648915E-009  0.7277642E+02  0.7561462E-02  0.1350898E+00
          1   -1    0    0  501    0  0.00000000000E+00  0.00000000000E+00  0.48427986961E+02  0.48427986961E+02  0.00000000000E+00 0. -1.
         -1   -1    0    0    0  501 -0.00000000000E+00 -0.00000000000E+00 -0.34368708711E+03  0.34368708711E+03  0.00000000000E+00 0.  1.
         25    2    1    2    0    0  0.20705207455E+02 -0.66364462472E+02 -0.12623033213E+03  0.19082593704E+03  0.12508994365E+03 0.  0.
          5    1    3    3  502    0  0.13535156326E+02 -0.13338341023E+02 -0.13504128821E+03  0.13643582271E+03  0.41800000000E+01 0.  1.
         -5    1    3    3    0  502  0.71700511282E+01 -0.53026121449E+02  0.88109560793E+01  0.54390114324E+02  0.41800000000E+01 0.  1.
        -11    1    1    2    0    0  0.18705033592E+01  0.26849721996E+02 -0.14926774627E+03  0.15167487080E+03  0.00000000000E+00 0.  1.
         11    1    1    2    0    0 -0.22575710814E+02  0.39514740476E+02 -0.19761021743E+02  0.49614266235E+02  0.00000000000E+00 0. -1.
</event>
<event>
 7    1  0.2648915E-009  0.1021284E+03  0.7561462E-02  0.1275883E+00
         -2   -1    0    0    0  501 -0.00000000000E+00  0.00000000000E+00  0.38185325764E+02  0.38185325764E+02  0.00000000000E+00 0.  1.
          2   -1    0    0  501    0  0.00000000000E+00 -0.00000000000E+00 -0.37439472238E+03  0.37439472238E+03  0.00000000000E+00 0. -1.
         25    2    1    2    0    0  0.41959333657E+02  0.13617308199E+01 -0.17347303075E+03  0.21795438806E+03  0.12509509538E+03 0.  0.
          5    1    3    3  502    0  0.59060536029E+02 -0.44715771473E+02 -0.64402205064E+02  0.98248478622E+02  0.41800000000E+01 0. -1.
         -5    1    3    3    0  502 -0.17101202373E+02  0.46077502293E+02 -0.10907082568E+03  0.11970590944E+03  0.41800000000E+01 0. -1.
        -11    1    1    2    0    0  0.60907196055E+01  0.25135217946E+02 -0.33748157172E+01  0.26081898466E+02  0.00000000000E+00 0.  1.
         11    1    1    2    0    0 -0.48050053262E+02 -0.26496948765E+02 -0.15936155015E+03  0.16854376162E+03  0.00000000000E+00 0. -1.
</event>
<event>
 7    1  0.2648915E-009  0.1020690E+03  0.7561462E-02  0.1276004E+00
          1   -1    0    0  501    0  0.00000000000E+00  0.00000000000E+00  0.17620534404E+03  0.17620534404E+03  0.00000000000E+00 0.  1.
         -1   -1    0    0    0  501 -0.00000000000E+00 -0.00000000000E+00 -0.93787055596E+02  0.93787055596E+02  0.00000000000E+00 0. -1.
         25    2    1    2    0    0  0.21649001949E+02  0.60589923155E+02  0.20350798116E+02  0.14213288663E+03  0.12509110442E+03 0.  0.
          5    1    3    3  502    0 -0.24117504737E+02 -0.30441851337E+01  0.51956841708E+02  0.57514406005E+02  0.41800000000E+01 0. -1.
         -5    1    3    3    0  502  0.45766506686E+02  0.63634108288E+02 -0.31606043591E+02  0.84618480626E+02  0.41800000000E+01 0. -1.
        -11    1    1    2    0    0  0.28117344619E+02 -0.35375891477E+02  0.10767599989E+01  0.45201749726E+02  0.00000000000E+00 0. -1.
         11    1    1    2    0    0 -0.49766346568E+02 -0.25214031678E+02  0.60990730328E+02  0.82657763278E+02  0.00000000000E+00 0.  1.
</event>
<event>
 7    1  0.2648915E-009  0.2090275E+03  0.7561462E-02  0.1142338E+00
          2   -1    0    0  501    0  0.00000000000E+00  0.00000000000E+00  0.45682217704E+02  0.45682217704E+02  0.00000000000E+00 0. -1.
         -2   -1    0    0    0  501 -0.00000000000E+00 -0.00000000000E+00 -0.10537980245E+04  0.10537980245E+04  0.00000000000E+00 0.  1.
         25    2    1    2    0    0  0.12962834223E+03  0.12632673418E+03 -0.67847604813E+03  0.71325857104E+03  0.12508433311E+03 0.  0.
          5    1    3    3  502    0  0.15642600970E+02 -0.25239402868E+02 -0.79722396370E+02  0.85175414911E+02  0.41800000000E+01 0.  1.
         -5    1    3    3    0  502  0.11398574126E+03  0.15156613705E+03 -0.59875365176E+03  0.62808315612E+03  0.41800000000E+01 0.  1.
        -11    1    1    2    0    0 -0.83101713840E+02 -0.12708673091E+03 -0.22209023197E+03  0.26903717801E+03  0.00000000000E+00 0. -1.
         11    1    1    2    0    0 -0.46526628389E+02  0.75999673522E+00 -0.10754952674E+03  0.11718449320E+03  0.00000000000E+00 0.  1.
</event>
<event>
 7    1  0.2648915E-009  0.1353872E+03  0.7561462E-02  0.1219674E+00
         -2   -1    0    0    0  501 -0.00000000000E+00  0.00000000000E+00  0.25316244848E+03  0.25316244848E+03  0.00000000000E+00 0.  1.
          2   -1    0    0  501    0  0.00000000000E+00 -0.00000000000E+00 -0.10627686136E+03  0.10627686136E+03  0.00000000000E+00 0. -1.
         25    2    1    2    0    0  0.91095888060E+02  0.17624670958E+02  0.15544151638E+03  0.22004137467E+03  0.12508817572E+03 0.  0.
          5    1    3    3  502    0 -0.27918649700E+02  0.19357005496E+02  0.52204318632E+02  0.62425218836E+02  0.41800000000E+01 0.  1.
         -5    1    3    3    0  502  0.11901453776E+03 -0.17323345386E+01  0.10323719775E+03  0.15761615583E+03  0.41800000000E+01 0.  1.
        -11    1    1    2    0    0 -0.25512520679E+02 -0.40602621160E+02  0.33201385416E+02  0.58324896485E+02  0.00000000000E+00 0.  1.
         11    1    1    2    0    0 -0.65583367381E+02  0.22977950203E+02 -0.41757314676E+02  0.81073038684E+02  0.00000000000E+00 0. -1.
</event>
<event>
 7    1  0.2648915E-009  0.1045318E+03  0.7561462E-02  0.1271045E+00
          2   -1    0    0  501    0  0.00000000000E+00  0.00000000000E+00  0.74553805533E+03  0.74553805533E+03  0.00000000000E+00 0.  1.
         -2   -1    0    0    0  501 -0.00000000000E+00 -0.00000000000E+00 -0.17073126193E+02  0.17073126193E+02  0.00000000000E+00 0. -1.
         25    2    1    2    0    0 -0.34620971449E+01  0.27824417823E+02  0.41615535785E+03  0.43545110882E+03  0.12508477909E+03 0.  0.
          5    1    3    3  502    0 -0.43080383749E+02 -0.27271338703E+02  0.10305936178E+03  0.11505802809E+03  0.41800000000E+01 0. -1.
         -5    1    3    3    0  502  0.39618286604E+02  0.55095756527E+02  0.31309599607E+03  0.32039308073E+03  0.41800000000E+01 0. -1.
        -11    1    1    2    0    0 -0.39415737086E+02 -0.25561042517E+02  0.99116583312E+02  0.10968620839E+03  0.00000000000E+00 0. -1.
         11    1    1    2    0    0  0.42877834231E+02 -0.22633753065E+01  0.21319298797E+03  0.21747386430E+03  0.00000000000E+00 0.  1.
</event>
<event>
 7    1  0.2648915E-009  0.1150330E+03  0.7561462E-02  0.1251524E+00
          2   -1    0    0  501    0  0.00000000000E+00  0.00000000000E+00  0.28135608009E+03  0.28135608009E+03  0.00000000000E+00 0. -1.
         -2   -1    0    0    0  501 -0.00000000000E+00 -0.00000000000E+00 -0.67857780646E+02  0.67857780646E+02  0.00000000000E+00 0.  1.
         25    2    1    2    0    0  0.48696774908E+02 -0.44920049565E+01  0.28576554507E+02  0.13731451741E+03  0.12508838168E+03 0.  0.
          5    1    3    3  502    0 -0.27426552198E+02 -0.37633689556E+02 -0.62763955306E+01  0.47173889981E+02  0.41800000000E+01 0.  1.
         -5    1    3    3    0  502  0.76123327106E+02  0.33141684600E+02  0.34852950037E+02  0.90140627433E+02  0.41800000000E+01 0.  1.
        -11    1    1    2    0    0 -0.72040341929E+01  0.42984234034E+02  0.10747509727E+03  0.11597602777E+03  0.00000000000E+00 0. -1.
         11    1    1    2    0    0 -0.41492740715E+02 -0.38492229078E+02  0.77446647662E+02  0.95923315547E+02  0.00000000000E+00 0.  1.
</event>
<event>
 7    1  0.2648915E-009  0.9002491E+02  0.7561462E-02  0.1302791E+00
         -3   -1    0    0    0  501 -0.00000000000E+00  0.00000000000E+00  0.35346847630E+02  0.35346847630E+02  0.00000000000E+00 0.  1.
          3   -1    0    0  501    0  0.00000000000E+00 -0.00000000000E+00 -0.42702529069E+03  0.42702529069E+03  0.00000000000E+00 0. -1.
         25    2    1    2    0    0 -0.20396084036E+02  0.48243837845E+00 -0.32062182774E+03  0.34476448888E+03  0.12509181979E+03 0.  0.
          5    1    3    3  502    0 -0.20508502575E+02 -0.59897592462E+02 -0.12809091838E+03  0.14294431095E+03  0.41800000000E+01 0. -1.
         -5    1    3    3    0  502  0.11241853817E+00  0.60380030840E+02 -0.19253090935E+03  0.20182017793E+03  0.41800000000E+01 0. -1.
        -11    1    1    2    0    0  0.37284339489E+02 -0.70694938020E+01  0.60243269622E+01  0.38423849743E+02  0.00000000000E+00 0.  1.
         11    1    1    2    0    0 -0.16888255453E+02  0.65870554235E+01 -0.77080942284E+02  0.79183799699E+02  0.00000000000E+00 0. -1.
</event>
<event>
 7    1  0.2648915E-009  0.1030940E+03  0.7561462E-02  0.1273921E+00
         -1   -1    0    0    0  501 -0.00000000000E+00  0.00000000000E+00  0.15633032880E+03  0.15633032880E+03  0.00000000000E+00 0.  1.
          1   -1    0    0  501    0  0.00000000000E+00 -0.00000000000E+00 -0.14227379878E+03  0.14227379878E+03  0.00000000000E+00 0. -1.
         25    2    1    2    0    0 -0.26818136165E+02 -0.32859601999E+02 -0.84500807889E+02  0.15680229401E+03  0.12509039533E+03 0.  0.
          5    1    3    3  502    0 -0.76264272277E+02 -0.94816649367E+01 -0.44398307012E+02  0.88852817972E+02  0.41800000000E+01 0. -1.
         -5    1    3    3    0  502  0.49446136112E+02 -0.23377937062E+02 -0.40102500878E+02  0.67949476042E+02  0.41800000000E+01 0. -1.
        -11    1    1    2    0    0 -0.15981820730E+02  0.26714949462E+02 -0.31456192275E+01  0.31289008277E+02  0.00000000000E+00 0. -1.
         11    1    1    2    0    0  0.42799956896E+02  0.61446525369E+01  0.10170295713E+03  0.11051282529E+03  0.00000000000E+00 0.  1.
</event>
<event>
 7    1  0.2648915E-009  0.2226383E+03  0.7561462E-02  0.1131931E+00
         -1   -1    0    0    0  501 -0.00000000000E+00  0.00000000000E+00  0.83777352902E+02  0.83777352902E+02  0.00000000000E+00 0.  1.
          1   -1    0    0  501    0  0.00000000000E+00 -0.00000000000E+00 -0.73912877248E+03  0.73912877248E+03  0.00000000000E+00 0. -1.
         25    2    1    2    0    0 -0.26684428050E+02 -0.19382352688E+03 -0.51498090994E+03  0.56491843914E+03  0.12509151452E+03 0.  0.
          5    1    3    3  502    0  0.42806253528E+02 -0.12145300039E+03 -0.24398502101E+03  0.27591551156E+03  0.41800000000E+01 0. -1.
         -5    1    3    3    0  502 -0.69490681578E+02 -0.72370526494E+02 -0.27099588894E+03  0.28900292758E+03  0.41800000000E+01 0. -1.
        -11    1    1    2    0    0 -0.31059158431E+02  0.10946183298E+03 -0.82161320806E+02  0.14034616788E+03  0.00000000000E+00 0.  1.
         11    1    1    2    0    0  0.57743586481E+02  0.84361693901E+02 -0.58209188830E+02  0.11764151836E+03  0.00000000000E+00 0. -1.
</event>
<event>
 7    1  0.2648915E-009  0.1026725E+03  0.7561462E-02  0.1274774E+00
          1   -1    0    0  501    0  0.00000000000E+00  0.00000000000E+00  0.16707407038E+03  0.16707407038E+03  0.00000000000E+00 0. -1.
         -1   -1    0    0    0  501 -0.00000000000E+00 -0.00000000000E+00 -0.87745811089E+02  0.87745811089E+02  0.00000000000E+00 0.  1.
         25    2    1    2    0    0 -0.37905905908E+02  0.12258664437E+02  0.86922282446E+02  0.15745293628E+03  0.12509520935E+03 0.  0.
          5    1    3    3  502    0  0.20970807407E+02  0.52539285182E+02  0.21793168995E+02  0.60766486368E+02  0.41800000000E+01 0. -1.
         -5    1    3    3    0  502 -0.58876713314E+02 -0.40280620745E+02  0.65129113452E+02  0.96686449916E+02  0.41800000000E+01 0. -1.
        -11    1    1    2    0    0 -0.18000145370E+02 -0.11288376676E+02  0.24871034615E+02  0.32710870428E+02  0.00000000000E+00 0. -1.
         11    1    1    2    0    0  0.55906051278E+02 -0.97028776021E+00 -0.32465057766E+02  0.64656074761E+02  0.00000000000E+00 0.  1.
</event>
<event>
 7    1  0.2648915E-009  0.1056049E+03  0.7561462E-02  0.1268932E+00
         -1   -1    0    0    0  501 -0.00000000000E+00  0.00000000000E+00  0.21742646576E+02  0.21742646576E+02  0.00000000000E+00 0.  1.
          1   -1    0    0  501    0  0.00000000000E+00 -0.00000000000E+00 -0.70555797102E+03  0.70555797102E+03  0.00000000000E+00 0. -1.
         25    2    1    2    0    0  0.29754421187E+02 -0.33152155027E+01 -0.53550053340E+03  0.55073088584E+03  0.12508945245E+03 0.  0.
          5    1    3    3  502    0  0.23457847911E+02  0.57309930200E+02 -0.19029601829E+03  0.20016179881E+03  0.41800000000E+01 0.  1.
         -5    1    3    3    0  502  0.62965732756E+01 -0.60625145703E+02 -0.34520451511E+03  0.35056908703E+03  0.41800000000E+01 0.  1.
        -11    1    1    2    0    0 -0.53507360518E+02  0.21974648095E+02 -0.60489434527E+02  0.83695247643E+02  0.00000000000E+00 0.  1.
         11    1    1    2    0    0  0.23752939332E+02 -0.18659432593E+02 -0.87825356518E+02  0.92874484112E+02  0.00000000000E+00 0. -1.
</event>
<event>
 7    1  0.2648915E-009  0.1284846E+03  0.7561462E-02  0.1229722E+00
          2   -1    0    0  501    0  0.00000000000E+00  0.00000000000E+00  0.73456837292E+03  0.73456837292E+03  0.00000000000E+00 0. -1.
         -2   -1    0    0    0  501 -0.00000000000E+00 -0.00000000000E+00 -0.26893587936E+02  0.26893587936E+02  0.00000000000E+00 0.  1.
         25    2    1    2    0    0 -0.85865844101E+02  0.18181423128E+02  0.42850564475E+03  0.45493727572E+03  0.12508928782E+03 0.  0.
          5    1    3    3  502    0 -0.74263397740E+02 -0.41217944358E+02  0.31451590848E+03  0.32580930046E+03  0.41800000000E+01 0.  1.
         -5    1    3    3    0  502 -0.11602446361E+02  0.59399367486E+02  0.11398973627E+03  0.12912797526E+03  0.41800000000E+01 0.  1.
        -11    1    1    2    0    0  0.93020744115E+02 -0.14100783480E+01  0.27103873373E+03  0.28656036421E+03  0.00000000000E+00 0. -1.
         11    1    1    2    0    0 -0.71549000138E+01 -0.16771344779E+02  0.81304065035E+01  0.19964320921E+02  0.00000000000E+00 0.  1.
</event>
<event>
 7    1  0.2648915E-009  0.1930970E+03  0.7561462E-02  0.1155697E+00
          1   -1    0    0  501    0  0.00000000000E+00  0.00000000000E+00  0.60711924724E+03  0.60711924724E+03  0.00000000000E+00 0. -1.
         -1   -1    0    0    0  501 -0.00000000000E+00 -0.00000000000E+00 -0.63375020483E+02  0.63375020483E+02  0.00000000000E+00 0.  1.
         25    2    1    2    0    0  0.14951941133E+03  0.71822524121E+02  0.27652068562E+03  0.34586676598E+03  0.12508237645E+03 0.  0.
          5    1    3    3  502    0  0.84542465980E+02  0.10436884440E+03  0.16681533269E+03  0.21420810408E+03  0.41800000000E+01 0.  1.
         -5    1    3    3    0  502  0.64976945348E+02 -0.32546320276E+02  0.10970535293E+03  0.13165866190E+03  0.41800000000E+01 0.  1.
        -11    1    1    2    0    0 -0.89693322883E+02 -0.78017293419E+02  0.21158846961E+03  0.24269583992E+03  0.00000000000E+00 0. -1.
         11    1    1    2    0    0 -0.59826088445E+02  0.61947692983E+01  0.55635071517E+02  0.81931661817E+02  0.00000000000E+00 0.  1.
</event>
<event>
 7    1  0.2648915E-009  0.1350718E+03  0.7561462E-02  0.1220118E+00
         -1   -1    0    0    0  501 -0.00000000000E+00  0.00000000000E+00  0.14552696626E+03  0.14552696626E+03  0.00000000000E+00 0.  1.
          1   -1    0    0  501    0  0.00000000000E+00 -0.00000000000E+00 -0.15626533093E+03  0.15626533093E+03  0.00000000000E+00 0. -1.
         25    2    1    2    0    0 -0.42675357739E+02  0.84878188061E+02 -0.50430618728E+02  0.16497231561E+03  0.12508846728E+03 0.  0.
          5    1    3    3  502    0  0.42297487016E+02  0.46819643939E+02 -0.27727110771E+02  0.69046517205E+02  0.41800000000E+01 0.  1.
         -5    1    3    3    0  502 -0.84972844754E+02  0.38058544122E+02 -0.22703507957E+02  0.95925798406E+02  0.41800000000E+01 0.  1.
        -11    1    1    2    0    0  0.42855832219E+02 -0.17437400249E+02  0.50531301558E+02  0.68513485678E+02  0.00000000000E+00 0.  1.
         11    1    1    2    0    0 -0.18047447996E+00 -0.67440787812E+02 -0.10839047499E+02  0.68306495902E+02  0.00000000000E+00 0. -1.
</event>
<event>
 7    1  0.2648915E-009  0.1222755E+03  0.7561462E-02  0.1239390E+00
         -2   -1    0    0    0  501 -0.00000000000E+00  0.00000000000E+00  0.23866230571E+02  0.23866230571E+02  0.00000000000E+00 0.  1.
          2   -1    0    0  501    0  0.00000000000E+00 -0.00000000000E+00 -0.69256910001E+03  0.69256910001E+03  0.00000000000E+00 0. -1.
         25    2    1    2    0    0  0.58049546423E+02 -0.67078565997E+01 -0.47017203227E+03  0.49002478796E+03  0.12509119755E+03 0.  0.
          5    1    3    3  502    0 -0.93666811509E+01  0.49248215135E+02 -0.16509489297E+03  0.17258886840E+03  0.41800000000E+01 0. -1.
         -5    1    3    3    0  502  0.67416227574E+02 -0.55956071734E+02 -0.30507713930E+03  0.31743591956E+03  0.41800000000E+01 0. -1.
        -11    1    1    2    0    0 -0.45685427102E+02 -0.38450774193E+02 -0.13381649946E+03  0.14653489623E+03  0.00000000000E+00 0. -1.
         11    1    1    2    0    0 -0.12364119321E+02  0.45158630792E+02 -0.64714337717E+02  0.79875646399E+02  0.00000000000E+00 0.  1.
</event>
<event>
 7    1  0.2648915E-009  0.1902886E+03  0.7561462E-02  0.1158201E+00
         -2   -1    0    0    0  501 -0.00000000000E+00  0.00000000000E+00  0.86853835145E+02  0.86853835145E+02  0.00000000000E+00 0.  1.
          2   -1    0    0  501    0  0.00000000000E+00 -0.00000000000E+00 -0.56557751371E+03  0.56557751371E+03  0.00000000000E+00 0. -1.
         25    2    1    2    0    0  0.61625829617E+02 -0.16831495858E+03 -0.14855629659E+03  0.26428180702E+03  0.12509289391E+03 0.  0.
          5    1    3    3  502    0  0.61242027309E+02 -0.42359776285E+02 -0.10922985403E+03  0.13226326008E+03  0.41800000000E+01 0.  1.
         -5    1    3    3    0  502  0.38380230832E+00 -0.12595518229E+03 -0.39326442552E+02  0.13201854693E+03  0.41800000000E+01 0.  1.
        -11    1    1    2    0    0 -0.22285224466E+02  0.40353049094E+02 -0.18508496657E+03  0.19073920586E+03  0.00000000000E+00 0. -1.
         11    1    1    2    0    0 -0.39340605151E+02  0.12796190948E+03 -0.14508241542E+03  0.19741033599E+03  0.00000000000E+00 0.  1.
</event>
<event>
 7    1  0.2648915E-009  0.2349338E+03  0.7561462E-02  0.1123215E+00
          2   -1    0    0  501    0  0.00000000000E+00  0.00000000000E+00  0.21584261562E+04  0.21584261562E+04  0.00000000000E+00 0. -1.
         -2   -1    0    0    0  501 -0.00000000000E+00 -0.00000000000E+00 -0.36345421576E+02  0.36345421576E+02  0.00000000000E+00 0.  1.
         25    2    1    2    0    0  0.95459347318E+02 -0.19836825637E+03  0.16143941279E+04  0.16341292711E+04  0.12509045729E+03 0.  0.
          5    1    3    3  502    0  0.59085237175E+02 -0.13549672443E+02  0.53207020091E+03  0.53552855196E+03  0.41800000000E+01 0.  1.
         -5    1    3    3    0  502  0.36374110143E+02 -0.18481858392E+03  0.10823239270E+04  0.10986007191E+04  0.41800000000E+01 0.  1.
        -11    1    1    2    0    0 -0.76936718085E+02  0.14410637287E+03  0.26525050628E+03  0.31151843665E+03  0.00000000000E+00 0.  1.
         11    1    1    2    0    0 -0.18522629233E+02  0.54261883496E+02  0.24243610051E+03  0.24912387004E+03  0.00000000000E+00 0. -1.
</event>
<event>
 7    1  0.2648915E-009  0.2873848E+03  0.7561462E-02  0.1091723E+00
         -1   -1    0    0    0  501 -0.00000000000E+00  0.00000000000E+00  0.10238015837E+03  0.10238015837E+03  0.00000000000E+00 0.  1.
          1   -1    0    0  501    0  0.00000000000E+00 -0.00000000000E+00 -0.13539655312E+04  0.13539655312E+04  0.00000000000E+00 0. -1.
         25    2    1    2    0    0  0.22140300247E+03 -0.16984222693E+03 -0.10695315537E+04  0.11123906911E+04  0.12509849579E+03 0.  0.
          5    1    3    3  502    0  0.68984351923E+02 -0.94427250883E+02 -0.25909047846E+03  0.28428980803E+03  0.41800000000E+01 0. -1.
         -5    1    3    3    0  502  0.15241865055E+03 -0.75414976045E+02 -0.81044107523E+03  0.82810088303E+03  0.41800000000E+01 0. -1.
        -11    1    1    2    0    0 -0.77401600135E+02  0.10312350361E+03 -0.53029468833E+02  0.13941875507E+03  0.00000000000E+00 0.  1.
         11    1    1    2    0    0 -0.14400140234E+03  0.66718723318E+02 -0.12902435033E+03  0.20453624347E+03  0.00000000000E+00 0. -1.
</event>
<event>
 7    1  0.2648915E-009  0.1276178E+03  0.7561462E-02  0.1231034E+00
         -1   -1    0    0    0  501 -0.00000000000E+00  0.00000000000E+00  0.47437567697E+02  0.47437567697E+02  0.00000000000E+00 0.  1.
          1   -1    0    0  501    0  0.00000000000E+00 -0.00000000000E+00 -0.59223723892E+03  0.59223723892E+03  0.00000000000E+00 0. -1.
         25    2    1    2    0    0 -0.28777611420E+02  0.90524389031E+02 -0.45235474730E+03  0.47885266364E+03  0.12510891313E+03 0.  0.
          5    1    3    3  502    0 -0.51310223771E+02 -0.73773184084E+01 -0.21258121087E+03  0.21885019421E+03  0.41800000000E+01 0. -1.
         -5    1    3    3    0  502  0.22532612352E+02  0.97901707439E+02 -0.23977353642E+03  0.26000246943E+03  0.41800000000E+01 0. -1.
        -11    1    1    2    0    0  0.35285704877E+02 -0.47524702715E+02 -0.10045894881E+03  0.11660050914E+03  0.00000000000E+00 0. -1.
         11    1    1    2    0    0 -0.65080934572E+01 -0.42999686315E+02  0.80140248877E+01  0.44221633830E+02  0.00000000000E+00 0.  1.
</event>
<event>
 7    1  0.2648915E-009  0.8556346E+02  0.7561462E-02  0.1313966E+00
         -2   -1    0    0    0  501 -0.00000000000E+00  0.00000000000E+00  0.13156729803E+03  0.13156729803E+03  0.00000000000E+00 0.  1.
          2   -1    0    0  501    0  0.00000000000E+00 -0.00000000000E+00 -0.16578815765E+03  0.16578815765E+03  0.00000000000E+00 0. -1.
         25    2    1    2    0    0  0.15705348589E+02 -0.77211698341E+01  0.80633955845E+02  0.14986195110E+03  0.12510193890E+03 0.  0.
          5    1    3    3  502    0 -0.30333189862E+02  0.10441691620E+02  0.93178006086E+02  0.98634398407E+02  0.41800000000E+01 0.  1.
         -5    1    3    3    0  502  0.46038538451E+02 -0.18162861454E+02 -0.12544050241E+02  0.51227552697E+02  0.41800000000E+01 0.  1.
        -11    1    1    2    0    0  0.25352423013E+02 -0.25749602648E+02 -0.27813061039E+02  0.45599931507E+02  0.00000000000E+00 0. -1.
         11    1    1    2    0    0 -0.41057771602E+02  0.33470772482E+02 -0.87041754420E+02  0.10189357306E+03  0.00000000000E+00 0.  1.
</event>
<event>
 7    1  0.2648915E-009  0.3099380E+03  0.7561462E-02  0.1080376E+00
         -1   -1    0    0    0  501 -0.00000000000E+00  0.00000000000E+00  0.15873294783E+03  0.15873294783E+03  0.00000000000E+00 0.  1.
          1   -1    0    0  501    0  0.00000000000E+00 -0.00000000000E+00 -0.64003529868E+03  0.64003529868E+03  0.00000000000E+00 0. -1.
         25    2    1    2    0    0  0.24096527915E+03  0.17465955411E+03 -0.28323793409E+03  0.42946833917E+03  0.12509636864E+03 0.  0.
          5    1    3    3  502    0  0.22054687524E+03  0.18872339698E+03 -0.28132794008E+03  0.40425280088E+03  0.41800000000E+01 0.  1.
         -5    1    3    3    0  502  0.20418403905E+02 -0.14063842872E+02 -0.19099940113E+01  0.25215538295E+02  0.41800000000E+01 0.  1.
        -11    1    1    2    0    0 -0.74050263206E+02 -0.92211310453E+02 -0.11663532549E+03  0.16610287899E+03  0.00000000000E+00 0.  1.
         11    1    1    2    0    0 -0.16691501594E+03 -0.82448243653E+02 -0.81429091263E+02  0.20319702835E+03  0.00000000000E+00 0. -1.
</event>
<event>
 7    1  0.2648915E-009  0.5618524E+02  0.7561462E-02  0.1414576E+00
          2   -1    0    0  501    0  0.00000000000E+00  0.00000000000E+00  0.20040213134E+03  0.20040213134E+03  0.00000000000E+00 0.  1.
         -2   -1    0    0    0  501 -0.00000000000E+00 -0.00000000000E+00 -0.61203766924E+02  0.61203766924E+02  0.00000000000E+00 0. -1.
         25    2    1    2    0    0 -0.13803015802E+02 -0.73068279429E+01  0.11010496442E+03  0.16737542631E+03  0.12509003622E+03 0.  0.
          5    1    3    3  502    0 -0.72564800306E+01  0.20506974320E+02 -0.22552353610E+02  0.31611288357E+02  0.41800000000E+01 0. -1.
         -5    1    3    3    0  502 -0.65465357711E+01 -0.27813802263E+02  0.13265731803E+03  0.13576413795E+03  0.41800000000E+01 0. -1.
        -11    1    1    2    0    0  0.37211259266E+02  0.15893930206E+01  0.49987159082E+02  0.62337148310E+02  0.00000000000E+00 0.  1.
         11    1    1    2    0    0 -0.23408243464E+02  0.57174349223E+01 -0.20893759088E+02  0.31893323643E+02  0.00000000000E+00 0. -1.
</event>
<event>
 7    1  0.2648915E-009  0.8501791E+02  0.7561462E-02  0.1315386E+00
          2   -1    0    0  501    0  0.00000000000E+00  0.00000000000E+00  0.43929121461E+03  0.43929121461E+03  0.00000000000E+00 0. -1.
         -2   -1    0    0    0  501 -0.00000000000E+00 -0.00000000000E+00 -0.31474614569E+02  0.31474614569E+02  0.00000000000E+00 0.  1.
         25    2    1    2    0    0  0.16801082851E+02 -0.16693456882E+02  0.31284733024E+03  0.33776072027E+03  0.12509158337E+03 0.  0.
          5    1    3    3  502    0 -0.25938305877E+02 -0.24545003000E+02  0.28205749213E+03  0.28433985678E+03  0.41800000000E+01 0.  1.
         -5    1    3    3    0  502  0.42739388727E+02  0.78515461179E+01  0.30789838108E+02  0.53420863489E+02  0.41800000000E+01 0.  1.
        -11    1    1    2    0    0  0.27510888377E+02  0.33220061880E+02  0.61286408247E+02  0.74942947143E+02  0.00000000000E+00 0.  1.
         11    1    1    2    0    0 -0.44311971228E+02 -0.16526604998E+02  0.33682861552E+02  0.58062161768E+02  0.00000000000E+00 0. -1.
</event>
<event>
 7    1  0.2648915E-009  0.2309109E+03  0.7561462E-02  0.1126000E+00
         -2   -1    0    0    0  501 -0.00000000000E+00  0.00000000000E+00  0.37681412104E+03  0.37681412104E+03  0.00000000000E+00 0.  1.
          2   -1    0    0  501    0  0.00000000000E+00 -0.00000000000E+00 -0.18792937814E+03  0.18792937814E+03  0.00000000000E+00 0. -1.
         25    2    1    2    0    0  0.43656957796E+02 -0.21489839693E+03 -0.14250667842E+02  0.25286135414E+03  0.12509409224E+03 0.  0.
          5    1    3    3  502    0  0.17139978102E+02 -0.12829875183E+02 -0.41814283218E+02  0.47162392090E+02  0.41800000000E+01 0. -1.
         -5    1    3    3    0  502  0.26516979694E+02 -0.20206852175E+03  0.27563615377E+02  0.20569896205E+03  0.41800000000E+01 0.  1.
        -11    1    1    2    0    0 -0.65717419332E+02  0.10349238198E+03  0.11548624791E+03  0.16842364973E+03  0.00000000000E+00 0. -1.
         11    1    1    2    0    0  0.22060461537E+02  0.11140601495E+03  0.87649162836E+02  0.14345849531E+03  0.00000000000E+00 0.  1.
</event>
<event>
 7    1  0.2648915E-009  0.1477180E+03  0.7561462E-02  0.1203305E+00
         -1   -1    0    0    0  501 -0.00000000000E+00  0.00000000000E+00  0.11352513804E+03  0.11352513804E+03  0.00000000000E+00 0.  1.
          1   -1    0    0  501    0  0.00000000000E+00 -0.00000000000E+00 -0.28550428835E+03  0.28550428835E+03  0.00000000000E+00 0. -1.
         25    2    1    2    0    0 -0.94360139340E+02 -0.92219673849E+02 -0.25278121479E+02  0.18356511876E+03  0.12509542462E+03 0.  0.
          5    1    3    3  502    0 -0.95280044414E+01 -0.71988588275E+02 -0.55155000569E+02  0.91283548344E+02  0.41800000000E+01 0. -1.
         -5    1    3    3    0  502 -0.84832134899E+02 -0.20231085574E+02  0.29876879090E+02  0.92281570420E+02  0.41800000000E+01 0. -1.
        -11    1    1    2    0    0  0.34104307940E+02  0.54527691590E+02 -0.15355895858E+02  0.66122435737E+02  0.00000000000E+00 0. -1.
         11    1    1    2    0    0  0.60255831400E+02  0.37691982259E+02 -0.13134513297E+03  0.14934187189E+03  0.00000000000E+00 0.  1.
</event>
<event>
 7    1  0.2648915E-009  0.8135911E+02  0.7561462E-02  0.1325238E+00
         -2   -1    0    0    0  501 -0.00000000000E+00  0.00000000000E+00  0.14963951878E+02  0.14963951878E+02  0.00000000000E+00 0.  1.
          2   -1    0    0  501    0  0.00000000000E+00 -0.00000000000E+00 -0.10779819362E+04  0.10779819362E+04  0.00000000000E+00 0. -1.
         25    2    1    2    0    0 -0.50053158632E+02  0.81362443125E+01 -0.76679202902E+03  0.77858176722E+03  0.12509210736E+03 0.  0.
          5    1    3    3  502    0 -0.11645891724E+01  0.10753950315E+02 -0.66936196840E+03  0.66946241183E+03  0.41800000000E+01 0.  1.
         -5    1    3    3    0  502 -0.48888569459E+02 -0.26177060029E+01 -0.97430060618E+02  0.10911935539E+03  0.41800000000E+01 0.  1.
        -11    1    1    2    0    0 -0.13947370397E+02  0.25959465413E+02 -0.54016474332E+02  0.61532125632E+02  0.00000000000E+00 0.  1.
         11    1    1    2    0    0  0.64000529029E+02 -0.34095709726E+02 -0.24220948102E+03  0.25283199527E+03  0.00000000000E+00 0. -1.
</event>
<event>
 7    1  0.2648915E-009  0.1047517E+03  0.7561462E-02  0.1270610E+00
          1   -1    0    0  501    0  0.00000000000E+00  0.00000000000E+00  0.12906703926E+03  0.12906703926E+03  0.00000000000E+00 0. -1.
         -1   -1    0    0    0  501 -0.00000000000E+00 -0.00000000000E+00 -0.93738282997E+02  0.93738282997E+02  0.00000000000E+00 0.  1.
         25    2    1    2    0    0 -0.15561476598E+02 -0.93179501225E+01  0.15488506128E+02  0.12734472121E+03  0.12509116855E+03 0.  0.
          5    1    3    3  502    0  0.45192007547E+02 -0.27140997534E+02  0.31961383196E+02  0.61789592239E+02  0.41800000000E+01 0. -1.
         -5    1    3    3    0  502 -0.60753484145E+02  0.17823047412E+02 -0.16472877068E+02  0.65555128966E+02  0.41800000000E+01 0. -1.
        -11    1    1    2    0    0  0.17835697766E+02  0.49659246017E+02  0.80921211744E+01  0.53381974999E+02  0.00000000000E+00 0. -1.
         11    1    1    2    0    0 -0.22742211677E+01 -0.40341295894E+02  0.11748128960E+02  0.42078626052E+02  0.00000000000E+00 0.  1.
</event>
<event>
 7    1  0.2648915E-009  0.1552563E+03  0.7561462E-02  0.1194159E+00
         -2   -1    0    0    0  501 -0.00000000000E+00  0.00000000000E+00  0.75386044014E+02  0.75386044014E+02  0.00000000000E+00 0.  1.
          2   -1    0    0  501    0  0.00000000000E+00 -0.00000000000E+00 -0.37358284010E+03  0.37358284010E+03  0.00000000000E+00 0. -1.
         25    2    1    2    0    0  0.31271104871E+02 -0.12459234857E+03 -0.15759038016E+03  0.23871155957E+03  0.12508934980E+03 0.  0.
          5    1    3    3  502    0 -0.40097386168E+02 -0.15847760230E+02 -0.15442270130E+02  0.45987911331E+02  0.41800000000E+01 0. -1.
         -5    1    3    3    0  502  0.71368491038E+02 -0.10874458834E+03 -0.14214811003E+03  0.19272364824E+03  0.41800000000E+01 0. -1.
        -11    1    1    2    0    0  0.12881522523E+02  0.31064658086E+02  0.24624194362E+01  0.33719580573E+02  0.00000000000E+00 0.  1.
         11    1    1    2    0    0 -0.44152627393E+02  0.93527690487E+02 -0.14306883536E+03  0.17653774397E+03  0.00000000000E+00 0. -1.
</event>
<event>
 7    1  0.2648915E-009  0.9804096E+02  0.7561462E-02  0.1284470E+00
          1   -1    0    0  501    0  0.00000000000E+00  0.00000000000E+00  0.18975117060E+03  0.18975117060E+03  0.00000000000E+00 0. -1.
         -1   -1    0    0    0  501 -0.00000000000E+00 -0.00000000000E+00 -0.74648070328E+02  0.74648070328E+02  0.00000000000E+00 0.  1.
         25    2    1    2    0    0 -0.24215547426E+02  0.21004949754E+02  0.32161836872E+02  0.13307921511E+03  0.12509233826E+03 0.  0.
          5    1    3    3  502    0 -0.40270592960E+02 -0.44052372407E+02  0.30762972950E+01  0.59910501393E+02  0.41800000000E+01 0. -1.
         -5    1    3    3    0  502  0.16055045534E+02  0.65057322161E+02  0.29085539577E+02  0.73168713712E+02  0.41800000000E+01 0. -1.
        -11    1    1    2    0    0 -0.43472962694E+01 -0.36403317900E+02 -0.55382641903E+01  0.37077930218E+02  0.00000000000E+00 0.  1.
         11    1    1    2    0    0  0.28562843695E+02  0.15398368146E+02  0.88479527594E+02  0.94242095609E+02  0.00000000000E+00 0. -1.
</event>
<event>
 7    1  0.3828451E-009  0.1184999E+03  0.7561462E-02  0.1245592E+00
          2   -1    0    0  501    0  0.00000000000E+00  0.00000000000E+00  0.16208260296E+04  0.16208260296E+04  0.00000000000E+00 0. -1.
         -2   -1    0    0    0  501 -0.00000000000E+00 -0.00000000000E+00 -0.17464450521E+02  0.17464450521E+02  0.00000000000E+00 0.  1.
         25    2    1    2    0    0  0.56261152931E+02 -0.53354968462E+02  0.13503661660E+04  0.13583612880E+04  0.12507812164E+03 0.  0.
          5    1    3    3  502    0  0.74093047558E+02  0.14554991425E+02  0.78577473799E+03  0.78940549702E+03  0.41800000000E+01 0. -1.
         -5    1    3    3    0  502 -0.17831894627E+02 -0.67909959887E+02  0.56459142801E+03  0.56895579099E+03  0.41800000000E+01 0. -1.
        -11    1    1    2    0    0 -0.10655175444E+02  0.42961776853E+02  0.33516301049E+02  0.55521072307E+02  0.00000000000E+00 0.  1.
         11    1    1    2    0    0 -0.45605977488E+02  0.10393191609E+02  0.21947911208E+03  0.22440811985E+03  0.00000000000E+00 0. -1.
</event>
<event>
 7    1  0.2648915E-009  0.1225954E+03  0.7561462E-02  0.1238876E+00
         -2   -1    0    0    0  501 -0.00000000000E+00  0.00000000000E+00  0.16998755362E+03  0.16998755362E+03  0.00000000000E+00 0.  1.
          2   -1    0    0  501    0  0.00000000000E+00 -0.00000000000E+00 -0.14110049073E+03  0.14110049073E+03  0.00000000000E+00 0. -1.
         25    2    1    2    0    0  0.52013066906E+02  0.67537409042E+02  0.85114486614E+02  0.17366252086E+03  0.12509010580E+03 0.  0.
          5    1    3    3  502    0  0.69316881912E+02  0.86510650582E+02  0.94778520045E+02  0.14590874903E+03  0.41800000000E+01 0. -1.
         -5    1    3    3    0  502 -0.17303815006E+02 -0.18973241540E+02 -0.96640334315E+01  0.27753771824E+02  0.41800000000E+01 0. -1.
        -11    1    1    2    0    0  0.14418148396E+02 -0.13782128768E+01  0.14108304775E+02  0.20219464323E+02  0.00000000000E+00 0.  1.
         11    1    1    2    0    0 -0.66431215301E+02 -0.66159196165E+02 -0.70335728499E+02  0.11720605917E+03  0.00000000000E+00 0. -1.
</event>
<event>
 7    1  0.2648915E-009  0.1135378E+03  0.7561462E-02  0.1254155E+00
          1   -1    0    0  501    0  0.00000000000E+00  0.00000000000E+00  0.24432428212E+02  0.24432428212E+02  0.00000000000E+00 0. -1.
         -1   -1    0    0    0  501 -0.00000000000E+00 -0.00000000000E+00 -0.54870872779E+03  0.54870872779E+03  0.00000000000E+00 0.  1.
         25    2    1    2    0    0  0.84712418651E+01  0.17793352858E+02 -0.28405690512E+03  0.31100459038E+03  0.12508862676E+03 0.  0.
          5    1    3    3  502    0 -0.53561619731E+02  0.26115758974E+02 -0.99227308900E+02  0.11582059923E+03  0.41800000000E+01 0. -1.
         -5    1    3    3    0  502  0.62032861596E+02 -0.83224061159E+01 -0.18482959622E+03  0.19518399115E+03  0.41800000000E+01 0. -1.
        -11    1    1    2    0    0 -0.20412879051E+02  0.40368865664E+02 -0.93874768228E+02  0.10420558073E+03  0.00000000000E+00 0.  1.
         11    1    1    2    0    0  0.11941637186E+02 -0.58162218522E+02 -0.14634462623E+03  0.15793098489E+03  0.00000000000E+00 0. -1.
</event>
<event>
 7    1  0.2648915E-009  0.1214939E+03  0.7561462E-02  0.1240653E+00
         -1   -1    0    0    0  501 -0.00000000000E+00  0.00000000000E+00  0.18025319030E+03  0.18025319030E+03  0.00000000000E+00 0.  1.
          1   -1    0    0  501    0  0.00000000000E+00 -0.00000000000E+00 -0.13777751246E+03  0.13777751246E+03  0.00000000000E+00 0. -1.
         25    2    1    2    0    0 -0.51713614860E+02 -0.98065019544E+02  0.40869818423E+02  0.17207271151E+03  0.12509048712E+03 0.  0.
          5    1    3    3  502    0 -0.15845612677E+02 -0.68479277442E+02 -0.38306764201E+02  0.80158439753E+02  0.41800000000E+01 0.  1.
         -5    1    3    3    0  502 -0.35868002183E+02 -0.29585742102E+02  0.79176582624E+02  0.91914271755E+02  0.41800000000E+01 0.  1.
        -11    1    1    2    0    0  0.64974870271E+02  0.87216657399E+02 -0.27501877168E+02  0.11218213914E+03  0.00000000000E+00 0. -1.
         11    1    1    2    0    0 -0.13261255410E+02  0.10848362145E+02  0.29107736585E+02  0.33775852105E+02  0.00000000000E+00 0.  1.
</event>
<event>
 7    1  0.2648915E-009  0.1128347E+03  0.7561462E-02  0.1255409E+00
          1   -1    0    0  501    0  0.00000000000E+00  0.00000000000E+00  0.29376367728E+03  0.29376367728E+03  0.00000000000E+00 0. -1.
         -1   -1    0    0    0  501 -0.00000000000E+00 -0.00000000000E+00 -0.80223238395E+02  0.80223238395E+02  0.00000000000E+00 0.  1.
         25    2    1    2    0    0  0.35407736435E+02  0.64606024990E+02  0.75096241614E+02  0.16344139776E+03  0.12508396673E+03 0.  0.
          5    1    3    3  502    0 -0.61074148065E+01  0.88312613471E+02  0.20902344154E+02  0.91053822571E+02  0.41800000000E+01 0. -1.
         -5    1    3    3    0  502  0.41515151242E+02 -0.23706588481E+02  0.54193897460E+02  0.72387575190E+02  0.41800000000E+01 0. -1.
        -11    1    1    2    0    0 -0.19945724028E+02 -0.69919067604E+02  0.16446196077E+03  0.17981725296E+03  0.00000000000E+00 0. -1.
         11    1    1    2    0    0 -0.15462012407E+02  0.53130426134E+01 -0.26017763499E+02  0.30728264953E+02  0.00000000000E+00 0.  1.
</event>
<event>
 7    1  0.2648915E-009  0.1371439E+03  0.7561462E-02  0.1217225E+00
         -1   -1    0    0    0  501 -0.00000000000E+00  0.00000000000E+00  0.43005495663E+02  0.43005495663E+02  0.00000000000E+00 0.  1.
          1   -1    0    0  501    0  0.00000000000E+00 -0.00000000000E+00 -0.72751412551E+03  0.72751412551E+03  0.00000000000E+00 0. -1.
         25    2    1    2    0    0 -0.48970133697E+02  0.73198637398E+02 -0.12937692267E+03  0.20035418427E+03  0.12508915430E+03 0.  0.
          5    1    3    3  502    0 -0.84316918520E+02  0.78318621236E+02 -0.11111880224E+03  0.16002502864E+03  0.41800000000E+01 0.  1.
         -5    1    3    3    0  502  0.35346784823E+02 -0.51199838386E+01 -0.18258120433E+02  0.40329155627E+02  0.41800000000E+01 0.  1.
        -11    1    1    2    0    0 -0.22713007977E+02 -0.31196506975E+01 -0.47667449003E+02  0.52894221294E+02  0.00000000000E+00 0.  1.
         11    1    1    2    0    0  0.71683141674E+02 -0.70078986700E+02 -0.50746425817E+03  0.51727121561E+03  0.00000000000E+00 0. -1.
</event>
<event>
 7    1  0.2648915E-009  0.1856470E+03  0.7561462E-02  0.1162447E+00
          1   -1    0    0  501    0  0.00000000000E+00  0.00000000000E+00  0.12907238801E+04  0.12907238801E+04  0.00000000000E+00 0.  1.
         -1   -1    0    0    0  501 -0.00000000000E+00 -0.00000000000E+00 -0.28624379243E+02  0.28624379243E+02  0.00000000000E+00 0. -1.
         25    2    1    2    0    0 -0.13741921846E+03  0.84036326016E+02  0.63513624803E+03  0.66707332083E+03  0.12507044459E+03 0.  0.
          5    1    3    3  502    0 -0.51474025407E+02  0.10274500508E+03  0.39005229858E+03  0.40665019291E+03  0.41800000000E+01 0. -1.
         -5    1    3    3    0  502 -0.85945193058E+02 -0.18708679062E+02  0.24508394945E+03  0.26042312792E+03  0.41800000000E+01 0. -1.
        -11    1    1    2    0    0  0.52284409226E+02 -0.60403409945E+02  0.18413718463E+03  0.20072053742E+03  0.00000000000E+00 0. -1.
         11    1    1    2    0    0  0.85134809239E+02 -0.23632916072E+02  0.44282606825E+03  0.45155440114E+03  0.00000000000E+00 0.  1.
</event>
<event>
 7    1  0.2648915E-009  0.9364914E+02  0.7561462E-02  0.1294248E+00
         -1   -1    0    0    0  501 -0.00000000000E+00  0.00000000000E+00  0.19659431289E+03  0.19659431289E+03  0.00000000000E+00 0.  1.
          1   -1    0    0  501    0  0.00000000000E+00 -0.00000000000E+00 -0.56895683140E+02  0.56895683140E+02  0.00000000000E+00 0. -1.
         25    2    1    2    0    0  0.13294849184E+02  0.31496572181E+02  0.87759506698E+02  0.15657982960E+03  0.12508686960E+03 0.  0.
          5    1    3    3  502    0 -0.24081226621E+02 -0.29864302856E+02 -0.52833713006E+01  0.38950846884E+02  0.41800000000E+01 0. -1.
         -5    1    3    3    0  502  0.37376075805E+02  0.61360875038E+02  0.93042877998E+02  0.11762898271E+03  0.41800000000E+01 0. -1.
        -11    1    1    2    0    0 -0.31408704288E+01 -0.52928895029E+02  0.50384603803E+02  0.73143292902E+02  0.00000000000E+00 0.  1.
         11    1    1    2    0    0 -0.10153978755E+02  0.21432322848E+02  0.15545192462E+01  0.23766873528E+02  0.00000000000E+00 0. -1.
</event>
<event>
 7    1  0.2648915E-009  0.1232769E+03  0.7561462E-02  0.1237787E+00
         -1   -1    0    0    0  501 -0.00000000000E+00  0.00000000000E+00  0.51162879870E+02  0.51162879870E+02  0.00000000000E+00 0.  1.
          1   -1    0    0  501    0  0.00000000000E+00 -0.00000000000E+00 -0.33242289715E+03  0.33242289715E+03  0.00000000000E+00 0. -1.
         25    2    1    2    0    0  0.38056801785E+02 -0.60655776764E+02 -0.16815288298E+03  0.22148263651E+03  0.12510684556E+03 0.  0.
          5    1    3    3  502    0  0.79028084493E+02 -0.60930412180E+02 -0.96752475252E+02  0.13905562604E+03  0.41800000000E+01 0. -1.
         -5    1    3    3    0  502 -0.40971282708E+02  0.27463541600E+00 -0.71400407725E+02  0.82427010468E+02  0.41800000000E+01 0. -1.
        -11    1    1    2    0    0  0.24076550545E+02  0.14691638093E+02 -0.41357228329E+01  0.28506643425E+02  0.00000000000E+00 0.  1.
         11    1    1    2    0    0 -0.62133352330E+02  0.45964138671E+02 -0.10897141147E+03  0.13359649709E+03  0.00000000000E+00 0. -1.
</event>
<event>
 7    1  0.2648915E-009  0.1679018E+03  0.7561462E-02  0.1180054E+00
          2   -1    0    0  501    0  0.00000000000E+00  0.00000000000E+00  0.14403022618E+04  0.14403022618E+04  0.00000000000E+00 0. -1.
         -2   -1    0    0    0  501 -0.00000000000E+00 -0.00000000000E+00 -0.23602732627E+02  0.23602732627E+02  0.00000000000E+00 0.  1.
         25    2    1    2    0    0 -0.12909730953E+03  0.23315653393E+02  0.10270530473E+04  0.10429263146E+04  0.12509037007E+03 0.  0.
          5    1    3    3  502    0 -0.14377889112E+03  0.47274299948E+02  0.81087704574E+03  0.82489168057E+03  0.41800000000E+01 0. -1.
         -5    1    3    3    0  502  0.14681581595E+02 -0.23958646554E+02  0.21617600157E+03  0.21803463403E+03  0.41800000000E+01 0. -1.
        -11    1    1    2    0    0  0.92425766122E+02  0.24604111025E+02  0.27913420579E+03  0.29506573736E+03  0.00000000000E+00 0.  1.
         11    1    1    2    0    0  0.36671543405E+02 -0.47919764418E+02  0.11051227611E+03  0.12591294250E+03  0.00000000000E+00 0. -1.
</event>
<event>
 7    1  0.2648915E-009  0.9944596E+02  0.7561462E-02  0.1281465E+00
         -2   -1    0    0    0  501 -0.00000000000E+00  0.00000000000E+00  0.49238165701E+03  0.49238165701E+03  0.00000000000E+00 0.  1.
          2   -1    0    0  501    0  0.00000000000E+00 -0.00000000000E+00 -0.48355264441E+02  0.48355264441E+02  0.00000000000E+00 0. -1.
         25    2    1    2    0    0  0.56396314225E+01 -0.90737707776E+02  0.34266762202E+03  0.37594366318E+03  0.12508957451E+03 0.  0.
          5    1    3    3  502    0  0.39953412203E+01 -0.17157777825E+02 -0.63796591233E+01  0.19196993043E+02  0.41800000000E+01 0.  1.
         -5    1    3    3    0  502  0.16442902022E+01 -0.73579929951E+02  0.34904728114E+03  0.35674667014E+03  0.41800000000E+01 0.  1.
        -11    1    1    2    0    0  0.23784521676E+02  0.59882915359E+02  0.10370649538E+03  0.12209301457E+03  0.00000000000E+00 0. -1.
         11    1    1    2    0    0 -0.29424153098E+02  0.30854792417E+02 -0.23477248217E+01  0.42700243705E+02  0.00000000000E+00 0.  1.
</event>
<event>
 7    1  0.2648915E-009  0.1924948E+03  0.7561462E-02  0.1156230E+00
          2   -1    0    0  501    0  0.00000000000E+00  0.00000000000E+00  0.64411844174E+03  0.64411844174E+03  0.00000000000E+00 0. -1.
         -2   -1    0    0    0  501 -0.00000000000E+00 -0.00000000000E+00 -0.68431404112E+02  0.68431404112E+02  0.00000000000E+00 0.  1.
         25    2    1    2    0    0 -0.56337496397E+02  0.16250258935E+03  0.21425593535E+03  0.30188397843E+03  0.12508927032E+03 0.  0.
          5    1    3    3  502    0  0.18868026990E+02  0.12692644409E+03  0.14387775508E+03  0.19283310260E+03  0.41800000000E+01 0. -1.
         -5    1    3    3    0  502 -0.75205523387E+02  0.35576145265E+02  0.70378180269E+02  0.10905087582E+03  0.41800000000E+01 0. -1.
        -11    1    1    2    0    0  0.55721694517E+02 -0.13849394005E+03  0.35601407839E+03  0.38604598519E+03  0.00000000000E+00 0. -1.
         11    1    1    2    0    0  0.61580188056E+00 -0.24008649307E+02  0.54170238827E+01  0.24619882235E+02  0.00000000000E+00 0.  1.
</event>
<event>
 7    1  0.2648915E-009  0.1022195E+03  0.7561462E-02  0.1275697E+00
         -3   -1    0    0    0  501 -0.00000000000E+00  0.00000000000E+00  0.31186378430E+03  0.31186378430E+03  0.00000000000E+00 0.  1.
          3   -1    0    0  501    0  0.00000000000E+00 -0.00000000000E+00 -0.38135624306E+02  0.38135624306E+02  0.00000000000E+00 0. -1.
         25    2    1    2    0    0  0.73973055901E+01 -0.12167373510E+01  0.17151202165E+03  0.21241485144E+03  0.12508994748E+03 0.  0.
          5    1    3    3  502    0  0.57959101954E+02 -0.15297513710E+02  0.13662048639E+03  0.14925113443E+03  0.41800000000E+01 0. -1.
         -5    1    3    3    0  502 -0.50561796364E+02  0.14080776359E+02  0.34891535257E+02  0.63163717014E+02  0.41800000000E+01 0. -1.
        -11    1    1    2    0    0  0.41624914357E+02 -0.63114674070E+01  0.53323644677E+02  0.67940261978E+02  0.00000000000E+00 0.  1.
         11    1    1    2    0    0 -0.49022219947E+02  0.75282047579E+01  0.48892493672E+02  0.69644295193E+02  0.00000000000E+00 0. -1.
</event>
<event>
 7    1  0.2648915E-009  0.9498566E+02  0.7561462E-02  0.1291208E+00
          1   -1    0    0  501    0  0.00000000000E+00  0.00000000000E+00  0.54851317461E+03  0.54851317461E+03  0.00000000000E+00 0. -1.
         -1   -1    0    0    0  501 -0.00000000000E+00 -0.00000000000E+00 -0.25452297215E+02  0.25452297215E+02  0.00000000000E+00 0.  1.
         25    2    1    2    0    0 -0.86447458930E+01 -0.37894943593E+02  0.22967687050E+03  0.26440812485E+03  0.12509769487E+03 0.  0.
          5    1    3    3  502    0 -0.54812055089E+02 -0.14033855363E+02  0.19166518638E+03  0.19988578376E+03  0.41800000000E+01 0. -1.
         -5    1    3    3    0  502  0.46167309196E+02 -0.23861088230E+02  0.38011684123E+02  0.64522341091E+02  0.41800000000E+01 0. -1.
        -11    1    1    2    0    0 -0.29355947235E+02  0.30006722109E+01  0.33680164756E+02  0.44778668691E+02  0.00000000000E+00 0.  1.
         11    1    1    2    0    0  0.38000693128E+02  0.34894271382E+02  0.25970384214E+03  0.26477867829E+03  0.00000000000E+00 0. -1.
</event>
<event>
 7    1  0.2648915E-009  0.1131733E+03  0.7561462E-02  0.1254804E+00
          2   -1    0    0  501    0  0.00000000000E+00  0.00000000000E+00  0.82906712094E+03  0.82906712094E+03  0.00000000000E+00 0. -1.
         -2   -1    0    0    0  501 -0.00000000000E+00 -0.00000000000E+00 -0.24773306427E+02  0.24773306427E+02  0.00000000000E+00 0.  1.
         25    2    1    2    0    0 -0.70064982011E+02  0.63360105170E+02  0.45991129736E+03  0.48589079599E+03  0.12509140482E+03 0.  0.
          5    1    3    3  502    0 -0.15622385870E+02  0.47577436457E+02  0.40061036923E+03  0.40374968945E+03  0.41800000000E+01 0. -1.
         -5    1    3    3    0  502 -0.54442596141E+02  0.15782668713E+02  0.59300928128E+02  0.82141106537E+02  0.41800000000E+01 0. -1.
        -11    1    1    2    0    0  0.18267272627E+02 -0.64915520020E+02  0.11990152414E+03  0.13756487008E+03  0.00000000000E+00 0.  1.
         11    1    1    2    0    0  0.51797709385E+02  0.15554148498E+01  0.22448099302E+03  0.23038476130E+03  0.00000000000E+00 0. -1.
</event>
<event>
 7    1  0.2648915E-009  0.2347369E+03  0.7561462E-02  0.1123349E+00
         -1   -1    0    0    0  501 -0.00000000000E+00  0.00000000000E+00  0.30498227530E+03  0.30498227530E+03  0.00000000000E+00 0.  1.
          1   -1    0    0  501    0  0.00000000000E+00 -0.00000000000E+00 -0.19374942766E+03  0.19374942766E+03  0.00000000000E+00 0. -1.
         25    2    1    2    0    0 -0.13698296031E+03 -0.16662140106E+03  0.81578090338E+02  0.26235481174E+03  0.12509212491E+03 0.  0.
          5    1    3    3  502    0 -0.15441890801E+03 -0.14498531967E+03  0.93823114908E+02  0.23170280827E+03  0.41800000000E+01 0.  1.
         -5    1    3    3    0  502  0.17435947698E+02 -0.21636081382E+02 -0.12245024570E+02  0.30652003465E+02  0.41800000000E+01 0.  1.
        -11    1    1    2    0    0  0.12346049486E+03  0.17458176074E+03  0.14111807797E+02  0.21429052264E+03  0.00000000000E+00 0. -1.
         11    1    1    2    0    0  0.13522465452E+02 -0.79603596817E+01  0.15542949499E+02  0.22086368585E+02  0.00000000000E+00 0.  1.
</event>
<event>
 7    1  0.3106445E-009  0.1022713E+03  0.7561462E-02  0.1275591E+00
          1   -1    0    0  501    0  0.00000000000E+00  0.00000000000E+00  0.57447920849E+03  0.57447920849E+03  0.00000000000E+00 0. -1.
         -1   -1    0    0    0  501 -0.00000000000E+00 -0.00000000000E+00 -0.35700083066E+02  0.35700083066E+02  0.00000000000E+00 0.  1.
         25    2    1    2    0    0  0.38321760716E+02  0.81289823922E+02  0.23851907615E+03  0.28392887801E+03  0.12509062821E+03 0.  0.
          5    1    3    3  502    0  0.32749609744E+02  0.86399630206E+02  0.25170726108E+03  0.26816310469E+03  0.41800000000E+01 0.  1.
         -5    1    3    3    0  502  0.55721509720E+01 -0.51098062844E+01 -0.13188184929E+02  0.15765773322E+02  0.41800000000E+01 0.  1.
        -11    1    1    2    0    0 -0.47072152816E+02 -0.41766133330E+02  0.77451902031E+02  0.99794762349E+02  0.00000000000E+00 0.  1.
         11    1    1    2    0    0  0.87503920999E+01 -0.39523690592E+02  0.22280814725E+03  0.22645565120E+03  0.00000000000E+00 0. -1.
</event>
<event>
 7    1  0.2648915E-009  0.1818715E+03  0.7561462E-02  0.1166004E+00
          2   -1    0    0  501    0  0.00000000000E+00  0.00000000000E+00  0.49498762193E+03  0.49498762193E+03  0.00000000000E+00 0. -1.
         -2   -1    0    0    0  501 -0.00000000000E+00 -0.00000000000E+00 -0.88153774920E+02  0.88153774920E+02  0.00000000000E+00 0.  1.
         25    2    1    2    0    0 -0.12098222091E+03 -0.12199448402E+03  0.28713162781E+03  0.35722648814E+03  0.12508733044E+03 0.  0.
          5    1    3    3  502    0 -0.64988548011E+02 -0.37058495647E+02  0.22684416747E+03  0.23889870696E+03  0.41800000000E+01 0. -1.
         -5    1    3    3    0  502 -0.55993672898E+02 -0.84935988369E+02  0.60287460331E+02  0.11832778118E+03  0.41800000000E+01 0. -1.
        -11    1    1    2    0    0  0.96671318203E+02  0.12945438330E+03  0.84045934606E+02  0.18211946695E+03  0.00000000000E+00 0.  1.
         11    1    1    2    0    0  0.24310902706E+02 -0.74598992784E+01  0.35656284594E+02  0.43795441757E+02  0.00000000000E+00 0. -1.
</event>
<event>
 7    1  0.2648915E-009  0.1173765E+03  0.7561462E-02  0.1247489E+00
         -1   -1    0    0    0  501 -0.00000000000E+00  0.00000000000E+00  0.90312832807E+02  0.90312832807E+02  0.00000000000E+00 0.  1.
          1   -1    0    0  501    0  0.00000000000E+00 -0.00000000000E+00 -0.16213153609E+03  0.16213153609E+03  0.00000000000E+00 0. -1.
         25    2    1    2    0    0  0.51696630668E+02 -0.89273202101E+00 -0.56424982159E+02  0.14664750672E+03  0.12509346115E+03 0.  0.
          5    1    3    3  502    0 -0.29867372351E+02  0.30457033741E+02 -0.58956783964E+00  0.42866196772E+02  0.41800000000E+01 0.  1.
         -5    1    3    3    0  502  0.81564003020E+02 -0.31349765762E+02 -0.55835414319E+02  0.10378130995E+03  0.41800000000E+01 0.  1.
        -11    1    1    2    0    0 -0.73966563783E+02  0.18238069027E+02 -0.14534277507E+02  0.77555947176E+02  0.00000000000E+00 0.  1.
         11    1    1    2    0    0  0.22269933114E+02 -0.17345337006E+02 -0.85944361502E+00  0.28240915001E+02  0.00000000000E+00 0. -1.
</event>
<event>
 7    1  0.2648915E-009  0.1808223E+03  0.7561462E-02  0.1167010E+00
          2   -1    0    0  501    0  0.00000000000E+00  0.00000000000E+00  0.10478840765E+04  0.10478840765E+04  0.00000000000E+00 0. -1.
         -2   -1    0    0    0  501 -0.00000000000E+00 -0.00000000000E+00 -0.38091189169E+02  0.38091189169E+02  0.00000000000E+00 0.  1.
         25    2    1    2    0    0 -0.10308605989E+03  0.11851944559E+03  0.36857994340E+03  0.41972842547E+03  0.12508869550E+03 0.  0.
          5    1    3    3  502    0  0.11986229333E+02  0.40547555709E+02  0.25541637750E+02  0.49574404954E+02  0.41800000000E+01 0. -1.
         -5    1    3    3    0  502 -0.11507228922E+03  0.77971889878E+02  0.34303830565E+03  0.37015402052E+03  0.41800000000E+01 0. -1.
        -11    1    1    2    0    0  0.65040303005E+01  0.14393258413E+02  0.40500792100E+02  0.43471628203E+02  0.00000000000E+00 0.  1.
         11    1    1    2    0    0  0.96582029591E+02 -0.13291270400E+03  0.60071215183E+03  0.62277521200E+03  0.00000000000E+00 0. -1.
</event>
<event>
 7    1  0.2648915E-009  0.2506039E+03  0.7561462E-02  0.1112924E+00
         -3   -1    0    0    0  501 -0.00000000000E+00  0.00000000000E+00  0.94207064339E+02  0.94207064339E+02  0.00000000000E+00 0.  1.
          3   -1    0    0  501    0  0.00000000000E+00 -0.00000000000E+00 -0.71182828426E+03  0.71182828426E+03  0.00000000000E+00 0. -1.
         25    2    1    2    0    0 -0.99844535221E+02 -0.21189183379E+03 -0.32602947982E+03  0.42048735649E+03  0.12508922741E+03 0.  0.
          5    1    3    3  502    0 -0.85626517387E+02 -0.77601619097E+02 -0.82693679818E+02  0.14216057417E+03  0.41800000000E+01 0.  1.
         -5    1    3    3    0  502 -0.14218017834E+02 -0.13429021469E+03 -0.24333580000E+03  0.27832678232E+03  0.41800000000E+01 0.  1.
        -11    1    1    2    0    0  0.86900490240E+01  0.12246000706E+03 -0.16572927348E+03  0.20624781785E+03  0.00000000000E+00 0.  1.
         11    1    1    2    0    0  0.91154486197E+02  0.89431826732E+02 -0.12586246662E+03  0.17930017426E+03  0.00000000000E+00 0. -1.
</event>
<event>
 7    1  0.2648915E-009  0.1091992E+03  0.7561462E-02  0.1262060E+00
          2   -1    0    0  501    0  0.00000000000E+00  0.00000000000E+00  0.11774683886E+04  0.11774683886E+04  0.00000000000E+00 0. -1.
         -2   -1    0    0    0  501 -0.00000000000E+00 -0.00000000000E+00 -0.12697903642E+02  0.12697903642E+02  0.00000000000E+00 0.  1.
         25    2    1    2    0    0 -0.43599101385E+02  0.37568891159E+02  0.71198411180E+03  0.72517674325E+03  0.12509048834E+03 0.  0.
          5    1    3    3  502    0 -0.74765807795E+02  0.29827741185E+02  0.26417923635E+03  0.27620239224E+03  0.41800000000E+01 0. -1.
         -5    1    3    3    0  502  0.31166706410E+02  0.77411499738E+01  0.44780487545E+03  0.44897435101E+03  0.41800000000E+01 0. -1.
        -11    1    1    2    0    0  0.40459952454E+02  0.21798877313E+02  0.21816038151E+03  0.22294876287E+03  0.00000000000E+00 0.  1.
         11    1    1    2    0    0  0.31391489312E+01 -0.59367768472E+02  0.23462599168E+03  0.24204078616E+03  0.00000000000E+00 0. -1.
</event>
<event>
 7    1  0.2648915E-009  0.1359062E+03  0.7561462E-02  0.1218946E+00
         -1   -1    0    0    0  501 -0.00000000000E+00  0.00000000000E+00  0.66412635087E+02  0.66412635087E+02  0.00000000000E+00 0.  1.
          1   -1    0    0  501    0  0.00000000000E+00 -0.00000000000E+00 -0.55446418178E+03  0.55446418178E+03  0.00000000000E+00 0. -1.
         25    2    1    2    0    0 -0.78947405445E+02  0.40585361961E+02 -0.46857594743E+03  0.49304088147E+03  0.12508408315E+03 0.  0.
          5    1    3    3  502    0 -0.65638650348E+01  0.71124163004E+02 -0.17390272737E+03  0.18804616952E+03  0.41800000000E+01 0.  1.
         -5    1    3    3    0  502 -0.72383540410E+02 -0.30538801043E+02 -0.29467322007E+03  0.30499471195E+03  0.41800000000E+01 0. -1.
        -11    1    1    2    0    0 -0.13413829372E+02 -0.24368505229E+02 -0.19658098305E+02  0.34061645504E+02  0.00000000000E+00 0. -1.
         11    1    1    2    0    0  0.92361234817E+02 -0.16216856732E+02  0.18249904242E+00  0.93774289894E+02  0.00000000000E+00 0.  1.
</event>
<event>
 7    1  0.2648915E-009  0.3713760E+03  0.7561462E-02  0.1054168E+00
          1   -1    0    0  501    0  0.00000000000E+00  0.00000000000E+00  0.12043192417E+04  0.12043192417E+04  0.00000000000E+00 0. -1.
         -1   -1    0    0    0  501 -0.00000000000E+00 -0.00000000000E+00 -0.12618095637E+03  0.12618095637E+03  0.00000000000E+00 0.  1.
         25    2    1    2    0    0  0.68095508261E+02  0.35423893440E+03  0.37611084295E+03  0.53593844205E+03  0.12509367127E+03 0.  0.
          5    1    3    3  502    0 -0.33897313816E+02  0.52231299084E+02  0.50843639401E+02  0.80496487846E+02  0.41800000000E+01 0. -1.
         -5    1    3    3    0  502  0.10199282208E+03  0.30200763531E+03  0.32526720355E+03  0.45544195420E+03  0.41800000000E+01 0. -1.
        -11    1    1    2    0    0 -0.59389729603E+02 -0.25027506918E+03  0.57689904385E+03  0.63164646523E+03  0.00000000000E+00 0. -1.
         11    1    1    2    0    0 -0.87057786578E+01 -0.10396386522E+03  0.12512839849E+03  0.16291529075E+03  0.00000000000E+00 0.  1.
</event>
<event>
 7    1  0.2648915E-009  0.1991294E+03  0.7561462E-02  0.1150476E+00
         -1   -1    0    0    0  501 -0.00000000000E+00  0.00000000000E+00  0.54416503872E+03  0.54416503872E+03  0.00000000000E+00 0.  1.
          1   -1    0    0  501    0  0.00000000000E+00 -0.00000000000E+00 -0.75733323310E+02  0.75733323310E+02  0.00000000000E+00 0. -1.
         25    2    1    2    0    0 -0.21996515932E+02  0.16866236201E+03  0.26813113068E+03  0.34128198424E+03  0.12509296722E+03 0.  0.
          5    1    3    3  502    0 -0.26352501994E+02  0.18834482217E+03  0.23598231468E+03  0.30310617222E+03  0.41800000000E+01 0. -1.
         -5    1    3    3    0  502  0.43559860625E+01 -0.19682460153E+02  0.32148816007E+02  0.38175812014E+02  0.41800000000E+01 0. -1.
        -11    1    1    2    0    0  0.47399352668E+02 -0.63388557209E+02  0.50937359059E+02  0.94124504601E+02  0.00000000000E+00 0. -1.
         11    1    1    2    0    0 -0.25402836737E+02 -0.10527380481E+03  0.14936322567E+03  0.18449187319E+03  0.00000000000E+00 0.  1.
</event>
<event>
 7    1  0.2648915E-009  0.6764339E+02  0.7561462E-02  0.1368295E+00
          1   -1    0    0  501    0  0.00000000000E+00  0.00000000000E+00  0.32629645409E+03  0.32629645409E+03  0.00000000000E+00 0. -1.
         -1   -1    0    0    0  501 -0.00000000000E+00 -0.00000000000E+00 -0.42440542097E+02  0.42440542097E+02  0.00000000000E+00 0.  1.
         25    2    1    2    0    0 -0.17515216156E+02  0.14854936278E+02  0.13674501039E+03  0.18674407809E+03  0.12508677351E+03 0.  0.
          5    1    3    3  502    0 -0.45681550483E+02 -0.13074125902E+02  0.36924683040E+01  0.47841859755E+02  0.41800000000E+01 0. -1.
         -5    1    3    3    0  502  0.28166334328E+02  0.27929062180E+02  0.13305254208E+03  0.13890221833E+03  0.41800000000E+01 0. -1.
        -11    1    1    2    0    0 -0.70559922099E+01  0.10334399359E+02 -0.13009868417E+02  0.18051136042E+02  0.00000000000E+00 0.  1.
         11    1    1    2    0    0  0.24571208365E+02 -0.25189335637E+02  0.16012077002E+03  0.16394178205E+03  0.00000000000E+00 0. -1.
</event>
<event>
 7    1  0.2648915E-009  0.1336412E+03  0.7561462E-02  0.1222151E+00
          1   -1    0    0  501    0  0.00000000000E+00  0.00000000000E+00  0.49486297168E+02  0.49486297168E+02  0.00000000000E+00 0. -1.
         -1   -1    0    0    0  501 -0.00000000000E+00 -0.00000000000E+00 -0.38476035620E+03  0.38476035620E+03  0.00000000000E+00 0.  1.
         25    2    1    2    0    0  0.76057768561E+02  0.37965116711E+02 -0.18123689513E+03  0.23605044597E+03  0.12508743597E+03 0.  0.
          5    1    3    3  502    0  0.56962224191E+02  0.80638817027E+02 -0.15015839613E+03  0.17975630761E+03  0.41800000000E+01 0. -1.
         -5    1    3    3    0  502  0.19095544370E+02 -0.42673700316E+02 -0.31078499003E+02  0.56294138360E+02  0.41800000000E+01 0. -1.
        -11    1    1    2    0    0 -0.70735567687E+02  0.11597634480E+02 -0.68233289122E+02  0.98963667100E+02  0.00000000000E+00 0. -1.
         11    1    1    2    0    0 -0.53222008743E+01 -0.49562751191E+02 -0.85803874773E+02  0.99232540297E+02  0.00000000000E+00 0.  1.
</event>
<event>
 7    1  0.2648915E-009  0.7291067E+02  0.7561462E-02  0.1350466E+00
         -3   -1    0    0    0  501 -0.00000000000E+00  0.00000000000E+00  0.82628365793E+02  0.82628365793E+02  0.00000000000E+00 0.  1.
          3   -1    0    0  501    0  0.00000000000E+00 -0.00000000000E+00 -0.19306024314E+03  0.19306024314E+03  0.00000000000E+00 0. -1.
         25    2    1    2    0    0 -0.40720192825E+01 -0.57659293941E+01 -0.13359718763E+03  0.18315529310E+03  0.12509126894E+03 0.  0.
          5    1    3    3  502    0 -0.57240894492E+02 -0.12997966751E+02 -0.29181833289E+02  0.65684997800E+02  0.41800000000E+01 0.  1.
         -5    1    3    3    0  502  0.53168875209E+02  0.72320373572E+01 -0.10441535434E+03  0.11747029530E+03  0.41800000000E+01 0.  1.
        -11    1    1    2    0    0  0.39273884186E+01  0.19261190460E+02  0.54757549022E+02  0.58179094292E+02  0.00000000000E+00 0.  1.
         11    1    1    2    0    0  0.14463086391E+00 -0.13495261066E+02 -0.31592238733E+02  0.34354221538E+02  0.00000000000E+00 0. -1.
</event>
<event>
 7    1  0.2648915E-009  0.1341228E+03  0.7561462E-02  0.1221463E+00
         -1   -1    0    0    0  501 -0.00000000000E+00  0.00000000000E+00  0.10049477185E+03  0.10049477185E+03  0.00000000000E+00 0.  1.
          1   -1    0    0  501    0  0.00000000000E+00 -0.00000000000E+00 -0.30560865522E+03  0.30560865522E+03  0.00000000000E+00 0. -1.
         25    2    1    2    0    0  0.65611648311E+02 -0.10956239762E+03 -0.51409764471E+02  0.18601211181E+03  0.12509490193E+03 0.  0.
          5    1    3    3  502    0  0.59621364889E+02 -0.93565694376E+02  0.19700170679E+02  0.11275999042E+03  0.41800000000E+01 0.  1.
         -5    1    3    3    0  502  0.59902834227E+01 -0.15996703241E+02 -0.71109935150E+02  0.73252121383E+02  0.41800000000E+01 0.  1.
        -11    1    1    2    0    0 -0.64626139553E+02  0.54431094521E+02 -0.13959471055E+03  0.16317464625E+03  0.00000000000E+00 0. -1.
         11    1    1    2    0    0 -0.98550875811E+00  0.55131303096E+02 -0.14109408347E+02  0.56916669021E+02  0.00000000000E+00 0.  1.
</event>
<event>
 7    1  0.2648915E-009  0.9464310E+02  0.7561462E-02  0.1291982E+00
         -2   -1    0    0    0  501 -0.00000000000E+00  0.00000000000E+00  0.12169753358E+03  0.12169753358E+03  0.00000000000E+00 0.  1.
          2   -1    0    0  501    0  0.00000000000E+00 -0.00000000000E+00 -0.99647435381E+02  0.99647435381E+02  0.00000000000E+00 0. -1.
         25    2    1    2    0    0 -0.28903421782E+01 -0.15819860823E+02  0.53957053105E+01  0.12623058671E+03  0.12508567189E+03 0.  0.
          5    1    3    3  502    0 -0.31260733117E+02  0.46958873203E+02 -0.33183533793E+01  0.56664389846E+02  0.41800000000E+01 0. -1.
         -5    1    3    3    0  502  0.28370390939E+02 -0.62778734026E+02  0.87140586898E+01  0.69566196868E+02  0.41800000000E+01 0. -1.
        -11    1    1    2    0    0  0.17223948706E+02  0.35439307755E+02  0.43643448061E+02  0.58799315488E+02  0.00000000000E+00 0.  1.
         11    1    1    2    0    0 -0.14333606528E+02 -0.19619446932E+02 -0.26989055177E+02  0.36315066754E+02  0.00000000000E+00 0. -1.
</event>
<event>
 7    1  0.2648915E-009  0.6823043E+02  0.7561462E-02  0.1366216E+00
         -1   -1    0    0    0  501 -0.00000000000E+00  0.00000000000E+00  0.11131775136E+03  0.11131775136E+03  0.00000000000E+00 0.  1.
          1   -1    0    0  501    0  0.00000000000E+00 -0.00000000000E+00 -0.11963533510E+03  0.11963533510E+03  0.00000000000E+00 0. -1.
         25    2    1    2    0    0 -0.18887883424E+02  0.10832996238E+02  0.25921236357E+02  0.12958805168E+03  0.12508815569E+03 0.  0.
          5    1    3    3  502    0  0.18024583097E+02 -0.30920795267E+02 -0.32653993577E+02  0.48628560253E+02  0.41800000000E+01 0. -1.
         -5    1    3    3    0  502 -0.36912466521E+02  0.41753791505E+02  0.58575229934E+02  0.80959491423E+02  0.41800000000E+01 0. -1.
        -11    1    1    2    0    0 -0.98561705120E+01 -0.12295563622E+02  0.28372755299E+02  0.32455172549E+02  0.00000000000E+00 0.  1.
         11    1    1    2    0    0  0.28744053936E+02  0.14625673838E+01 -0.62611575399E+02  0.68909862241E+02  0.00000000000E+00 0. -1.
</event>
<event>
 7    1  0.2648915E-009  0.1206845E+03  0.7561462E-02  0.1241972E+00
          1   -1    0    0  501    0  0.00000000000E+00  0.00000000000E+00  0.60277381189E+02  0.60277381189E+02  0.00000000000E+00 0. -1.
         -1   -1    0    0    0  501 -0.00000000000E+00 -0.00000000000E+00 -0.35389974472E+03  0.35389974472E+03  0.00000000000E+00 0.  1.
         25    2    1    2    0    0 -0.37879636795E+02  0.90121748921E+02 -0.15629917906E+03  0.22279213027E+03  0.12510037338E+03 0.  0.
          5    1    3    3  502    0 -0.37107613520E+02  0.19700955326E+02  0.89097439783E+01  0.43150417839E+02  0.41800000000E+01 0. -1.
         -5    1    3    3    0  502 -0.77202327495E+00  0.70420793595E+02 -0.16520892304E+03  0.17964171243E+03  0.41800000000E+01 0. -1.
        -11    1    1    2    0    0  0.35130838167E+01  0.16347672264E+02 -0.39030453013E+02  0.42461328392E+02  0.00000000000E+00 0.  1.
         11    1    1    2    0    0  0.34366552979E+02 -0.10646942119E+03 -0.98292731457E+02  0.14892366725E+03  0.00000000000E+00 0. -1.
</event>
<event>
 7    1  0.2648915E-009  0.1440533E+03  0.7561462E-02  0.1207977E+00
          2   -1    0    0  501    0  0.00000000000E+00  0.00000000000E+00  0.10957258893E+03  0.10957258893E+03  0.00000000000E+00 0.  1.
         -2   -1    0    0    0  501 -0.00000000000E+00 -0.00000000000E+00 -0.34832834192E+03  0.34832834192E+03  0.00000000000E+00 0. -1.
         25    2    1    2    0    0 -0.10873084444E+03 -0.61917261750E+02 -0.24636351881E+03  0.30331275502E+03  0.12508996810E+03 0.  0.
          5    1    3    3  502    0 -0.11171116808E+03 -0.77000268012E+02 -0.13723325305E+03  0.19302555399E+03  0.41800000000E+01 0.  1.
         -5    1    3    3    0  502  0.29803236404E+01  0.15083006261E+02 -0.10913026575E+03  0.11028720103E+03  0.41800000000E+01 0.  1.
        -11    1    1    2    0    0  0.71236107922E+02  0.67959332130E+02  0.38418385646E+02  0.10568361392E+03  0.00000000000E+00 0.  1.
         11    1    1    2    0    0  0.37494736520E+02 -0.60420703799E+01 -0.30810619831E+02  0.48904561909E+02  0.00000000000E+00 0. -1.
</event>
<event>
 7    1  0.2648915E-009  0.1093814E+03  0.7561462E-02  0.1261720E+00
         -2   -1    0    0    0  501 -0.00000000000E+00  0.00000000000E+00  0.34096197873E+02  0.34096197873E+02  0.00000000000E+00 0.  1.
          2   -1    0    0  501    0  0.00000000000E+00 -0.00000000000E+00 -0.56404698066E+03  0.56404698066E+03  0.00000000000E+00 0. -1.
         25    2    1    2    0    0  0.37653880624E+02  0.59420734449E+02 -0.39782357931E+03  0.42291883747E+03  0.12509238354E+03 0.  0.
          5    1    3    3  502    0 -0.16964184927E+02  0.43223826361E+02 -0.42668302732E+02  0.63199202476E+02  0.41800000000E+01 0. -1.
         -5    1    3    3    0  502  0.54618065551E+02  0.16196908087E+02 -0.35515527658E+03  0.35971963499E+03  0.41800000000E+01 0. -1.
        -11    1    1    2    0    0 -0.10520671604E+02 -0.80172672379E+02 -0.95683384738E+02  0.12527430719E+03  0.00000000000E+00 0.  1.
         11    1    1    2    0    0 -0.27133209020E+02  0.20751937930E+02 -0.36443818732E+02  0.49950033867E+02  0.00000000000E+00 0. -1.
</event>
<event>
 7    1  0.2648915E-009  0.1261532E+03  0.7561462E-02  0.1233278E+00
         -2   -1    0    0    0  501 -0.00000000000E+00  0.00000000000E+00  0.26511644116E+02  0.26511644116E+02  0.00000000000E+00 0.  1.
          2   -1    0    0  501    0  0.00000000000E+00 -0.00000000000E+00 -0.84198585062E+03  0.84198585062E+03  0.00000000000E+00 0. -1.
         25    2    1    2    0    0  0.28099115570E+00  0.71680006530E+02 -0.65389998353E+03  0.66960531018E+03  0.12509188890E+03 0.  0.
          5    1    3    3  502    0 -0.17634194052E+02 -0.32106779268E+02 -0.22124872119E+03  0.22429952987E+03  0.41800000000E+01 0. -1.
         -5    1    3    3    0  502  0.17915185208E+02  0.10378678580E+03 -0.43265126234E+03  0.44530578031E+03  0.41800000000E+01 0. -1.
        -11    1    1    2    0    0  0.36307116500E+00 -0.90850953957E+02 -0.10342938202E+03  0.13766504538E+03  0.00000000000E+00 0.  1.
         11    1    1    2    0    0 -0.64406232070E+00  0.19170947427E+02 -0.58144840954E+02  0.61227139171E+02  0.00000000000E+00 0. -1.
</event>
<event>
 7    1  0.2648915E-009  0.1289521E+03  0.7561462E-02  0.1229019E+00
         -2   -1    0    0    0  501 -0.00000000000E+00  0.00000000000E+00  0.32761796623E+02  0.32761796623E+02  0.00000000000E+00 0.  1.
          2   -1    0    0  501    0  0.00000000000E+00 -0.00000000000E+00 -0.78774949071E+03  0.78774949071E+03  0.00000000000E+00 0. -1.
         25    2    1    2    0    0 -0.54681152304E+02  0.81165146534E+02 -0.56789683650E+03  0.58968756777E+03  0.12508717462E+03 0.  0.
          5    1    3    3  502    0 -0.77116902581E+02  0.32928796832E+01 -0.29732300408E+03  0.30720726045E+03  0.41800000000E+01 0.  1.
         -5    1    3    3    0  502  0.22435750276E+02  0.77872266851E+02 -0.27057383242E+03  0.28248030732E+03  0.41800000000E+01 0.  1.
        -11    1    1    2    0    0  0.25595573680E+02 -0.22942000468E+02 -0.17829470626E+01  0.34418711157E+02  0.00000000000E+00 0.  1.
         11    1    1    2    0    0  0.29085578625E+02 -0.58223146066E+02 -0.18530791053E+03  0.19640500841E+03  0.00000000000E+00 0. -1.
</event>
<event>
 7    1  0.3093316E-009  0.1130238E+03  0.7561462E-02  0.1255071E+00
         -3   -1    0    0    0  501 -0.00000000000E+00  0.00000000000E+00  0.51278646901E+02  0.51278646901E+02  0.00000000000E+00 0.  1.
          3   -1    0    0  501    0  0.00000000000E+00 -0.00000000000E+00 -0.43946038197E+03  0.43946038197E+03  0.00000000000E+00 0. -1.
         25    2    1    2    0    0 -0.75819867666E+02  0.59832304836E+02 -0.27160471445E+03  0.31423740904E+03  0.12508985288E+03 0.  0.
          5    1    3    3  502    0 -0.66459856139E+02  0.62557405169E+02 -0.77401528343E+02  0.11974477195E+03  0.41800000000E+01 0.  1.
         -5    1    3    3    0  502 -0.93600115271E+01 -0.27251003323E+01 -0.19420318611E+03  0.19449263709E+03  0.41800000000E+01 0.  1.
        -11    1    1    2    0    0  0.84958038820E+02 -0.25730134521E+02 -0.51931342151E+02  0.10284343674E+03  0.00000000000E+00 0.  1.
         11    1    1    2    0    0 -0.91381711537E+01 -0.34102170316E+02 -0.64645678470E+02  0.73658183097E+02  0.00000000000E+00 0. -1.
</event>
<event>
 7    1  0.2734109E-009  0.8323661E+02  0.7561462E-02  0.1320109E+00
          1   -1    0    0  501    0  0.00000000000E+00  0.00000000000E+00  0.59391109519E+03  0.59391109519E+03  0.00000000000E+00 0. -1.
         -1   -1    0    0    0  501 -0.00000000000E+00 -0.00000000000E+00 -0.33337251971E+02  0.33337251971E+02  0.00000000000E+00 0.  1.
         25    2    1    2    0    0  0.58115895882E+02 -0.41075964616E+02  0.42831207797E+03  0.45184481243E+03  0.12509119139E+03 0.  0.
          5    1    3    3  502    0  0.56549325072E+02 -0.29825012316E+02  0.76330962719E+02  0.99655636044E+02  0.41800000000E+01 0. -1.
         -5    1    3    3    0  502  0.15665708101E+01 -0.11250952300E+02  0.35198111525E+03  0.35218917639E+03  0.41800000000E+01 0. -1.
        -11    1    1    2    0    0 -0.65288820972E+02  0.20378968831E+02  0.37213464519E+02  0.77863819943E+02  0.00000000000E+00 0.  1.
         11    1    1    2    0    0  0.71729250907E+01  0.20696995785E+02  0.95048300729E+02  0.97539714785E+02  0.00000000000E+00 0. -1.
</event>
<event>
 7    1  0.2648915E-009  0.1404103E+03  0.7561462E-02  0.1212778E+00
          1   -1    0    0  501    0  0.00000000000E+00  0.00000000000E+00  0.74639161814E+03  0.74639161814E+03  0.00000000000E+00 0. -1.
         -1   -1    0    0    0  501 -0.00000000000E+00 -0.00000000000E+00 -0.34672309617E+02  0.34672309617E+02  0.00000000000E+00 0.  1.
         25    2    1    2    0    0  0.68139580625E+02  0.62621513462E+02  0.54060462998E+03  0.56255300037E+03  0.12509218950E+03 0.  0.
          5    1    3    3  502    0  0.85504584014E+02 -0.65195140289E+00  0.23912058957E+03  0.25398343979E+03  0.41800000000E+01 0.  1.
         -5    1    3    3    0  502 -0.17365003388E+02  0.63273464864E+02  0.30148404040E+03  0.30856956058E+03  0.41800000000E+01 0.  1.
        -11    1    1    2    0    0 -0.90144576591E+02 -0.57337878223E+02  0.16212525501E+03  0.19416043696E+03  0.00000000000E+00 0. -1.
         11    1    1    2    0    0  0.22004995966E+02 -0.52836352386E+01  0.89894235398E+01  0.24350490434E+02  0.00000000000E+00 0.  1.
</event>
<event>
 7    1  0.2648915E-009  0.3627170E+03  0.7561462E-02  0.1057513E+00
         -2   -1    0    0    0  501 -0.00000000000E+00  0.00000000000E+00  0.21801747916E+03  0.21801747916E+03  0.00000000000E+00 0. -1.
          2   -1    0    0  501    0  0.00000000000E+00 -0.00000000000E+00 -0.63980190970E+03  0.63980190970E+03  0.00000000000E+00 0.  1.
         25    2    1    2    0    0 -0.34850336988E+03  0.69102693519E+02 -0.25544491879E+03  0.45511589744E+03  0.12509433438E+03 0.  0.
          5    1    3    3  502    0 -0.36259074805E+02 -0.24554561300E+02 -0.55379937604E+01  0.44337216435E+02  0.41800000000E+01 0.  1.
         -5    1    3    3    0  502 -0.31224429507E+03  0.93657254819E+02 -0.24990692503E+03  0.41077868100E+03  0.41800000000E+01 0.  1.
        -11    1    1    2    0    0  0.22134725814E+03 -0.38971028819E+02 -0.55876715309E+02  0.23159351694E+03  0.00000000000E+00 0. -1.
         11    1    1    2    0    0  0.12715611174E+03 -0.30131664700E+02 -0.11046279644E+03  0.17110997448E+03  0.00000000000E+00 0.  1.
</event>
<event>
 7    1  0.2648915E-009  0.9391740E+02  0.7561462E-02  0.1293633E+00
          1   -1    0    0  501    0  0.00000000000E+00  0.00000000000E+00  0.53308674483E+03  0.53308674483E+03  0.00000000000E+00 0. -1.
         -1   -1    0    0    0  501 -0.00000000000E+00 -0.00000000000E+00 -0.21920002872E+02  0.21920002872E+02  0.00000000000E+00 0.  1.
         25    2    1    2    0    0 -0.56995202570E-01 -0.49764411103E+01  0.28556268267E+03  0.31179812651E+03  0.12508899930E+03 0.  0.
          5    1    3    3  502    0  0.45998070111E+02  0.33746078895E+02  0.85733889281E+02  0.10306499147E+03  0.41800000000E+01 0.  1.
         -5    1    3    3    0  502 -0.46055065314E+02 -0.38722520005E+02  0.19982879339E+03  0.20873313504E+03  0.41800000000E+01 0.  1.
        -11    1    1    2    0    0  0.34994361344E+02 -0.22137376001E+00  0.18948369409E+03  0.19268815391E+03  0.00000000000E+00 0. -1.
         11    1    1    2    0    0 -0.34937366141E+02  0.51978148703E+01  0.36120365194E+02  0.50520467279E+02  0.00000000000E+00 0.  1.
</event>
<event>
 7    1  0.2648915E-009  0.1338362E+03  0.7561462E-02  0.1221872E+00
         -2   -1    0    0    0  501 -0.00000000000E+00  0.00000000000E+00  0.14780826385E+03  0.14780826385E+03  0.00000000000E+00 0. -1.
          2   -1    0    0  501    0  0.00000000000E+00 -0.00000000000E+00 -0.20863871916E+03  0.20863871916E+03  0.00000000000E+00 0.  1.
         25    2    1    2    0    0  0.18352812179E+02  0.11714195556E+03  0.40244761755E+02  0.17700059053E+03  0.12510197733E+03 0.  0.
          5    1    3    3  502    0 -0.34233682160E+01  0.52826274408E+02 -0.43826514261E+02  0.68851800776E+02  0.41800000000E+01 0. -1.
         -5    1    3    3    0  502  0.21776180395E+02  0.64315681154E+02  0.84071276015E+02  0.10814878976E+03  0.41800000000E+01 0. -1.
        -11    1    1    2    0    0 -0.68737222806E+01  0.13629906154E+02 -0.19976773356E+02  0.25141477153E+02  0.00000000000E+00 0.  1.
         11    1    1    2    0    0 -0.11479089899E+02 -0.13077186172E+03 -0.81098443714E+02  0.15430491533E+03  0.00000000000E+00 0. -1.
</event>
<event>
 7    1  0.2648915E-009  0.9866039E+02  0.7561462E-02  0.1283138E+00
         -3   -1    0    0    0  501 -0.00000000000E+00  0.00000000000E+00  0.19980724522E+03  0.19980724522E+03  0.00000000000E+00 0.  1.
          3   -1    0    0  501    0  0.00000000000E+00 -0.00000000000E+00 -0.68916462719E+02  0.68916462719E+02  0.00000000000E+00 0. -1.
         25    2    1    2    0    0 -0.18416157925E+01 -0.28257825505E+02  0.36579555231E+02  0.13337447085E+03  0.12509512126E+03 0.  0.
          5    1    3    3  502    0  0.50622251863E+02  0.63657069304E+01 -0.13448242289E+02  0.52928841184E+02  0.41800000000E+01 0.  1.
         -5    1    3    3    0  502 -0.52463867655E+02 -0.34623532436E+02  0.50027797520E+02  0.80445629666E+02  0.41800000000E+01 0.  1.
        -11    1    1    2    0    0 -0.35671949423E+02  0.28433045187E+02  0.15695813792E+02  0.48241938236E+02  0.00000000000E+00 0. -1.
         11    1    1    2    0    0  0.37513565215E+02 -0.17521968141E+00  0.78615413477E+02  0.87107298852E+02  0.00000000000E+00 0.  1.
</event>
<event>
 7    1  0.2803669E-009  0.1001431E+03  0.7561462E-02  0.1279995E+00
          4   -1    0    0  501    0  0.00000000000E+00  0.00000000000E+00  0.63894535192E+03  0.63894535192E+03  0.00000000000E+00 0. -1.
         -4   -1    0    0    0  501 -0.00000000000E+00 -0.00000000000E+00 -0.33557113132E+02  0.33557113132E+02  0.00000000000E+00 0.  1.
         25    2    1    2    0    0 -0.11205508777E+02  0.94371446809E+02  0.38283336739E+03  0.41380915052E+03  0.12508034404E+03 0.  0.
          5    1    3    3  502    0 -0.96861257043E+01  0.70824755447E+01  0.27368064444E+03  0.27397545516E+03  0.41800000000E+01 0.  1.
         -5    1    3    3    0  502 -0.15193830726E+01  0.87288971265E+02  0.10915272295E+03  0.13983369536E+03  0.41800000000E+01 0.  1.
        -11    1    1    2    0    0  0.18368538598E+02 -0.28426656875E+02  0.89246855058E+01  0.35001829134E+02  0.00000000000E+00 0.  1.
         11    1    1    2    0    0 -0.71630298215E+01 -0.65944789935E+02  0.21363018589E+03  0.22369148540E+03  0.00000000000E+00 0. -1.
</event>
<event>
 7    1  0.2648915E-009  0.4112458E+02  0.7561462E-02  0.1500095E+00
         -2   -1    0    0    0  501 -0.00000000000E+00  0.00000000000E+00  0.96071723514E+02  0.96071723514E+02  0.00000000000E+00 0.  1.
          2   -1    0    0  501    0  0.00000000000E+00 -0.00000000000E+00 -0.14059750215E+03  0.14059750215E+03  0.00000000000E+00 0. -1.
         25    2    1    2    0    0  0.10919241055E+02 -0.26459302611E+02  0.77238545322E+01  0.12853783541E+03  0.12507195002E+03 0.  0.
          5    1    3    3  502    0  0.13405301517E+02 -0.28500281260E+02 -0.56113032519E+02  0.64483431664E+02  0.41800000000E+01 0. -1.
         -5    1    3    3    0  502 -0.24860604615E+01  0.20409786490E+01  0.63836887052E+02  0.64054403743E+02  0.41800000000E+01 0. -1.
        -11    1    1    2    0    0  0.89666172406E+01  0.23430932833E+02 -0.74218843399E+02  0.78344403461E+02  0.00000000000E+00 0. -1.
         11    1    1    2    0    0 -0.19885858296E+02  0.30283697776E+01  0.21969210235E+02  0.29786986790E+02  0.00000000000E+00 0.  1.
</event>
<event>
 7    1  0.2648915E-009  0.1059197E+03  0.7561462E-02  0.1268318E+00
         -4   -1    0    0    0  501 -0.00000000000E+00  0.00000000000E+00  0.11457725482E+03  0.11457725482E+03  0.00000000000E+00 0.  1.
          4   -1    0    0  501    0  0.00000000000E+00 -0.00000000000E+00 -0.13620268384E+03  0.13620268384E+03  0.00000000000E+00 0. -1.
         25    2    1    2    0    0  0.55858696675E+02  0.20424304893E+02 -0.32700217675E+02  0.14231700967E+03  0.12508989080E+03 0.  0.
          5    1    3    3  502    0  0.95316370281E+02  0.16688027256E+02 -0.33409645186E+02  0.10245671032E+03  0.41800000000E+01 0.  1.
         -5    1    3    3    0  502 -0.39457673607E+02  0.37362776369E+01  0.70942751144E+00  0.39860299352E+02  0.41800000000E+01 0.  1.
        -11    1    1    2    0    0 -0.21813644071E+02  0.14628254859E+02  0.42790485213E+02  0.50208032551E+02  0.00000000000E+00 0.  1.
         11    1    1    2    0    0 -0.34045052604E+02 -0.35052559752E+02 -0.31715696556E+02  0.58254896447E+02  0.00000000000E+00 0. -1.
</event>
<event>
 7    1  0.2648915E-009  0.1123283E+03  0.7561462E-02  0.1256318E+00
         -2   -1    0    0    0  501 -0.00000000000E+00  0.00000000000E+00  0.68488934878E+02  0.68488934878E+02  0.00000000000E+00 0. -1.
          2   -1    0    0  501    0  0.00000000000E+00 -0.00000000000E+00 -0.22367756043E+03  0.22367756043E+03  0.00000000000E+00 0.  1.
         25    2    1    2    0    0  0.54694061926E+02 -0.18211587656E+02 -0.64482675369E+02  0.15208098425E+03  0.12508999966E+03 0.  0.
          5    1    3    3  502    0  0.53384694075E+02  0.40841260428E+02 -0.63939082251E+02  0.92863409123E+02  0.41800000000E+01 0. -1.
         -5    1    3    3    0  502  0.13093678511E+01 -0.59052848084E+02 -0.54359311869E+00  0.59217575132E+02  0.41800000000E+01 0. -1.
        -11    1    1    2    0    0 -0.73282880013E+02  0.26251576925E+02 -0.44569223081E+02  0.89699171904E+02  0.00000000000E+00 0. -1.
         11    1    1    2    0    0  0.18588818088E+02 -0.80399892685E+01 -0.46136727097E+02  0.50386339146E+02  0.00000000000E+00 0.  1.
</event>
<event>
 7    1  0.2648915E-009  0.2015322E+03  0.7561462E-02  0.1148453E+00
         -1   -1    0    0    0  501 -0.00000000000E+00  0.00000000000E+00  0.51876590876E+03  0.51876590876E+03  0.00000000000E+00 0.  1.
          1   -1    0    0  501    0  0.00000000000E+00 -0.00000000000E+00 -0.11137141343E+03  0.11137141343E+03  0.00000000000E+00 0. -1.
         25    2    1    2    0    0 -0.14185881876E+03  0.13280113915E+03  0.32822256952E+03  0.40141915594E+03  0.12508883481E+03 0.  0.
          5    1    3    3  502    0 -0.14554572607E+03  0.13214228737E+03  0.22815019080E+03  0.30118951584E+03  0.41800000000E+01 0. -1.
         -5    1    3    3    0  502  0.36869073133E+01  0.65885177344E+00  0.10007237873E+03  0.10022964010E+03  0.41800000000E+01 0. -1.
        -11    1    1    2    0    0  0.14200383224E+03 -0.11421329246E+03  0.93897611079E+02  0.20500372170E+03  0.00000000000E+00 0.  1.
         11    1    1    2    0    0 -0.14501347708E+00 -0.18587846684E+02 -0.14725685273E+02  0.23714444544E+02  0.00000000000E+00 0. -1.
</event>
<event>
 7    1  0.2648915E-009  0.1065714E+03  0.7561462E-02  0.1267054E+00
         -1   -1    0    0    0  501 -0.00000000000E+00  0.00000000000E+00  0.20858394989E+03  0.20858394989E+03  0.00000000000E+00 0.  1.
          1   -1    0    0  501    0  0.00000000000E+00 -0.00000000000E+00 -0.12881488103E+03  0.12881488103E+03  0.00000000000E+00 0. -1.
         25    2    1    2    0    0  0.92397988649E+02  0.38763627340E+02 -0.33990538639E+02  0.16383716368E+03  0.12508897783E+03 0.  0.
          5    1    3    3  502    0  0.94445775782E+02  0.26445900677E+02 -0.73213693130E+02  0.12246267794E+03  0.41800000000E+01 0.  1.
         -5    1    3    3    0  502 -0.20477871335E+01  0.12317726663E+02  0.39223154492E+02  0.41374485744E+02  0.41800000000E+01 0.  1.
        -11    1    1    2    0    0 -0.30226480136E+02 -0.22092537463E+02 -0.56933722524E+01  0.37869972281E+02  0.00000000000E+00 0. -1.
         11    1    1    2    0    0 -0.62171508512E+02 -0.16671089877E+02  0.11945297975E+03  0.13569169495E+03  0.00000000000E+00 0.  1.
</event>
<event>
 7    1  0.2648915E-009  0.7384998E+02  0.7561462E-02  0.1347470E+00
         -2   -1    0    0    0  501 -0.00000000000E+00  0.00000000000E+00  0.52202062902E+02  0.52202062902E+02  0.00000000000E+00 0.  1.
          2   -1    0    0  501    0  0.00000000000E+00 -0.00000000000E+00 -0.23738339613E+03  0.23738339613E+03  0.00000000000E+00 0. -1.
         25    2    1    2    0    0  0.27166700805E+02  0.17503464044E+02 -0.10369478210E+03  0.16566345893E+03  0.12508945960E+03 0.  0.
          5    1    3    3  502    0 -0.11436080311E+02  0.65812134473E+00  0.26279860471E+02  0.28971029028E+02  0.41800000000E+01 0.  1.
         -5    1    3    3    0  502  0.38602781116E+02  0.16845342700E+02 -0.12997464257E+03  0.13669242990E+03  0.41800000000E+01 0.  1.
        -11    1    1    2    0    0  0.30075142524E+02 -0.19604658124E+02 -0.27670169562E+02  0.45326538602E+02  0.00000000000E+00 0.  1.
         11    1    1    2    0    0 -0.57241843329E+02  0.21011940795E+01 -0.53816381573E+02  0.78595461509E+02  0.00000000000E+00 0. -1.
</event>
<event>
 7    1  0.2648915E-009  0.1337276E+03  0.7561462E-02  0.1222027E+00
         -2   -1    0    0    0  501 -0.00000000000E+00  0.00000000000E+00  0.50858366419E+02  0.50858366419E+02  0.00000000000E+00 0.  1.
          2   -1    0    0  501    0  0.00000000000E+00 -0.00000000000E+00 -0.43024433215E+03  0.43024433215E+03  0.00000000000E+00 0. -1.
         25    2    1    2    0    0 -0.91788942652E+01 -0.95888862808E+02 -0.24693388548E+03  0.29308923159E+03  0.12508408279E+03 0.  0.
          5    1    3    3  502    0 -0.55378474410E+02 -0.16127200836E+02 -0.53529485262E+02  0.78801904972E+02  0.41800000000E+01 0. -1.
         -5    1    3    3    0  502  0.46199580145E+02 -0.79761661972E+02 -0.19340440022E+03  0.21428732662E+03  0.41800000000E+01 0. -1.
        -11    1    1    2    0    0 -0.26283148932E+02  0.65773874590E+02 -0.12082935782E+03  0.14005977369E+03  0.00000000000E+00 0. -1.
         11    1    1    2    0    0  0.35462043197E+02  0.30114988218E+02 -0.11622722438E+02  0.47953693288E+02  0.00000000000E+00 0.  1.
</event>
<event>
 7    1  0.2648915E-009  0.1505834E+03  0.7561462E-02  0.1199758E+00
          1   -1    0    0  501    0  0.00000000000E+00  0.00000000000E+00  0.48750921280E+02  0.48750921280E+02  0.00000000000E+00 0. -1.
         -1   -1    0    0    0  501 -0.00000000000E+00 -0.00000000000E+00 -0.50883001333E+03  0.50883001333E+03  0.00000000000E+00 0.  1.
         25    2    1    2    0    0 -0.10736816578E+03 -0.19455387278E+02 -0.30569374581E+03  0.34785283919E+03  0.12508595601E+03 0.  0.
          5    1    3    3  502    0  0.12951723251E+02 -0.40122681867E+02 -0.59781983463E+02  0.73273014693E+02  0.41800000000E+01 0.  1.
         -5    1    3    3    0  502 -0.12031988903E+03  0.20667294589E+02 -0.24591176235E+03  0.27457982450E+03  0.41800000000E+01 0.  1.
        -11    1    1    2    0    0  0.99832423358E+02  0.45369218565E+02 -0.14356182113E+03  0.18065125306E+03  0.00000000000E+00 0.  1.
         11    1    1    2    0    0  0.75357424190E+01 -0.25913831286E+02 -0.10823525115E+02  0.29076842361E+02  0.00000000000E+00 0. -1.
</event>
<event>
 7    1  0.2648915E-009  0.6537547E+02  0.7561462E-02  0.1376565E+00
          3   -1    0    0  501    0  0.00000000000E+00  0.00000000000E+00  0.24253231187E+03  0.24253231187E+03  0.00000000000E+00 0. -1.
         -3   -1    0    0    0  501 -0.00000000000E+00 -0.00000000000E+00 -0.21992302972E+03  0.21992302972E+03  0.00000000000E+00 0.  1.
         25    2    1    2    0    0  0.62948350954E+01  0.27833905619E+02  0.21365469712E+03  0.24922290624E+03  0.12509746656E+03 0.  0.
          5    1    3    3  502    0  0.21314631330E+02  0.42175732382E+02  0.15454846214E+02  0.49894193873E+02  0.41800000000E+01 0. -1.
         -5    1    3    3    0  502 -0.15019796234E+02 -0.14341826763E+02  0.19819985090E+03  0.19932871236E+03  0.41800000000E+01 0. -1.
        -11    1    1    2    0    0 -0.29484540474E+02 -0.56222450726E+01 -0.17458844722E+03  0.17714986218E+03  0.00000000000E+00 0.  1.
         11    1    1    2    0    0  0.23189705378E+02 -0.22211660547E+02 -0.16456967743E+02  0.36082573177E+02  0.00000000000E+00 0. -1.
</event>
<event>
 7    1  0.2648915E-009  0.2857304E+03  0.7561462E-02  0.1092600E+00
         -1   -1    0    0    0  501 -0.00000000000E+00  0.00000000000E+00  0.13726109187E+04  0.13726109187E+04  0.00000000000E+00 0.  1.
          1   -1    0    0  501    0  0.00000000000E+00 -0.00000000000E+00 -0.68464606422E+02  0.68464606422E+02  0.00000000000E+00 0. -1.
         25    2    1    2    0    0  0.27498440253E+03  0.52311904888E+02  0.80580504522E+03  0.86216086361E+03  0.12508647732E+03 0.  0.
          5    1    3    3  502    0  0.21829556042E+03  0.70178195220E+02  0.73323447085E+03  0.76826310105E+03  0.41800000000E+01 0.  1.
         -5    1    3    3    0  502  0.56688842110E+02 -0.17866290333E+02  0.72570574367E+02  0.93897762561E+02  0.41800000000E+01 0.  1.
        -11    1    1    2    0    0 -0.21003010557E+03 -0.23026780239E+02  0.43491741980E+03  0.48352460113E+03  0.00000000000E+00 0.  1.
         11    1    1    2    0    0 -0.64954296960E+02 -0.29285124649E+02  0.63423847270E+02  0.95390060393E+02  0.00000000000E+00 0. -1.
</event>
<event>
 7    1  0.2648915E-009  0.1272311E+03  0.7561462E-02  0.1231623E+00
         -1   -1    0    0    0  501 -0.00000000000E+00  0.00000000000E+00  0.22075712144E+02  0.22075712144E+02  0.00000000000E+00 0.  1.
          1   -1    0    0  501    0  0.00000000000E+00 -0.00000000000E+00 -0.90055917501E+03  0.90055917501E+03  0.00000000000E+00 0. -1.
         25    2    1    2    0    0 -0.34836350033E+02 -0.61092962216E+02 -0.29865826892E+03  0.33134589089E+03  0.12508963387E+03 0.  0.
          5    1    3    3  502    0  0.18886382205E+02 -0.79996605624E+02 -0.13610646333E+03  0.15905531775E+03  0.41800000000E+01 0.  1.
         -5    1    3    3    0  502 -0.53722732239E+02  0.18903643408E+02 -0.16255180559E+03  0.17229057314E+03  0.41800000000E+01 0.  1.
        -11    1    1    2    0    0  0.38530285218E+02 -0.13156098523E+02 -0.17291427779E+03  0.17764293758E+03  0.00000000000E+00 0.  1.
         11    1    1    2    0    0 -0.36939351844E+01  0.74249060740E+02 -0.40691091616E+03  0.41364605869E+03  0.00000000000E+00 0. -1.
</event>
<event>
 7    1  0.4976920E-009  0.1248789E+03  0.7561462E-02  0.1235259E+00
         -3   -1    0    0    0  501 -0.00000000000E+00  0.00000000000E+00  0.41451761981E+02  0.41451761981E+02  0.00000000000E+00 0.  1.
          3   -1    0    0  501    0  0.00000000000E+00 -0.00000000000E+00 -0.48228792996E+03  0.48228792996E+03  0.00000000000E+00 0. -1.
         25    2    1    2    0    0 -0.51999325323E+02 -0.68909713053E+02 -0.19322193334E+03  0.24583745233E+03  0.12509539982E+03 0.  0.
          5    1    3    3  502    0 -0.89763867592E+02 -0.36453276724E+02 -0.15536901398E+03  0.18314856323E+03  0.41800000000E+01 0.  1.
         -5    1    3    3    0  502  0.37764542270E+02 -0.32456436329E+02 -0.37852919354E+02  0.62688889092E+02  0.41800000000E+01 0.  1.
        -11    1    1    2    0    0 -0.12140309402E+02  0.11900170662E+02 -0.12792991056E+01  0.17048101957E+02  0.00000000000E+00 0.  1.
         11    1    1    2    0    0  0.64139634724E+02  0.57009542392E+02 -0.24633493554E+03  0.26085413766E+03  0.00000000000E+00 0. -1.
</event>
<event>
 7    1  0.2648915E-009  0.8592231E+02  0.7561462E-02  0.1313038E+00
          1   -1    0    0  501    0  0.00000000000E+00  0.00000000000E+00  0.11294400952E+04  0.11294400952E+04  0.00000000000E+00 0. -1.
         -1   -1    0    0    0  501 -0.00000000000E+00 -0.00000000000E+00 -0.14323821180E+02  0.14323821180E+02  0.00000000000E+00 0.  1.
         25    2    1    2    0    0 -0.44682645719E+01 -0.59503567873E+02  0.74001642686E+03  0.75288303599E+03  0.12509162194E+03 0.  0.
          5    1    3    3  502    0  0.86066834356E+01 -0.57974503468E+01  0.62605607298E+03  0.62615602237E+03  0.41800000000E+01 0.  1.
         -5    1    3    3    0  502 -0.13074948008E+02 -0.53706117526E+02  0.11396035388E+03  0.12672701362E+03  0.41800000000E+01 0.  1.
        -11    1    1    2    0    0 -0.33520685199E+02 -0.12811807425E+01  0.72154731807E+02  0.79571245324E+02  0.00000000000E+00 0.  1.
         11    1    1    2    0    0  0.37988949771E+02  0.60784748615E+02  0.30294511532E+03  0.31130963503E+03  0.00000000000E+00 0. -1.
</event>
<event>
 7    1  0.2648915E-009  0.1014095E+03  0.7561462E-02  0.1277360E+00
         -1   -1    0    0    0  501 -0.00000000000E+00  0.00000000000E+00  0.49212200943E+02  0.49212200943E+02  0.00000000000E+00 0.  1.
          1   -1    0    0  501    0  0.00000000000E+00 -0.00000000000E+00 -0.33993394394E+03  0.33993394394E+03  0.00000000000E+00 0. -1.
         25    2    1    2    0    0 -0.98922692217E+01 -0.67689408507E+02 -0.19810892720E+03  0.24407417398E+03  0.12508134294E+03 0.  0.
          5    1    3    3  502    0 -0.59336270498E+02 -0.35874869602E+02 -0.15851413621E+03  0.17306647002E+03  0.41800000000E+01 0. -1.
         -5    1    3    3    0  502  0.49444001276E+02 -0.31814538905E+02 -0.39594790993E+02  0.71007703960E+02  0.41800000000E+01 0. -1.
        -11    1    1    2    0    0  0.18200588757E+02  0.25015295896E+02 -0.96582247909E+02  0.10141576342E+03  0.00000000000E+00 0. -1.
         11    1    1    2    0    0 -0.83083195356E+01  0.42674112611E+02  0.39694321111E+01  0.43656207484E+02  0.00000000000E+00 0.  1.
</event>
<event>
 7    1  0.2648915E-009  0.1496048E+03  0.7561462E-02  0.1200959E+00
         -2   -1    0    0    0  501 -0.00000000000E+00  0.00000000000E+00  0.35514508971E+03  0.35514508971E+03  0.00000000000E+00 0.  1.
          2   -1    0    0  501    0  0.00000000000E+00 -0.00000000000E+00 -0.10754335496E+03  0.10754335496E+03  0.00000000000E+00 0. -1.
         25    2    1    2    0    0 -0.53143308499E+02  0.87596849198E+02  0.27569864007E+03  0.31961545324E+03  0.12508748373E+03 0.  0.
          5    1    3    3  502    0  0.31498763500E+02 -0.82345746882E+01  0.71157461103E+02  0.78363492731E+02  0.41800000000E+01 0. -1.
         -5    1    3    3    0  502 -0.84642071999E+02  0.95831423886E+02  0.20454117897E+03  0.24125196051E+03  0.41800000000E+01 0. -1.
        -11    1    1    2    0    0  0.25768602332E+02  0.16647842027E+02  0.31919007861E+01  0.30844120038E+02  0.00000000000E+00 0.  1.
         11    1    1    2    0    0  0.27374706167E+02 -0.10424469122E+03 -0.31288806112E+02  0.11222887139E+03  0.00000000000E+00 0. -1.
</event>
<event>
 7    1  0.2648915E-009  0.9969127E+02  0.7561462E-02  0.1280947E+00
         -1   -1    0    0    0  501 -0.00000000000E+00  0.00000000000E+00  0.38381395957E+03  0.38381395957E+03  0.00000000000E+00 0.  1.
          1   -1    0    0  501    0  0.00000000000E+00 -0.00000000000E+00 -0.48925872449E+02  0.48925872449E+02  0.00000000000E+00 0. -1.
         25    2    1    2    0    0  0.52110795723E+02  0.25031929505E+02  0.85944104313E+02  0.16241128476E+03  0.12509557876E+03 0.  0.
          5    1    3    3  502    0 -0.36612006058E+02 -0.14966569553E+02  0.18075369542E+02  0.43687853871E+02  0.41800000000E+01 0. -1.
         -5    1    3    3    0  502  0.88722801782E+02  0.39998499058E+02  0.67868734771E+02  0.11872343089E+03  0.41800000000E+01 0. -1.
        -11    1    1    2    0    0 -0.40284093703E+02 -0.29094852026E+02  0.25248752633E+03  0.25733105054E+03  0.00000000000E+00 0.  1.
         11    1    1    2    0    0 -0.11826702021E+02  0.40629225204E+01 -0.35435435268E+01  0.12997496714E+02  0.00000000000E+00 0. -1.
</event>
<event>
 7    1  0.2648915E-009  0.1185928E+03  0.7561462E-02  0.1245437E+00
          1   -1    0    0  501    0  0.00000000000E+00  0.00000000000E+00  0.58560135802E+03  0.58560135802E+03  0.00000000000E+00 0. -1.
         -1   -1    0    0    0  501 -0.00000000000E+00 -0.00000000000E+00 -0.35323355122E+02  0.35323355122E+02  0.00000000000E+00 0.  1.
         25    2    1    2    0    0  0.22344166432E+02 -0.50139004713E+02  0.46696131597E+03  0.48653261012E+03  0.12509168048E+03 0.  0.
          5    1    3    3  502    0 -0.51176762791E+02 -0.12825142636E+02  0.21370264001E+03  0.22015866116E+03  0.41800000000E+01 0.  1.
         -5    1    3    3    0  502  0.73520929223E+02 -0.37313862076E+02  0.25325867596E+03  0.26637394896E+03  0.41800000000E+01 0.  1.
        -11    1    1    2    0    0 -0.54698666350E+02  0.22466673780E+02  0.65490016215E+02  0.88236260999E+02  0.00000000000E+00 0. -1.
         11    1    1    2    0    0  0.32354499918E+02  0.27672330933E+02  0.17826670707E+02  0.46155842021E+02  0.00000000000E+00 0.  1.
</event>
<event>
 7    1  0.2648915E-009  0.1462005E+03  0.7561462E-02  0.1205221E+00
         -1   -1    0    0    0  501 -0.00000000000E+00  0.00000000000E+00  0.93322411599E+02  0.93322411599E+02  0.00000000000E+00 0.  1.
          1   -1    0    0  501    0  0.00000000000E+00 -0.00000000000E+00 -0.25477441498E+03  0.25477441498E+03  0.00000000000E+00 0. -1.
         25    2    1    2    0    0 -0.84894537131E+02 -0.69347947343E+02 -0.83470591053E+02  0.18609954544E+03  0.12509788571E+03 0.  0.
          5    1    3    3  502    0 -0.10890869120E+03 -0.54083074141E+02 -0.29889327847E+02  0.12528737465E+03  0.41800000000E+01 0. -1.
         -5    1    3    3    0  502  0.24014154071E+02 -0.15264873202E+02 -0.53581263206E+02  0.60812170792E+02  0.41800000000E+01 0. -1.
        -11    1    1    2    0    0  0.91203232013E+01  0.65464746246E+02 -0.34872080296E+02  0.74732023126E+02  0.00000000000E+00 0. -1.
         11    1    1    2    0    0  0.75774213929E+02  0.38832010975E+01 -0.43109332032E+02  0.87265258011E+02  0.00000000000E+00 0.  1.
</event>
<event>
 7    1  0.2648915E-009  0.1137203E+03  0.7561462E-02  0.1253832E+00
         -2   -1    0    0    0  501 -0.00000000000E+00  0.00000000000E+00  0.33047882236E+02  0.33047882236E+02  0.00000000000E+00 0.  1.
          2   -1    0    0  501    0  0.00000000000E+00 -0.00000000000E+00 -0.71709119310E+03  0.71709119310E+03  0.00000000000E+00 0. -1.
         25    2    1    2    0    0 -0.96378599107E+01 -0.96628376817E+02 -0.50030635810E+03  0.52477187331E+03  0.12509650478E+03 0.  0.
          5    1    3    3  502    0  0.34076375008E+02 -0.59515098096E+02 -0.10616153525E+03  0.12645548704E+03  0.41800000000E+01 0.  1.
         -5    1    3    3    0  502 -0.43714234919E+02 -0.37113278721E+02 -0.39414482285E+03  0.39831638627E+03  0.41800000000E+01 0.  1.
        -11    1    1    2    0    0  0.18388361243E+02  0.41135232033E+02 -0.15664585759E+03  0.16299743508E+03  0.00000000000E+00 0. -1.
         11    1    1    2    0    0 -0.87505013326E+01  0.55493144784E+02 -0.27091095180E+02  0.62369766952E+02  0.00000000000E+00 0.  1.
</event>
<event>
 7    1  0.2648915E-009  0.9234629E+02  0.7561462E-02  0.1297267E+00
         -2   -1    0    0    0  501 -0.00000000000E+00  0.00000000000E+00  0.25327781447E+03  0.25327781447E+03  0.00000000000E+00 0.  1.
          2   -1    0    0  501    0  0.00000000000E+00 -0.00000000000E+00 -0.57009728596E+02  0.57009728596E+02  0.00000000000E+00 0. -1.
         25    2    1    2    0    0 -0.28327766805E+02 -0.24337986115E+01  0.65714365462E+02  0.14413841016E+03  0.12509643363E+03 0.  0.
          5    1    3    3  502    0  0.79498805863E+01  0.49075517741E+02  0.63770707673E+02  0.80967787421E+02  0.41800000000E+01 0. -1.
         -5    1    3    3    0  502 -0.36277647391E+02 -0.51509316352E+02  0.19436577899E+01  0.63170622737E+02  0.41800000000E+01 0. -1.
        -11    1    1    2    0    0  0.49963161922E+02  0.25003983959E+01  0.13507956247E+03  0.14404533224E+03  0.00000000000E+00 0.  1.
         11    1    1    2    0    0 -0.21635395118E+02 -0.66599784360E-01 -0.45258420671E+01  0.22103800665E+02  0.00000000000E+00 0. -1.
</event>
<event>
 7    1  0.2648915E-009  0.1119610E+03  0.7561462E-02  0.1256981E+00
          2   -1    0    0  501    0  0.00000000000E+00  0.00000000000E+00  0.14739098685E+03  0.14739098685E+03  0.00000000000E+00 0. -1.
         -2   -1    0    0    0  501 -0.00000000000E+00 -0.00000000000E+00 -0.16337617165E+03  0.16337617165E+03  0.00000000000E+00 0.  1.
         25    2    1    2    0    0 -0.84411901464E+02  0.44870285833E+02 -0.64391572574E+02  0.17009391679E+03  0.12508778618E+03 0.  0.
          5    1    3    3  502    0 -0.84802235118E+02  0.63866250078E+02 -0.36431645981E+01  0.10630645337E+03  0.41800000000E+01 0.  1.
         -5    1    3    3    0  502  0.39033365455E+00 -0.18995964245E+02 -0.60748407976E+02  0.63787463420E+02  0.41800000000E+01 0.  1.
        -11    1    1    2    0    0  0.43433086422E+02 -0.10365645731E+02  0.69905200107E+02  0.82949482274E+02  0.00000000000E+00 0. -1.
         11    1    1    2    0    0  0.40978815042E+02 -0.34504640102E+02 -0.21498812331E+02  0.57723759428E+02  0.00000000000E+00 0.  1.
</event>
<event>
 7    1  0.2648915E-009  0.1609875E+03  0.7561462E-02  0.1187586E+00
         -2   -1    0    0    0  501 -0.00000000000E+00  0.00000000000E+00  0.47433861379E+02  0.47433861379E+02  0.00000000000E+00 0.  1.
          2   -1    0    0  501    0  0.00000000000E+00 -0.00000000000E+00 -0.79993433337E+03  0.79993433337E+03  0.00000000000E+00 0. -1.
         25    2    1    2    0    0 -0.14700310726E+03  0.54354843814E+02 -0.31622222298E+03  0.37444379266E+03  0.12508915607E+03 0.  0.
          5    1    3    3  502    0 -0.10922456160E+03  0.57257875193E+02 -0.11183553193E+03  0.16653266266E+03  0.41800000000E+01 0.  1.
         -5    1    3    3    0  502 -0.37778545661E+02 -0.29030313790E+01 -0.20438669104E+03  0.20791113000E+03  0.41800000000E+01 0.  1.
        -11    1    1    2    0    0  0.41489920136E+02  0.60184342503E+00 -0.23881010706E+03  0.24238820706E+03  0.00000000000E+00 0. -1.
         11    1    1    2    0    0  0.10551318713E+03 -0.54956687239E+02 -0.19746814195E+03  0.23053619502E+03  0.00000000000E+00 0.  1.
</event>
<event>
 7    1  0.2648915E-009  0.1056896E+03  0.7561462E-02  0.1268767E+00
         -2   -1    0    0    0  501 -0.00000000000E+00  0.00000000000E+00  0.25047447069E+02  0.25047447069E+02  0.00000000000E+00 0.  1.
          2   -1    0    0  501    0  0.00000000000E+00 -0.00000000000E+00 -0.84182189883E+03  0.84182189883E+03  0.00000000000E+00 0. -1.
         25    2    1    2    0    0 -0.87552145028E+01 -0.17633977283E+02 -0.72576587601E+03  0.73673019437E+03  0.12509061350E+03 0.  0.
          5    1    3    3  502    0  0.50058356730E+02 -0.37572819729E+02 -0.42368801180E+03  0.42830661868E+03  0.41800000000E+01 0.  1.
         -5    1    3    3    0  502 -0.58813571233E+02  0.19938842446E+02 -0.30207786420E+03  0.30842357569E+03  0.41800000000E+01 0.  1.
        -11    1    1    2    0    0 -0.33972854906E+02 -0.10130283822E+02 -0.62225536763E+02  0.71615605466E+02  0.00000000000E+00 0. -1.
         11    1    1    2    0    0  0.42728069408E+02  0.27764261104E+02 -0.28783038992E+02  0.58523546062E+02  0.00000000000E+00 0.  1.
</event>
<event>
 7    1  0.2648915E-009  0.1303442E+03  0.7561462E-02  0.1226946E+00
         -1   -1    0    0    0  501 -0.00000000000E+00  0.00000000000E+00  0.41593105636E+02  0.41593105636E+02  0.00000000000E+00 0.  1.
          1   -1    0    0  501    0  0.00000000000E+00 -0.00000000000E+00 -0.51623145079E+03  0.51623145079E+03  0.00000000000E+00 0. -1.
         25    2    1    2    0    0  0.78638051254E+02  0.46158221780E+02 -0.32216057069E+03  0.35742174419E+03  0.12509334663E+03 0.  0.
          5    1    3    3  502    0  0.32209043358E+02  0.74086453496E+02 -0.27089057976E+03  0.28271081279E+03  0.41800000000E+01 0. -1.
         -5    1    3    3    0  502  0.46429007897E+02 -0.27928231717E+02 -0.51269990927E+02  0.74710931401E+02  0.41800000000E+01 0. -1.
        -11    1    1    2    0    0 -0.34800431628E+02  0.24317901175E+02 -0.78388810873E+02  0.89147271575E+02  0.00000000000E+00 0. -1.
         11    1    1    2    0    0 -0.43837619626E+02 -0.70476122955E+02 -0.74088963589E+02  0.11125554066E+03  0.00000000000E+00 0.  1.
</event>
<event>
 7    1  0.2648915E-009  0.1286180E+03  0.7561462E-02  0.1229521E+00
          2   -1    0    0  501    0  0.00000000000E+00  0.00000000000E+00  0.68348917784E+02  0.68348917784E+02  0.00000000000E+00 0. -1.
         -2   -1    0    0    0  501 -0.00000000000E+00 -0.00000000000E+00 -0.31065791081E+03  0.31065791081E+03  0.00000000000E+00 0.  1.
         25    2    1    2    0    0  0.97418848561E+02 -0.12257585700E+01 -0.13720498046E+03  0.20967739153E+03  0.12508983698E+03 0.  0.
          5    1    3    3  502    0  0.28630339616E+02 -0.44382316445E+02 -0.33834217736E+01  0.53088664538E+02  0.41800000000E+01 0.  1.
         -5    1    3    3    0  502  0.68788508946E+02  0.43156557875E+02 -0.13382155869E+03  0.15658872699E+03  0.41800000000E+01 0.  1.
        -11    1    1    2    0    0  0.98092766057E+01  0.11625311279E+02  0.42797889425E+01  0.15801467123E+02  0.00000000000E+00 0. -1.
         11    1    1    2    0    0 -0.10722812517E+03 -0.10399552709E+02 -0.10938380151E+03  0.15352796995E+03  0.00000000000E+00 0.  1.
</event>
<event>
 7    1  0.2648915E-009  0.2092926E+03  0.7561462E-02  0.1142127E+00
         -1   -1    0    0    0  501 -0.00000000000E+00  0.00000000000E+00  0.85539020973E+02  0.85539020973E+02  0.00000000000E+00 0.  1.
          1   -1    0    0  501    0  0.00000000000E+00 -0.00000000000E+00 -0.58205765739E+03  0.58205765739E+03  0.00000000000E+00 0. -1.
         25    2    1    2    0    0 -0.10767937119E+03  0.14826730513E+03 -0.21691481267E+03  0.31028667328E+03  0.12509093856E+03 0.  0.
          5    1    3    3  502    0 -0.23490197838E+02  0.12622831681E+03 -0.92086092794E+02  0.15805916059E+03  0.41800000000E+01 0.  1.
         -5    1    3    3    0  502 -0.84189173349E+02  0.22038988320E+02 -0.12482871988E+03  0.15222751270E+03  0.41800000000E+01 0.  1.
        -11    1    1    2    0    0  0.81960838010E+02 -0.39045089594E+02 -0.54761235223E+02  0.10602306764E+03  0.00000000000E+00 0. -1.
         11    1    1    2    0    0  0.25718533177E+02 -0.10922221554E+03 -0.22484258852E+03  0.25128693744E+03  0.00000000000E+00 0.  1.
</event>
<event>
 7    1  0.2648915E-009  0.1509055E+03  0.7561462E-02  0.1199365E+00
          1   -1    0    0  501    0  0.00000000000E+00  0.00000000000E+00  0.12166966668E+03  0.12166966668E+03  0.00000000000E+00 0. -1.
         -1   -1    0    0    0  501 -0.00000000000E+00 -0.00000000000E+00 -0.46595179307E+03  0.46595179307E+03  0.00000000000E+00 0.  1.
         25    2    1    2    0    0 -0.11681138434E+02  0.12044994233E+03  0.36644949551E+02  0.17786198756E+03  0.12508955467E+03 0.  0.
          5    1    3    3  502    0  0.11494364979E+02  0.14163346350E+03  0.26562762818E+02  0.14462092234E+03  0.41800000000E+01 0. -1.
         -5    1    3    3    0  502 -0.23175503412E+02 -0.21183521167E+02  0.10082186733E+02  0.33241065217E+02  0.41800000000E+01 0. -1.
        -11    1    1    2    0    0  0.26086758706E+02 -0.53861953549E+02 -0.29016673761E+03  0.29627413764E+03  0.00000000000E+00 0. -1.
         11    1    1    2    0    0 -0.14405620272E+02 -0.66587988785E+02 -0.90760338326E+02  0.11348533455E+03  0.00000000000E+00 0.  1.
</event>
<event>
 7    1  0.2648915E-009  0.1028149E+03  0.7561462E-02  0.1274486E+00
         -2   -1    0    0    0  501 -0.00000000000E+00  0.00000000000E+00  0.45491119624E+02  0.45491119624E+02  0.00000000000E+00 0. -1.
          2   -1    0    0  501    0  0.00000000000E+00 -0.00000000000E+00 -0.39185704899E+03  0.39185704899E+03  0.00000000000E+00 0.  1.
         25    2    1    2    0    0  0.13556955441E+01  0.76320768489E+02 -0.21754528499E+03  0.26229840082E+03  0.12509117649E+03 0.  0.
          5    1    3    3  502    0 -0.26517611963E+02  0.11958966960E+02 -0.18048310240E+03  0.18286011945E+03  0.41800000000E+01 0.  1.
         -5    1    3    3    0  502  0.27873307507E+02  0.64361801529E+02 -0.37062182597E+02  0.79438281365E+02  0.41800000000E+01 0.  1.
        -11    1    1    2    0    0 -0.29421020361E+02 -0.71744715410E+02 -0.12393917612E+03  0.14619787962E+03  0.00000000000E+00 0.  1.
         11    1    1    2    0    0  0.28065324817E+02 -0.45760530785E+01 -0.48814682485E+01  0.28851888172E+02  0.00000000000E+00 0. -1.
</event>
<event>
 7    1  0.2648915E-009  0.2145917E+03  0.7561462E-02  0.1137981E+00
         -1   -1    0    0    0  501 -0.00000000000E+00  0.00000000000E+00  0.16762719031E+03  0.16762719031E+03  0.00000000000E+00 0.  1.
          1   -1    0    0  501    0  0.00000000000E+00 -0.00000000000E+00 -0.32043378300E+03  0.32043378300E+03  0.00000000000E+00 0. -1.
         25    2    1    2    0    0 -0.15547473434E+03  0.13155463650E+03 -0.63161320459E+02  0.24721366780E+03  0.12508489014E+03 0.  0.
          5    1    3    3  502    0 -0.14314654041E+03  0.14474248128E+03 -0.25453990851E+02  0.20519916172E+03  0.41800000000E+01 0. -1.
         -5    1    3    3    0  502 -0.12328193927E+02 -0.13187844777E+02 -0.37707329608E+02  0.42014506085E+02  0.41800000000E+01 0. -1.
        -11    1    1    2    0    0  0.12329153319E+03 -0.82423397249E+02 -0.19849966281E+02  0.14962767034E+03  0.00000000000E+00 0.  1.
         11    1    1    2    0    0  0.32183201150E+02 -0.49131239249E+02 -0.69795305950E+02  0.91219635161E+02  0.00000000000E+00 0. -1.
</event>
<event>
 7    1  0.2648915E-009  0.9001297E+02  0.7561462E-02  0.1302820E+00
          2   -1    0    0  501    0  0.00000000000E+00  0.00000000000E+00  0.13659250352E+03  0.13659250352E+03  0.00000000000E+00 0. -1.
         -2   -1    0    0    0  501 -0.00000000000E+00 -0.00000000000E+00 -0.11064818238E+03  0.11064818238E+03  0.00000000000E+00 0.  1.
         25    2    1    2    0    0 -0.45458767945E+02 -0.21072422303E+01 -0.18304728737E+02  0.13436072616E+03  0.12508717596E+03 0.  0.
          5    1    3    3  502    0 -0.26037191364E+02 -0.46735197289E+02 -0.52231826867E+02  0.74884912617E+02  0.41800000000E+01 0.  1.
         -5    1    3    3    0  502 -0.19421576581E+02  0.44627955059E+02  0.33927098130E+02  0.59475813548E+02  0.41800000000E+01 0.  1.
        -11    1    1    2    0    0  0.61390766873E+02 -0.36263557396E+00 -0.44780352798E+01  0.61554939377E+02  0.00000000000E+00 0.  1.
         11    1    1    2    0    0 -0.15931998928E+02  0.24698778043E+01  0.48727085157E+02  0.51325020351E+02  0.00000000000E+00 0. -1.
</event>
<event>
 7    1  0.2648915E-009  0.2016018E+03  0.7561462E-02  0.1148395E+00
         -1   -1    0    0    0  501 -0.00000000000E+00  0.00000000000E+00  0.63204370479E+03  0.63204370479E+03  0.00000000000E+00 0.  1.
          1   -1    0    0  501    0  0.00000000000E+00 -0.00000000000E+00 -0.72100857727E+02  0.72100857727E+02  0.00000000000E+00 0. -1.
         25    2    1    2    0    0  0.17847015702E+03  0.19688048948E+02  0.22744411604E+03  0.31562283959E+03  0.12509090586E+03 0.  0.
          5    1    3    3  502    0  0.18799445815E+03  0.39075129969E+01  0.16439101408E+03  0.24979804415E+03  0.41800000000E+01 0.  1.
         -5    1    3    3    0  502 -0.95243011276E+01  0.15780535951E+02  0.63053101966E+02  0.65824795438E+02  0.41800000000E+01 0.  1.
        -11    1    1    2    0    0 -0.16336451890E+03  0.91996681213E+01  0.30393272533E+03  0.34517778238E+03  0.00000000000E+00 0.  1.
         11    1    1    2    0    0 -0.15105638120E+02 -0.28887717069E+02  0.28566005695E+02  0.43343940544E+02  0.00000000000E+00 0. -1.
</event>
<event>
 7    1  0.2648915E-009  0.1360485E+03  0.7561462E-02  0.1218747E+00
         -2   -1    0    0    0  501 -0.00000000000E+00  0.00000000000E+00  0.54100064818E+03  0.54100064818E+03  0.00000000000E+00 0.  1.
          2   -1    0    0  501    0  0.00000000000E+00 -0.00000000000E+00 -0.41223384123E+02  0.41223384123E+02  0.00000000000E+00 0. -1.
         25    2    1    2    0    0 -0.94267577693E+02 -0.39474649951E+02  0.28915254264E+03  0.33121097910E+03  0.12508755160E+03 0.  0.
          5    1    3    3  502    0 -0.11085157403E+03 -0.26152435428E+02  0.14016102708E+03  0.18065051136E+03  0.41800000000E+01 0. -1.
         -5    1    3    3    0  502  0.16583996336E+02 -0.13322214523E+02  0.14899151557E+03  0.15056046774E+03  0.41800000000E+01 0. -1.
        -11    1    1    2    0    0  0.35009104217E+01  0.45354548455E+02  0.74787843035E+02  0.87535780714E+02  0.00000000000E+00 0. -1.
         11    1    1    2    0    0  0.90766667272E+02 -0.58798985044E+01  0.13583687838E+03  0.16347727249E+03  0.00000000000E+00 0.  1.
</event>
<event>
 7    1  0.2648915E-009  0.1061583E+03  0.7561462E-02  0.1267854E+00
         -2   -1    0    0    0  501 -0.00000000000E+00  0.00000000000E+00  0.15753538907E+02  0.15753538907E+02  0.00000000000E+00 0.  1.
          2   -1    0    0  501    0  0.00000000000E+00 -0.00000000000E+00 -0.10218674950E+04  0.10218674950E+04  0.00000000000E+00 0. -1.
         25    2    1    2    0    0 -0.36767807954E+01 -0.27733121804E+02 -0.76908487841E+03  0.77969329531E+03  0.12508972697E+03 0.  0.
          5    1    3    3  502    0  0.54065139374E+02 -0.31320388644E+01 -0.51836081439E+03  0.52119886345E+03  0.41800000000E+01 0. -1.
         -5    1    3    3    0  502 -0.57741920170E+02 -0.24601082940E+02 -0.25072406402E+03  0.25849443186E+03  0.41800000000E+01 0. -1.
        -11    1    1    2    0    0 -0.16098637362E+02  0.57304097810E+02 -0.18905139894E+03  0.19820029564E+03  0.00000000000E+00 0. -1.
         11    1    1    2    0    0  0.19775418157E+02 -0.29570976006E+02 -0.47977678783E+02  0.59727442995E+02  0.00000000000E+00 0.  1.
</event>
<event>
 7    1  0.2648915E-009  0.1187618E+03  0.7561462E-02  0.1245154E+00
          3   -1    0    0  501    0  0.00000000000E+00  0.00000000000E+00  0.26464774674E+03  0.26464774674E+03  0.00000000000E+00 0. -1.
         -3   -1    0    0    0  501 -0.00000000000E+00 -0.00000000000E+00 -0.19580032982E+03  0.19580032982E+03  0.00000000000E+00 0.  1.
         25    2    1    2    0    0  0.58358835140E+02  0.66902781036E+02  0.22440331963E+03  0.27182085710E+03  0.12509193717E+03 0.  0.
          5    1    3    3  502    0 -0.34235474747E+02  0.69558147371E+00  0.26585325538E+02  0.43552307616E+02  0.41800000000E+01 0. -1.
         -5    1    3    3    0  502  0.92594309886E+02  0.66207199562E+02  0.19781799409E+03  0.22826854948E+03  0.41800000000E+01 0. -1.
        -11    1    1    2    0    0 -0.29738099364E+02 -0.39981487260E+02 -0.13578900348E+03  0.14464275766E+03  0.00000000000E+00 0.  1.
         11    1    1    2    0    0 -0.28620735775E+02 -0.26921293776E+02 -0.19766899223E+02  0.43984461799E+02  0.00000000000E+00 0. -1.
</event>
<event>
 7    1  0.2648915E-009  0.7527047E+02  0.7561462E-02  0.1343036E+00
          2   -1    0    0  501    0  0.00000000000E+00  0.00000000000E+00  0.44070727307E+03  0.44070727307E+03  0.00000000000E+00 0. -1.
         -2   -1    0    0    0  501 -0.00000000000E+00 -0.00000000000E+00 -0.30707695744E+02  0.30707695744E+02  0.00000000000E+00 0.  1.
         25    2    1    2    0    0 -0.17584555267E+02  0.31942300670E+02  0.18596804401E+03  0.22707207406E+03  0.12509231100E+03 0.  0.
          5    1    3    3  502    0  0.16011771728E+02 -0.12077174867E+02  0.16720453918E+03  0.16845493555E+03  0.41800000000E+01 0.  1.
         -5    1    3    3    0  502 -0.33596326995E+02  0.44019475537E+02  0.18763504823E+02  0.58617138512E+02  0.41800000000E+01 0.  1.
        -11    1    1    2    0    0  0.50087288978E+00 -0.49803152311E+02  0.21020044595E+03  0.21602044425E+03  0.00000000000E+00 0. -1.
         11    1    1    2    0    0  0.17083682377E+02  0.17860851641E+02  0.13831087363E+02  0.28322450504E+02  0.00000000000E+00 0.  1.
</event>
<event>
 7    1  0.2648915E-009  0.1004344E+03  0.7561462E-02  0.1279385E+00
          2   -1    0    0  501    0  0.00000000000E+00  0.00000000000E+00  0.34881937995E+03  0.34881937995E+03  0.00000000000E+00 0. -1.
         -2   -1    0    0    0  501 -0.00000000000E+00 -0.00000000000E+00 -0.40835921056E+02  0.40835921056E+02  0.00000000000E+00 0.  1.
         25    2    1    2    0    0  0.16353366667E+02 -0.24438181122E+02  0.10699078687E+03  0.16720802167E+03  0.12508731646E+03 0.  0.
          5    1    3    3  502    0  0.32910752061E+02 -0.70507626741E+02  0.77518692425E+02  0.10991388950E+03  0.41800000000E+01 0. -1.
         -5    1    3    3    0  502 -0.16557385394E+02  0.46069445619E+02  0.29472094441E+02  0.57294132173E+02  0.41800000000E+01 0. -1.
        -11    1    1    2    0    0 -0.48378025705E+01  0.47653917464E+02  0.18691681408E+03  0.19295646030E+03  0.00000000000E+00 0. -1.
         11    1    1    2    0    0 -0.11515564097E+02 -0.23215736342E+02  0.14075857943E+02  0.29490819032E+02  0.00000000000E+00 0.  1.
</event>
<event>
 7    1  0.2648915E-009  0.1183631E+03  0.7561462E-02  0.1245822E+00
         -2   -1    0    0    0  501 -0.00000000000E+00  0.00000000000E+00  0.13042674903E+02  0.13042674903E+02  0.00000000000E+00 0.  1.
          2   -1    0    0  501    0  0.00000000000E+00 -0.00000000000E+00 -0.13018514164E+04  0.13018514164E+04  0.00000000000E+00 0. -1.
         25    2    1    2    0    0  0.68083839768E+02 -0.15402050915E+02 -0.81599557646E+03  0.82847323903E+03  0.12508594876E+03 0.  0.
          5    1    3    3  502    0  0.56918413709E+02  0.37504672263E+02 -0.65580437983E+03  0.65935056173E+03  0.41800000000E+01 0.  1.
         -5    1    3    3    0  502  0.11165426059E+02 -0.52906723177E+02 -0.16019119663E+03  0.16912267729E+03  0.41800000000E+01 0.  1.
        -11    1    1    2    0    0 -0.57663641360E+02  0.51078917434E+02 -0.32551297948E+03  0.33450388809E+03  0.00000000000E+00 0. -1.
         11    1    1    2    0    0 -0.10420198408E+02 -0.35676866519E+02 -0.14730018553E+03  0.15191696415E+03  0.00000000000E+00 0.  1.
</event>
<event>
 7    1  0.2648915E-009  0.8603141E+02  0.7561462E-02  0.1312757E+00
         -2   -1    0    0    0  501 -0.00000000000E+00  0.00000000000E+00  0.68678446939E+03  0.68678446939E+03  0.00000000000E+00 0.  1.
          2   -1    0    0  501    0  0.00000000000E+00 -0.00000000000E+00 -0.22495149491E+02  0.22495149491E+02  0.00000000000E+00 0. -1.
         25    2    1    2    0    0 -0.40775642307E+02 -0.34942594405E+02  0.44525733729E+03  0.46560109489E+03  0.12508655100E+03 0.  0.
          5    1    3    3  502    0  0.16010536269E+02 -0.52426032743E+02  0.90584847729E+02  0.10596184794E+03  0.41800000000E+01 0. -1.
         -5    1    3    3    0  502 -0.56786178576E+02  0.17483438338E+02  0.35467248956E+03  0.35963924695E+03  0.41800000000E+01 0. -1.
        -11    1    1    2    0    0  0.33300017525E+02  0.15572610967E+02  0.21984771345E+03  0.22290001007E+03  0.00000000000E+00 0.  1.
         11    1    1    2    0    0  0.74756247823E+01  0.19369983438E+02 -0.81573083861E+00  0.20778513928E+02  0.00000000000E+00 0. -1.
</event>
<event>
 7    1  0.2648915E-009  0.1195142E+03  0.7561462E-02  0.1243901E+00
          1   -1    0    0  501    0  0.00000000000E+00  0.00000000000E+00  0.11291538200E+03  0.11291538200E+03  0.00000000000E+00 0. -1.
         -1   -1    0    0    0  501 -0.00000000000E+00 -0.00000000000E+00 -0.25673843144E+03  0.25673843144E+03  0.00000000000E+00 0.  1.
         25    2    1    2    0    0  0.58013565436E+02  0.46395008612E+01  0.50473176812E+02  0.14690817705E+03  0.12508945665E+03 0.  0.
          5    1    3    3  502    0  0.12938516094E+02  0.62796745909E+02  0.24584220637E+02  0.68794569552E+02  0.41800000000E+01 0.  1.
         -5    1    3    3    0  502  0.45075049342E+02 -0.58157245048E+02  0.25888956175E+02  0.78113607499E+02  0.41800000000E+01 0.  1.
        -11    1    1    2    0    0 -0.53942654988E+02  0.32988484988E+02 -0.15851947133E+03  0.17066479707E+03  0.00000000000E+00 0.  1.
         11    1    1    2    0    0 -0.40709104479E+01 -0.37627985849E+02 -0.35776754929E+02  0.52080839319E+02  0.00000000000E+00 0. -1.
</event>
<event>
 7    1  0.2648915E-009  0.1841969E+03  0.7561462E-02  0.1163802E+00
          1   -1    0    0  501    0  0.00000000000E+00  0.00000000000E+00  0.48448800923E+03  0.48448800923E+03  0.00000000000E+00 0. -1.
         -1   -1    0    0    0  501 -0.00000000000E+00 -0.00000000000E+00 -0.78255243592E+02  0.78255243592E+02  0.00000000000E+00 0.  1.
         25    2    1    2    0    0 -0.12504400641E+03 -0.10271084159E+03  0.23278356786E+03  0.30987269428E+03  0.12508947469E+03 0.  0.
          5    1    3    3  502    0 -0.35034342209E+02 -0.98311429514E+02  0.76678481524E+02  0.12957470523E+03  0.41800000000E+01 0.  1.
         -5    1    3    3    0  502 -0.90009664202E+02 -0.43994120728E+01  0.15610508634E+03  0.18029798905E+03  0.41800000000E+01 0.  1.
        -11    1    1    2    0    0  0.46727135757E+02  0.28410321668E+01  0.88592455559E+02  0.10020039851E+03  0.00000000000E+00 0. -1.
         11    1    1    2    0    0  0.78316870655E+02  0.99869809420E+02  0.84856742222E+02  0.15267016003E+03  0.00000000000E+00 0.  1.
</event>
<event>
 7    1  0.2648915E-009  0.5045889E+02  0.7561462E-02  0.1442882E+00
          1   -1    0    0  501    0  0.00000000000E+00  0.00000000000E+00  0.26128076150E+03  0.26128076150E+03  0.00000000000E+00 0. -1.
         -1   -1    0    0    0  501 -0.00000000000E+00 -0.00000000000E+00 -0.51167268269E+02  0.51167268269E+02  0.00000000000E+00 0.  1.
         25    2    1    2    0    0 -0.28162504624E+02 -0.24245966466E+02  0.98997355915E+02  0.16379436151E+03  0.12508846002E+03 0.  0.
          5    1    3    3  502    0  0.12914519520E+02  0.93796152846E+00 -0.26231784847E+02  0.29550694112E+02  0.41800000000E+01 0. -1.
         -5    1    3    3    0  502 -0.41077024143E+02 -0.25183927994E+02  0.12522914076E+03  0.13424366740E+03  0.41800000000E+01 0. -1.
        -11    1    1    2    0    0  0.15857109774E+02  0.60298472379E+01 -0.13768506817E+02  0.21848999246E+02  0.00000000000E+00 0.  1.
         11    1    1    2    0    0  0.12305394850E+02  0.18216119228E+02  0.12488464414E+03  0.12680466901E+03  0.00000000000E+00 0. -1.
</event>
<event>
 7    1  0.2648915E-009  0.1155341E+03  0.7561462E-02  0.1250652E+00
          1   -1    0    0  501    0  0.00000000000E+00  0.00000000000E+00  0.66770397265E+02  0.66770397265E+02  0.00000000000E+00 0. -1.
         -1   -1    0    0    0  501 -0.00000000000E+00 -0.00000000000E+00 -0.41620812945E+03  0.41620812945E+03  0.00000000000E+00 0.  1.
         25    2    1    2    0    0 -0.18805223601E+01  0.10235586055E+03 -0.29162018385E+03  0.33342096899E+03  0.12508777871E+03 0.  0.
          5    1    3    3  502    0  0.14087304988E+02  0.37452891355E+02 -0.67620926951E+01  0.40796685285E+02  0.41800000000E+01 0. -1.
         -5    1    3    3    0  502 -0.15967827348E+02  0.64902969199E+02 -0.28485809115E+03  0.29262428371E+03  0.41800000000E+01 0. -1.
        -11    1    1    2    0    0  0.31521148857E+02 -0.82162187855E+02 -0.82666713174E+01  0.88388606693E+02  0.00000000000E+00 0. -1.
         11    1    1    2    0    0 -0.29640626497E+02 -0.20193672699E+02 -0.49550877017E+02  0.61168951024E+02  0.00000000000E+00 0.  1.
</event>
<event>
 7    1  0.2648915E-009  0.1463224E+03  0.7561462E-02  0.1205066E+00
         -3   -1    0    0    0  501 -0.00000000000E+00  0.00000000000E+00  0.11122852735E+03  0.11122852735E+03  0.00000000000E+00 0.  1.
          3   -1    0    0  501    0  0.00000000000E+00 -0.00000000000E+00 -0.28181061369E+03  0.28181061369E+03  0.00000000000E+00 0. -1.
         25    2    1    2    0    0 -0.11927754461E+03 -0.18634433463E+01 -0.16835035377E+02  0.17366900676E+03  0.12508757102E+03 0.  0.
          5    1    3    3  502    0 -0.46026772089E+02 -0.51016168830E+02 -0.43486079237E+02  0.81422507444E+02  0.41800000000E+01 0.  1.
         -5    1    3    3    0  502 -0.73250772518E+02  0.49152725484E+02  0.26651043861E+02  0.92246499314E+02  0.41800000000E+01 0.  1.
        -11    1    1    2    0    0  0.89716665226E+02 -0.27491978837E+02 -0.15079363729E+03  0.17760520817E+03  0.00000000000E+00 0. -1.
         11    1    1    2    0    0  0.29560879380E+02  0.29355422184E+02 -0.29534136762E+01  0.41764926118E+02  0.00000000000E+00 0.  1.
</event>
<event>
 7    1  0.2648915E-009  0.9771449E+02  0.7561462E-02  0.1285177E+00
         -1   -1    0    0    0  501 -0.00000000000E+00  0.00000000000E+00  0.16739841997E+03  0.16739841997E+03  0.00000000000E+00 0.  1.
          1   -1    0    0  501    0  0.00000000000E+00 -0.00000000000E+00 -0.10193646750E+03  0.10193646750E+03  0.00000000000E+00 0. -1.
         25    2    1    2    0    0 -0.56520316117E+02 -0.42431919321E+02  0.14611040917E+02  0.14442109263E+03  0.12509578557E+03 0.  0.
          5    1    3    3  502    0 -0.12742587702E+02  0.20026286740E+02  0.53519126876E+02  0.58695783865E+02  0.41800000000E+01 0. -1.
         -5    1    3    3    0  502 -0.43777728414E+02 -0.62458206062E+02 -0.38908085959E+02  0.85725308763E+02  0.41800000000E+01 0. -1.
        -11    1    1    2    0    0  0.61655248843E+02  0.10432972072E+02  0.64421016183E+02  0.89779084102E+02  0.00000000000E+00 0.  1.
         11    1    1    2    0    0 -0.51349327266E+01  0.31998947249E+02 -0.13570104632E+02  0.35134710742E+02  0.00000000000E+00 0. -1.
</event>
<event>
 7    1  0.2648915E-009  0.9685829E+02  0.7561462E-02  0.1287045E+00
          2   -1    0    0  501    0  0.00000000000E+00  0.00000000000E+00  0.23580060665E+03  0.23580060665E+03  0.00000000000E+00 0. -1.
         -2   -1    0    0    0  501 -0.00000000000E+00 -0.00000000000E+00 -0.72439800116E+02  0.72439800116E+02  0.00000000000E+00 0.  1.
         25    2    1    2    0    0 -0.13395266917E+01  0.69520265645E+01  0.55576451866E+01  0.12541201950E+03  0.12508861742E+03 0.  0.
          5    1    3    3  502    0 -0.50190195005E+02  0.13076272691E+02  0.39618145704E+02  0.65399651766E+02  0.41800000000E+01 0.  1.
         -5    1    3    3    0  502  0.48850668313E+02 -0.61242461261E+01 -0.34060500517E+02  0.60012367731E+02  0.41800000000E+01 0.  1.
        -11    1    1    2    0    0 -0.14085940539E+02  0.40234372174E+02  0.69764930600E+02  0.81757959654E+02  0.00000000000E+00 0. -1.
         11    1    1    2    0    0  0.15425467231E+02 -0.47186398738E+02  0.88038230748E+02  0.10107042762E+03  0.00000000000E+00 0.  1.
</event>
<event>
 7    1  0.2648915E-009  0.1933004E+03  0.7561462E-02  0.1155518E+00
         -1   -1    0    0    0  501 -0.00000000000E+00  0.00000000000E+00  0.81197074704E+02  0.81197074704E+02  0.00000000000E+00 0. -1.
          1   -1    0    0  501    0  0.00000000000E+00 -0.00000000000E+00 -0.60618166200E+03  0.60618166200E+03  0.00000000000E+00 0.  1.
         25    2    1    2    0    0  0.16702062041E+03 -0.41400191014E+02 -0.41015800894E+03  0.46204668753E+03  0.12509070989E+03 0.  0.
          5    1    3    3  502    0 -0.11516927823E+02  0.57047955243E+01 -0.15100104873E+01  0.13599148875E+02  0.41800000000E+01 0.  1.
         -5    1    3    3    0  502  0.17853754823E+03 -0.47104986539E+02 -0.40864799845E+03  0.44844753865E+03  0.41800000000E+01 0.  1.
        -11    1    1    2    0    0 -0.27942013233E+01 -0.14611215032E+02 -0.27067606480E+02  0.30886088880E+02  0.00000000000E+00 0.  1.
         11    1    1    2    0    0 -0.16422641908E+03  0.56011406046E+02 -0.87758971882E+02  0.19444596030E+03  0.00000000000E+00 0. -1.
</event>
<event>
 7    1  0.2648915E-009  0.1139073E+03  0.7561462E-02  0.1253501E+00
         -4   -1    0    0    0  501 -0.00000000000E+00  0.00000000000E+00  0.45632544738E+02  0.45632544738E+02  0.00000000000E+00 0.  1.
          4   -1    0    0  501    0  0.00000000000E+00 -0.00000000000E+00 -0.43761968336E+03  0.43761968336E+03  0.00000000000E+00 0. -1.
         25    2    1    2    0    0  0.61365684087E+02  0.55235048601E+02 -0.27101572290E+03  0.30969994360E+03  0.12509146745E+03 0.  0.
          5    1    3    3  502    0  0.51657788853E+02  0.92048145701E+02 -0.23254981830E+03  0.25541785111E+03  0.41800000000E+01 0.  1.
         -5    1    3    3    0  502  0.97078952343E+01 -0.36813097101E+02 -0.38465904604E+02  0.54282092489E+02  0.41800000000E+01 0.  1.
        -11    1    1    2    0    0 -0.27767112494E+02 -0.15347870462E+02  0.94386654132E+01  0.33100726106E+02  0.00000000000E+00 0.  1.
         11    1    1    2    0    0 -0.33598571594E+02 -0.39887178138E+02 -0.13041008113E+03  0.14045155839E+03  0.00000000000E+00 0. -1.
</event>
<event>
 7    1  0.2648915E-009  0.1882476E+03  0.7561462E-02  0.1160051E+00
         -1   -1    0    0    0  501 -0.00000000000E+00  0.00000000000E+00  0.31964251734E+03  0.31964251734E+03  0.00000000000E+00 0.  1.
          1   -1    0    0  501    0  0.00000000000E+00 -0.00000000000E+00 -0.15724981129E+03  0.15724981129E+03  0.00000000000E+00 0. -1.
         25    2    1    2    0    0 -0.18288223283E+03  0.35648933373E+02  0.14826906172E+03  0.26897818638E+03  0.12509513400E+03 0.  0.
          5    1    3    3  502    0 -0.14201976830E+03  0.13295963492E+02  0.35726084133E+02  0.14710616139E+03  0.41800000000E+01 0.  1.
         -5    1    3    3    0  502 -0.40862464537E+02  0.22352969881E+02  0.11254297759E+03  0.12187202499E+03  0.41800000000E+01 0.  1.
        -11    1    1    2    0    0  0.99502963060E+02 -0.11153044295E+02  0.52337938041E+02  0.11298004166E+03  0.00000000000E+00 0.  1.
         11    1    1    2    0    0  0.83379269772E+02 -0.24495889078E+02 -0.38214293717E+02  0.94934100585E+02  0.00000000000E+00 0. -1.
</event>
<event>
 7    1  0.2648915E-009  0.1051471E+03  0.7561462E-02  0.1269830E+00
          2   -1    0    0  501    0  0.00000000000E+00  0.00000000000E+00  0.11861372687E+04  0.11861372687E+04  0.00000000000E+00 0.  1.
         -2   -1    0    0    0  501 -0.00000000000E+00 -0.00000000000E+00 -0.18640035652E+02  0.18640035652E+02  0.00000000000E+00 0. -1.
         25    2    1    2    0    0  0.85948203047E+02  0.31414753840E+02  0.82332590972E+03  0.83778934919E+03  0.12510579380E+03 0.  0.
          5    1    3    3  502    0  0.26707506778E+01  0.19920035448E+02  0.15841895134E+02  0.25930267312E+02  0.41800000000E+01 0.  1.
         -5    1    3    3    0  502  0.83277452369E+02  0.11494718392E+02  0.80748401458E+03  0.81185908188E+03  0.41800000000E+01 0.  1.
        -11    1    1    2    0    0 -0.29640103492E+02  0.14446928488E+02  0.30153367583E+02  0.44681932079E+02  0.00000000000E+00 0. -1.
         11    1    1    2    0    0 -0.56308099554E+02 -0.45861682328E+02  0.31401795571E+03  0.32230602305E+03  0.00000000000E+00 0.  1.
</event>
<event>
 7    1  0.2648915E-009  0.1027301E+03  0.7561462E-02  0.1274657E+00
          2   -1    0    0  501    0  0.00000000000E+00  0.00000000000E+00  0.78482750213E+02  0.78482750213E+02  0.00000000000E+00 0. -1.
         -2   -1    0    0    0  501 -0.00000000000E+00 -0.00000000000E+00 -0.18783515320E+03  0.18783515320E+03  0.00000000000E+00 0.  1.
         25    2    1    2    0    0 -0.20017035819E+02 -0.36863367183E+02 -0.26061562248E+02  0.13448844518E+03  0.12509335433E+03 0.  0.
          5    1    3    3  502    0 -0.29838719908E+02  0.30531786507E+02  0.24649043174E+02  0.49473092914E+02  0.41800000000E+01 0.  1.
         -5    1    3    3    0  502  0.98216840892E+01 -0.67395153690E+02 -0.50710605422E+02  0.85015352269E+02  0.41800000000E+01 0.  1.
        -11    1    1    2    0    0 -0.22203336047E+02  0.46048261302E+02 -0.19355760806E+02  0.54663296433E+02  0.00000000000E+00 0.  1.
         11    1    1    2    0    0  0.42220371865E+02 -0.91848941190E+01 -0.63935079933E+02  0.77166161797E+02  0.00000000000E+00 0. -1.
</event>
<event>
 7    1  0.2648915E-009  0.1719824E+03  0.7561462E-02  0.1175796E+00
          1   -1    0    0  501    0  0.00000000000E+00  0.00000000000E+00  0.48930234364E+03  0.48930234364E+03  0.00000000000E+00 0. -1.
         -1   -1    0    0    0  501 -0.00000000000E+00 -0.00000000000E+00 -0.70506011791E+02  0.70506011791E+02  0.00000000000E+00 0.  1.
         25    2    1    2    0    0 -0.23771069717E+02  0.14554003057E+03  0.17453484407E+03  0.26049347727E+03  0.12508987030E+03 0.  0.
          5    1    3    3  502    0  0.75746885595E+00  0.15425743673E+03  0.10641685504E+03  0.18745119360E+03  0.41800000000E+01 0. -1.
         -5    1    3    3    0  502 -0.24528538573E+02 -0.87174061548E+01  0.68117989023E+02  0.73042283666E+02  0.41800000000E+01 0. -1.
        -11    1    1    2    0    0  0.46312347902E+02 -0.66113249643E+02  0.17032593719E+03  0.18848533159E+03  0.00000000000E+00 0. -1.
         11    1    1    2    0    0 -0.22541278185E+02 -0.79426780931E+02  0.73935550590E+02  0.11082954657E+03  0.00000000000E+00 0.  1.
</event>
<event>
 7    1  0.2648915E-009  0.1229148E+03  0.7561462E-02  0.1238365E+00
         -2   -1    0    0    0  501 -0.00000000000E+00  0.00000000000E+00  0.26954584822E+03  0.26954584822E+03  0.00000000000E+00 0.  1.
          2   -1    0    0  501    0  0.00000000000E+00 -0.00000000000E+00 -0.67383018941E+02  0.67383018941E+02  0.00000000000E+00 0. -1.
         25    2    1    2    0    0 -0.59048544538E+02 -0.40668372606E+02  0.67648330282E+02  0.15926197568E+03  0.12508970048E+03 0.  0.
          5    1    3    3  502    0  0.14299185348E+02  0.29641969959E+02  0.43565515025E+02  0.54758922415E+02  0.41800000000E+01 0.  1.
         -5    1    3    3    0  502 -0.73347729885E+02 -0.70310342566E+02  0.24082815257E+02  0.10450305327E+03  0.41800000000E+01 0.  1.
        -11    1    1    2    0    0  0.21690435392E+02  0.63554078821E+02  0.10570530513E+03  0.12523261339E+03  0.00000000000E+00 0.  1.
         11    1    1    2    0    0  0.37358109145E+02 -0.22885706215E+02  0.28809193859E+02  0.52434278089E+02  0.00000000000E+00 0. -1.
</event>
<event>
 7    1  0.2648915E-009  0.1716046E+03  0.7561462E-02  0.1176185E+00
         -2   -1    0    0    0  501 -0.00000000000E+00  0.00000000000E+00  0.20313501721E+02  0.20313501721E+02  0.00000000000E+00 0.  1.
          2   -1    0    0  501    0  0.00000000000E+00 -0.00000000000E+00 -0.15221417415E+04  0.15221417415E+04  0.00000000000E+00 0. -1.
         25    2    1    2    0    0 -0.59349937518E+02  0.11903741769E+03 -0.71597321555E+03  0.73888902589E+03  0.12508807016E+03 0.  0.
          5    1    3    3  502    0 -0.69461351954E+02  0.14083204452E+03 -0.64460013162E+03  0.66346465336E+03  0.41800000000E+01 0. -1.
         -5    1    3    3    0  502  0.10111414436E+02 -0.21794626833E+02 -0.71373083936E+02  0.75424372528E+02  0.41800000000E+01 0. -1.
        -11    1    1    2    0    0 -0.25030600226E+02 -0.24653855569E+02 -0.96834292211E+02  0.10301079405E+03  0.00000000000E+00 0.  1.
         11    1    1    2    0    0  0.84380537744E+02 -0.94383562118E+02 -0.68902073199E+03  0.70055542326E+03  0.00000000000E+00 0. -1.
</event>
<event>
 7    1  0.2648915E-009  0.2058870E+03  0.7561462E-02  0.1144865E+00
          2   -1    0    0  501    0  0.00000000000E+00  0.00000000000E+00  0.62146615451E+03  0.62146615451E+03  0.00000000000E+00 0. -1.
         -2   -1    0    0    0  501 -0.00000000000E+00 -0.00000000000E+00 -0.75874956653E+02  0.75874956653E+02  0.00000000000E+00 0.  1.
         25    2    1    2    0    0  0.27949233607E+02  0.18492865609E+03  0.29128848283E+03  0.36807055942E+03  0.12508872444E+03 0.  0.
          5    1    3    3  502    0  0.71969964767E+02  0.14745721365E+03  0.23948347864E+03  0.29033276534E+03  0.41800000000E+01 0.  1.
         -5    1    3    3    0  502 -0.44020731159E+02  0.37471442434E+02  0.51805004191E+02  0.77737794084E+02  0.41800000000E+01 0.  1.
        -11    1    1    2    0    0 -0.17957185676E+02 -0.34289356594E+02  0.67152515546E+01  0.39285049275E+02  0.00000000000E+00 0. -1.
         11    1    1    2    0    0 -0.99920479315E+01 -0.15063929949E+03  0.24758746347E+03  0.28998550247E+03  0.00000000000E+00 0.  1.
</event>
<event>
 7    1  0.2648915E-009  0.1121664E+03  0.7561462E-02  0.1256610E+00
         -2   -1    0    0    0  501 -0.00000000000E+00  0.00000000000E+00  0.12841552773E+03  0.12841552773E+03  0.00000000000E+00 0.  1.
          2   -1    0    0  501    0  0.00000000000E+00 -0.00000000000E+00 -0.19210536746E+03  0.19210536746E+03  0.00000000000E+00 0. -1.
         25    2    1    2    0    0  0.34955630359E+02  0.77784023594E+02  0.41984313847E+02  0.15710703361E+03  0.12509071500E+03 0.  0.
          5    1    3    3  502    0 -0.72555813078E+01 -0.10084649798E+02  0.56910597834E+02  0.58400617869E+02  0.41800000000E+01 0. -1.
         -5    1    3    3    0  502  0.42211211667E+02  0.87868673392E+02 -0.14926283988E+02  0.98706415738E+02  0.41800000000E+01 0. -1.
        -11    1    1    2    0    0 -0.47175241356E+02 -0.14722636098E+02 -0.80425126009E+02  0.94395234542E+02  0.00000000000E+00 0. -1.
         11    1    1    2    0    0  0.12219610997E+02 -0.63061387495E+02 -0.25249027566E+02  0.69018627042E+02  0.00000000000E+00 0.  1.
</event>
<event>
 7    1  0.2648915E-009  0.1813276E+03  0.7561462E-02  0.1166524E+00
          3   -1    0    0  501    0  0.00000000000E+00  0.00000000000E+00  0.13297242029E+03  0.13297242029E+03  0.00000000000E+00 0.  1.
         -3   -1    0    0    0  501 -0.00000000000E+00 -0.00000000000E+00 -0.43529834941E+03  0.43529834941E+03  0.00000000000E+00 0. -1.
         25    2    1    2    0    0 -0.11359996205E+03  0.12748245151E+03 -0.27763796552E+01  0.21169286013E+03  0.12509768953E+03 0.  0.
          5    1    3    3  502    0 -0.38589370604E+02  0.86992922027E+02  0.53701920490E+02  0.10935390560E+03  0.41800000000E+01 0.  1.
         -5    1    3    3    0  502 -0.75010591445E+02  0.40489529482E+02 -0.56478300145E+02  0.10233895453E+03  0.41800000000E+01 0.  1.
        -11    1    1    2    0    0  0.12178078491E+03 -0.11906244737E+03 -0.23081708361E+03  0.28685005148E+03  0.00000000000E+00 0.  1.
         11    1    1    2    0    0 -0.81808228635E+01 -0.84200041378E+01 -0.68732465856E+02  0.69727858099E+02  0.00000000000E+00 0. -1.
</event>
<event>
 7    1  0.2648915E-009  0.8437086E+02  0.7561462E-02  0.1317086E+00
          2   -1    0    0  501    0  0.00000000000E+00  0.00000000000E+00  0.21068705538E+03  0.21068705538E+03  0.00000000000E+00 0. -1.
         -2   -1    0    0    0  501 -0.00000000000E+00 -0.00000000000E+00 -0.12593000700E+03  0.12593000700E+03  0.00000000000E+00 0.  1.
         25    2    1    2    0    0 -0.38398357577E+02  0.17142356931E+02 -0.70025616837E+02  0.14939503868E+03  0.12508795427E+03 0.  0.
          5    1    3    3  502    0  0.78201275170E+01  0.27205303114E+02 -0.92525229608E+02  0.96848714116E+02  0.41800000000E+01 0.  1.
         -5    1    3    3    0  502 -0.46218485094E+02 -0.10062946183E+02  0.22499612771E+02  0.52546324564E+02  0.41800000000E+01 0.  1.
        -11    1    1    2    0    0 -0.24410031207E+02 -0.17152448757E+02  0.13778595549E+02  0.32861920473E+02  0.00000000000E+00 0.  1.
         11    1    1    2    0    0  0.62808388784E+02  0.10091826150E-01  0.14100406968E+03  0.15436010323E+03  0.00000000000E+00 0. -1.
</event>
<event>
 7    1  0.2648915E-009  0.1234416E+03  0.7561462E-02  0.1237525E+00
          2   -1    0    0  501    0  0.00000000000E+00  0.00000000000E+00  0.89929488675E+02  0.89929488675E+02  0.00000000000E+00 0. -1.
         -2   -1    0    0    0  501 -0.00000000000E+00 -0.00000000000E+00 -0.19688462319E+03  0.19688462319E+03  0.00000000000E+00 0.  1.
         25    2    1    2    0    0  0.69521841549E+02 -0.23205721123E+02 -0.84304727723E+02  0.16771022319E+03  0.12509052682E+03 0.  0.
          5    1    3    3  502    0 -0.31675097393E+02 -0.12251089860E+02  0.18815336396E+01  0.34269717922E+02  0.41800000000E+01 0. -1.
         -5    1    3    3    0  502  0.10119693894E+03 -0.10954631262E+02 -0.86186261363E+02  0.13344050526E+03  0.41800000000E+01 0. -1.
        -11    1    1    2    0    0 -0.87726642545E+02  0.99867185958E+01 -0.16213436883E+01  0.88308137314E+02  0.00000000000E+00 0.  1.
         11    1    1    2    0    0  0.18204800996E+02  0.13219002527E+02 -0.21029063102E+02  0.30795751364E+02  0.00000000000E+00 0. -1.
</event>
<event>
 7    1  0.2648915E-009  0.9581251E+02  0.7561462E-02  0.1289357E+00
         -2   -1    0    0    0  501 -0.00000000000E+00  0.00000000000E+00  0.19550643368E+03  0.19550643368E+03  0.00000000000E+00 0.  1.
          2   -1    0    0  501    0  0.00000000000E+00 -0.00000000000E+00 -0.65029573677E+02  0.65029573677E+02  0.00000000000E+00 0. -1.
         25    2    1    2    0    0 -0.23815208486E+02  0.23210461350E+02  0.71375970374E+02  0.14780645792E+03  0.12508529164E+03 0.  0.
          5    1    3    3  502    0 -0.72223448669E+02  0.17767411261E+02  0.64296313889E+02  0.98404246962E+02  0.41800000000E+01 0. -1.
         -5    1    3    3    0  502  0.48408240183E+02  0.54430500895E+01  0.70796564848E+01  0.49402210961E+02  0.41800000000E+01 0. -1.
        -11    1    1    2    0    0  0.18929250185E+02 -0.43462353653E+02 -0.27291613289E+01  0.47484113335E+02  0.00000000000E+00 0. -1.
         11    1    1    2    0    0  0.48859583008E+01  0.20251892303E+02  0.61830050961E+02  0.65245436103E+02  0.00000000000E+00 0.  1.
</event>
<event>
 7    1  0.2648915E-009  0.1350687E+03  0.7561462E-02  0.1220123E+00
          2   -1    0    0  501    0  0.00000000000E+00  0.00000000000E+00  0.14009750031E+03  0.14009750031E+03  0.00000000000E+00 0. -1.
         -2   -1    0    0    0  501 -0.00000000000E+00 -0.00000000000E+00 -0.13799561769E+03  0.13799561769E+03  0.00000000000E+00 0.  1.
         25    2    1    2    0    0 -0.68101858827E+02 -0.46189632318E+02 -0.40746796191E+01  0.14978458305E+03  0.12508985969E+03 0.  0.
          5    1    3    3  502    0  0.29252803446E+02 -0.36157481746E+02  0.16798326157E+02  0.49626063287E+02  0.41800000000E+01 0. -1.
         -5    1    3    3    0  502 -0.97354662274E+02 -0.10032150572E+02 -0.20873005776E+02  0.10015851977E+03  0.41800000000E+01 0. -1.
        -11    1    1    2    0    0  0.88854259426E+02  0.18301942288E+02 -0.73293665476E+01  0.91015164251E+02  0.00000000000E+00 0.  1.
         11    1    1    2    0    0 -0.20752400599E+02  0.27887690030E+02  0.13505928781E+02  0.37293370699E+02  0.00000000000E+00 0. -1.
</event>
<event>
 7    1  0.2648915E-009  0.8500235E+02  0.7561462E-02  0.1315426E+00
          2   -1    0    0  501    0  0.00000000000E+00  0.00000000000E+00  0.83193242102E+03  0.83193242102E+03  0.00000000000E+00 0.  1.
         -2   -1    0    0    0  501 -0.00000000000E+00 -0.00000000000E+00 -0.22841027871E+02  0.22841027871E+02  0.00000000000E+00 0. -1.
         25    2    1    2    0    0 -0.67571791400E+02 -0.75317066332E+00  0.65052189114E+03  0.66587731992E+03  0.12508940830E+03 0.  0.
          5    1    3    3  502    0 -0.24055702108E+02 -0.30522448297E+02  0.55751746452E+03  0.55888593854E+03  0.41800000000E+01 0.  1.
         -5    1    3    3    0  502 -0.43516089292E+02  0.29769277633E+02  0.93004426621E+02  0.10699138138E+03  0.41800000000E+01 0.  1.
        -11    1    1    2    0    0  0.19507146244E+02  0.18410290598E+02  0.12458416057E+03  0.12743892898E+03  0.00000000000E+00 0.  1.
         11    1    1    2    0    0  0.48064645156E+02 -0.17657119934E+02  0.33985341440E+02  0.61457199994E+02  0.00000000000E+00 0. -1.
</event>
<event>
 7    1  0.2648915E-009  0.2111627E+03  0.7561462E-02  0.1140649E+00
          2   -1    0    0  501    0  0.00000000000E+00  0.00000000000E+00  0.27026815562E+03  0.27026815562E+03  0.00000000000E+00 0. -1.
         -2   -1    0    0    0  501 -0.00000000000E+00 -0.00000000000E+00 -0.20936555415E+03  0.20936555415E+03  0.00000000000E+00 0.  1.
         25    2    1    2    0    0  0.14618305508E+03  0.14854215339E+03 -0.43912698952E+01  0.24310602771E+03  0.12508797115E+03 0.  0.
          5    1    3    3  502    0  0.13752725047E+03  0.12232305261E+03 -0.48967882518E+02  0.19050459244E+03  0.41800000000E+01 0.  1.
         -5    1    3    3    0  502  0.86558046140E+01  0.26219100780E+02  0.44576612622E+02  0.52601435267E+02  0.41800000000E+01 0.  1.
        -11    1    1    2    0    0 -0.76713562529E+02 -0.57987409783E+02  0.75043638949E+02  0.12197974470E+03  0.00000000000E+00 0.  1.
         11    1    1    2    0    0 -0.69469492555E+02 -0.90554743610E+02 -0.97497675881E+01  0.11454793736E+03  0.00000000000E+00 0. -1.
</event>
<event>
 7    1  0.3759264E-009  0.1296856E+03  0.7561462E-02  0.1227923E+00
          2   -1    0    0  501    0  0.00000000000E+00  0.00000000000E+00  0.64559845567E+03  0.64559845567E+03  0.00000000000E+00 0. -1.
         -2   -1    0    0    0  501 -0.00000000000E+00 -0.00000000000E+00 -0.49721695224E+02  0.49721695224E+02  0.00000000000E+00 0.  1.
         25    2    1    2    0    0  0.98045828919E+02  0.12393710531E+02  0.51374662815E+03  0.53791232427E+03  0.12508989581E+03 0.  0.
          5    1    3    3  502    0  0.90042992595E+02  0.61729200170E+02  0.35520457538E+03  0.37162615279E+03  0.41800000000E+01 0. -1.
         -5    1    3    3    0  502  0.80028363239E+01 -0.49335489639E+02  0.15854205277E+03  0.16628617147E+03  0.41800000000E+01 0. -1.
        -11    1    1    2    0    0 -0.55360350994E+02 -0.14501932851E+02 -0.78786958183E+01  0.57768056627E+02  0.00000000000E+00 0.  1.
         11    1    1    2    0    0 -0.42685477925E+02  0.21082223192E+01  0.90008828116E+02  0.99639770001E+02  0.00000000000E+00 0. -1.
</event>
<event>
 7    1  0.2648915E-009  0.1136349E+03  0.7561462E-02  0.1253983E+00
          1   -1    0    0  501    0  0.00000000000E+00  0.00000000000E+00  0.55207593603E+03  0.55207593603E+03  0.00000000000E+00 0. -1.
         -1   -1    0    0    0  501 -0.00000000000E+00 -0.00000000000E+00 -0.31277269434E+02  0.31277269434E+02  0.00000000000E+00 0.  1.
         25    2    1    2    0    0  0.43954565628E+02  0.13331201723E+02  0.15806088269E+03  0.20673513172E+03  0.12508575966E+03 0.  0.
          5    1    3    3  502    0  0.85840852858E+02  0.37931351616E+01  0.12766680154E+03  0.15394584928E+03  0.41800000000E+01 0.  1.
         -5    1    3    3    0  502 -0.41886287230E+02  0.95380665618E+01  0.30394081149E+02  0.52789282439E+02  0.41800000000E+01 0.  1.
        -11    1    1    2    0    0 -0.53791188380E+02  0.24416888698E+02  0.16997034713E+03  0.17994331137E+03  0.00000000000E+00 0.  1.
         11    1    1    2    0    0  0.98366227515E+01 -0.37748090422E+02  0.19276743677E+03  0.19667476238E+03  0.00000000000E+00 0. -1.
</event>
<event>
 7    1  0.2890841E-009  0.1705289E+03  0.7561462E-02  0.1177297E+00
         -2   -1    0    0    0  501 -0.00000000000E+00  0.00000000000E+00  0.87976089956E+02  0.87976089956E+02  0.00000000000E+00 0.  1.
          2   -1    0    0  501    0  0.00000000000E+00 -0.00000000000E+00 -0.43839156663E+03  0.43839156663E+03  0.00000000000E+00 0. -1.
         25    2    1    2    0    0  0.11228727162E+03  0.86635813717E+02 -0.75363545028E+02  0.20357193960E+03  0.12509066746E+03 0.  0.
          5    1    3    3  502    0  0.11867568894E+03  0.10802088465E+03 -0.81523344831E+02  0.18004432459E+03  0.41800000000E+01 0. -1.
         -5    1    3    3    0  502 -0.63884173110E+01 -0.21385070930E+02  0.61597998027E+01  0.23527615009E+02  0.41800000000E+01 0. -1.
        -11    1    1    2    0    0 -0.31786217807E+02 -0.68188220659E+02 -0.74382442429E+02  0.10579576939E+03  0.00000000000E+00 0.  1.
         11    1    1    2    0    0 -0.80501053817E+02 -0.18447593058E+02 -0.20066948922E+03  0.21699994760E+03  0.00000000000E+00 0. -1.
</event>
<event>
 7    1  0.2648915E-009  0.1182568E+03  0.7561462E-02  0.1246001E+00
         -2   -1    0    0    0  501 -0.00000000000E+00  0.00000000000E+00  0.18923717797E+03  0.18923717797E+03  0.00000000000E+00 0.  1.
          2   -1    0    0  501    0  0.00000000000E+00 -0.00000000000E+00 -0.99388342166E+02  0.99388342166E+02  0.00000000000E+00 0. -1.
         25    2    1    2    0    0 -0.62286920821E+02  0.36424555965E+02  0.51660774604E+01  0.14450332155E+03  0.12509241704E+03 0.  0.
          5    1    3    3  502    0  0.20268761213E+02  0.48238504825E+02 -0.21681450059E+02  0.56792021495E+02  0.41800000000E+01 0. -1.
         -5    1    3    3    0  502 -0.82555682034E+02 -0.11813948860E+02  0.26847527519E+02  0.87711300056E+02  0.41800000000E+01 0. -1.
        -11    1    1    2    0    0  0.64285683840E+02 -0.24402672696E+00  0.15660035649E+02  0.66166044255E+02  0.00000000000E+00 0. -1.
         11    1    1    2    0    0 -0.19987630194E+01 -0.36180529238E+02  0.69022722691E+02  0.77956154326E+02  0.00000000000E+00 0.  1.
</event>
<event>
 7    1  0.2648915E-009  0.1058981E+03  0.7561462E-02  0.1268360E+00
         -1   -1    0    0    0  501 -0.00000000000E+00  0.00000000000E+00  0.38953112048E+02  0.38953112048E+02  0.00000000000E+00 0.  1.
          1   -1    0    0  501    0  0.00000000000E+00 -0.00000000000E+00 -0.35923156384E+03  0.35923156384E+03  0.00000000000E+00 0. -1.
         25    2    1    2    0    0  0.20531737045E+02 -0.37811096240E+02 -0.15878005268E+03  0.20665573419E+03  0.12507700076E+03 0.  0.
          5    1    3    3  502    0  0.24202014144E+00 -0.74032787002E+02 -0.48136499483E+02  0.88405356781E+02  0.41800000000E+01 0. -1.
         -5    1    3    3    0  502  0.20289716904E+02  0.36221690762E+02 -0.11064355320E+03  0.11825037741E+03  0.41800000000E+01 0. -1.
        -11    1    1    2    0    0 -0.25505372433E+02 -0.23335225465E+02 -0.27566192428E+02  0.44214836146E+02  0.00000000000E+00 0.  1.
         11    1    1    2    0    0  0.49736353880E+01  0.61146321705E+02 -0.13393220669E+03  0.14731410555E+03  0.00000000000E+00 0. -1.
</event>
<event>
 7    1  0.2648915E-009  0.1073461E+03  0.7561462E-02  0.1265565E+00
         -2   -1    0    0    0  501 -0.00000000000E+00  0.00000000000E+00  0.19106455086E+03  0.19106455086E+03  0.00000000000E+00 0. -1.
          2   -1    0    0  501    0  0.00000000000E+00 -0.00000000000E+00 -0.80120015237E+02  0.80120015237E+02  0.00000000000E+00 0.  1.
         25    2    1    2    0    0 -0.53603079550E+02 -0.15532912692E+02  0.40210274764E+02  0.14275735168E+03  0.12509290048E+03 0.  0.
          5    1    3    3  502    0 -0.27868895838E+02  0.54987801320E+02  0.17650110155E+02  0.64259882023E+02  0.41800000000E+01 0.  1.
         -5    1    3    3    0  502 -0.25734183712E+02 -0.70520714012E+02  0.22560164609E+02  0.78497469662E+02  0.41800000000E+01 0.  1.
        -11    1    1    2    0    0 -0.11055219923E+02 -0.62025475219E+00 -0.15744124775E+02  0.19247858802E+02  0.00000000000E+00 0.  1.
         11    1    1    2    0    0  0.64658299473E+02  0.16153167445E+02  0.86478385632E+02  0.10917935561E+03  0.00000000000E+00 0. -1.
</event>
<event>
 7    1  0.4269239E-009  0.1147265E+03  0.7561462E-02  0.1252059E+00
          1   -1    0    0  501    0  0.00000000000E+00  0.00000000000E+00  0.16182528768E+04  0.16182528768E+04  0.00000000000E+00 0. -1.
         -1   -1    0    0    0  501 -0.00000000000E+00 -0.00000000000E+00 -0.10450955675E+02  0.10450955675E+02  0.00000000000E+00 0.  1.
         25    2    1    2    0    0  0.49358499989E+02  0.28983857035E+02  0.11631158371E+04  0.11712225051E+04  0.12508948987E+03 0.  0.
          5    1    3    3  502    0 -0.35274601184E+02 -0.18744420147E+02  0.31589330037E+03  0.31843633649E+03  0.41800000000E+01 0. -1.
         -5    1    3    3    0  502  0.84633101173E+02  0.47728277181E+02  0.84722253674E+03  0.85278616864E+03  0.41800000000E+01 0. -1.
        -11    1    1    2    0    0  0.17448168001E+02  0.34282794600E+01  0.21832262294E+02  0.28157402997E+02  0.00000000000E+00 0.  1.
         11    1    1    2    0    0 -0.66806667990E+02 -0.32412136495E+02  0.42285382167E+03  0.42932392431E+03  0.00000000000E+00 0. -1.
</event>
<event>
 7    1  0.2648915E-009  0.7894941E+02  0.7561462E-02  0.1332060E+00
         -1   -1    0    0    0  501 -0.00000000000E+00  0.00000000000E+00  0.10393068064E+03  0.10393068064E+03  0.00000000000E+00 0.  1.
          1   -1    0    0  501    0  0.00000000000E+00 -0.00000000000E+00 -0.76876860575E+02  0.76876860575E+02  0.00000000000E+00 0. -1.
         25    2    1    2    0    0  0.18632271069E+02 -0.30597852074E+01  0.32293332845E+02  0.13056990661E+03  0.12509643223E+03 0.  0.
          5    1    3    3  502    0 -0.44832762982E+02 -0.10198062337E+01 -0.18954202169E+02  0.48864617273E+02  0.41800000000E+01 0.  1.
         -5    1    3    3    0  502  0.63465034050E+02 -0.20399789738E+01  0.51247535015E+02  0.81705289341E+02  0.41800000000E+01 0.  1.
        -11    1    1    2    0    0 -0.16504715531E+02 -0.20077111301E+02 -0.70593626488E+01  0.26931963055E+02  0.00000000000E+00 0. -1.
         11    1    1    2    0    0 -0.21275555373E+01  0.23136896509E+02  0.18198498664E+01  0.23305671545E+02  0.00000000000E+00 0.  1.
</event>
<event>
 7    1  0.2648915E-009  0.9435488E+02  0.7561462E-02  0.1292636E+00
          2   -1    0    0  501    0  0.00000000000E+00  0.00000000000E+00  0.88174796844E+02  0.88174796844E+02  0.00000000000E+00 0. -1.
         -2   -1    0    0    0  501 -0.00000000000E+00 -0.00000000000E+00 -0.15187674749E+03  0.15187674749E+03  0.00000000000E+00 0.  1.
         25    2    1    2    0    0 -0.35226812703E+02  0.35206414791E+01 -0.43954914048E+02  0.13723171718E+03  0.12508871444E+03 0.  0.
          5    1    3    3  502    0 -0.50075947108E+02 -0.39468685648E+02  0.11988174904E+02  0.65012047830E+02  0.41800000000E+01 0. -1.
         -5    1    3    3    0  502  0.14849134404E+02  0.42989327127E+02 -0.55943088952E+02  0.72219669349E+02  0.41800000000E+01 0. -1.
        -11    1    1    2    0    0  0.16191323324E+02 -0.37133868087E+02 -0.41906835204E+02  0.58286069922E+02  0.00000000000E+00 0.  1.
         11    1    1    2    0    0  0.19035489380E+02  0.33613226608E+02  0.22159798607E+02  0.44533757232E+02  0.00000000000E+00 0. -1.
</event>
<event>
 7    1  0.2648915E-009  0.1582516E+03  0.7561462E-02  0.1190685E+00
          1   -1    0    0  501    0  0.00000000000E+00  0.00000000000E+00  0.65563829029E+03  0.65563829029E+03  0.00000000000E+00 0. -1.
         -1   -1    0    0    0  501 -0.00000000000E+00 -0.00000000000E+00 -0.38374860058E+02  0.38374860058E+02  0.00000000000E+00 0.  1.
         25    2    1    2    0    0 -0.39626071435E+02 -0.10827326424E+03  0.31730317730E+03  0.36003079101E+03  0.12509012297E+03 0.  0.
          5    1    3    3  502    0  0.44713908952E+02 -0.49040305987E+02  0.11141145667E+03  0.12974694733E+03  0.41800000000E+01 0.  1.
         -5    1    3    3    0  502 -0.84339980387E+02 -0.59232958253E+02  0.20589172063E+03  0.23028384368E+03  0.41800000000E+01 0.  1.
        -11    1    1    2    0    0  0.69207553456E+02  0.81938851508E+02  0.21869823875E+03  0.24358280004E+03  0.00000000000E+00 0. -1.
         11    1    1    2    0    0 -0.29581482020E+02  0.26334412732E+02  0.81262014178E+02  0.90399559295E+02  0.00000000000E+00 0.  1.
</event>
<event>
 7    1  0.2650928E-009  0.1638636E+03  0.7561462E-02  0.1184403E+00
          1   -1    0    0  501    0  0.00000000000E+00  0.00000000000E+00  0.21890203013E+03  0.21890203013E+03  0.00000000000E+00 0. -1.
         -1   -1    0    0    0  501 -0.00000000000E+00 -0.00000000000E+00 -0.15957082468E+03  0.15957082468E+03  0.00000000000E+00 0.  1.
         25    2    1    2    0    0 -0.55158751908E+00  0.15160352375E+03  0.28289589968E+02  0.19857499167E+03  0.12509114179E+03 0.  0.
          5    1    3    3  502    0  0.38665037509E+02  0.92845083902E+02  0.64024667460E+02  0.11929721360E+03  0.41800000000E+01 0. -1.
         -5    1    3    3    0  502 -0.39216625028E+02  0.58758439848E+02 -0.35735077492E+02  0.79277778068E+02  0.41800000000E+01 0. -1.
        -11    1    1    2    0    0  0.19034821466E+02 -0.64196522790E+02  0.55832139303E+02  0.87182255911E+02  0.00000000000E+00 0. -1.
         11    1    1    2    0    0 -0.18483233947E+02 -0.87407000960E+02 -0.24790523821E+02  0.92715607237E+02  0.00000000000E+00 0.  1.
</event>
<event>
 7    1  0.2648915E-009  0.9711585E+02  0.7561462E-02  0.1286481E+00
         -2   -1    0    0    0  501 -0.00000000000E+00  0.00000000000E+00  0.95134072202E+01  0.95134072202E+01  0.00000000000E+00 0. -1.
          2   -1    0    0  501    0  0.00000000000E+00 -0.00000000000E+00 -0.34575868491E+04  0.34575868491E+04  0.00000000000E+00 0.  1.
         25    2    1    2    0    0  0.14450152001E+01 -0.29737136123E+02 -0.31440914974E+04  0.31467194116E+04  0.12508127757E+03 0.  0.
          5    1    3    3  502    0 -0.98144012433E+00 -0.62277114772E+02 -0.28673581885E+04  0.28680376315E+04  0.41800000000E+01 0. -1.
         -5    1    3    3    0  502  0.24264553245E+01  0.32539978649E+02 -0.27673330888E+03  0.27868178006E+03  0.41800000000E+01 0. -1.
        -11    1    1    2    0    0  0.44866044431E+02  0.19635794539E+01 -0.17230062753E+03  0.17805708027E+03  0.00000000000E+00 0.  1.
         11    1    1    2    0    0 -0.46311059632E+02  0.27773556669E+02 -0.13168131702E+03  0.14232376452E+03  0.00000000000E+00 0. -1.
</event>
<event>
 7    1  0.2648915E-009  0.1011434E+03  0.7561462E-02  0.1277910E+00
         -4   -1    0    0    0  501 -0.00000000000E+00  0.00000000000E+00  0.24671575462E+03  0.24671575462E+03  0.00000000000E+00 0.  1.
          4   -1    0    0  501    0  0.00000000000E+00 -0.00000000000E+00 -0.50307148151E+02  0.50307148151E+02  0.00000000000E+00 0. -1.
         25    2    1    2    0    0 -0.71736020264E+01  0.23525850195E+02  0.11524441621E+03  0.17186039562E+03  0.12509913638E+03 0.  0.
          5    1    3    3  502    0 -0.31285218076E+02  0.60717108759E+02  0.10634480511E+03  0.12645956721E+03  0.41800000000E+01 0. -1.
         -5    1    3    3    0  502  0.24111616049E+02 -0.37191258564E+02  0.88996110959E+01  0.45400828404E+02  0.41800000000E+01 0. -1.
        -11    1    1    2    0    0  0.30376904874E+02  0.22493099840E+02  0.13566366916E+02  0.40158961658E+02  0.00000000000E+00 0. -1.
         11    1    1    2    0    0 -0.23203302848E+02 -0.46018950035E+02  0.67597823344E+02  0.85003545492E+02  0.00000000000E+00 0.  1.
</event>
<event>
 7    1  0.2648915E-009  0.2071571E+03  0.7561462E-02  0.1143837E+00
          2   -1    0    0  501    0  0.00000000000E+00  0.00000000000E+00  0.25587896233E+03  0.25587896233E+03  0.00000000000E+00 0. -1.
         -2   -1    0    0    0  501 -0.00000000000E+00 -0.00000000000E+00 -0.20615076152E+03  0.20615076152E+03  0.00000000000E+00 0.  1.
         25    2    1    2    0    0  0.13557388897E+03 -0.12739555581E+03  0.10107009245E+03  0.24591315607E+03  0.12509280447E+03 0.  0.
          5    1    3    3  502    0  0.11733255516E+02  0.24885999866E+02  0.11256953247E+02  0.30019554805E+02  0.41800000000E+01 0.  1.
         -5    1    3    3    0  502  0.12384063345E+03 -0.15228155567E+03  0.89813139205E+02  0.21589360126E+03  0.41800000000E+01 0.  1.
        -11    1    1    2    0    0 -0.12294931918E+03  0.12804793034E+03 -0.15597215267E+02  0.17820235878E+03  0.00000000000E+00 0. -1.
         11    1    1    2    0    0 -0.12624569792E+02 -0.65237452995E+00 -0.35744676374E+02  0.37914208999E+02  0.00000000000E+00 0.  1.
</event>
<event>
 7    1  0.2648915E-009  0.1154417E+03  0.7561462E-02  0.1250812E+00
         -2   -1    0    0    0  501 -0.00000000000E+00  0.00000000000E+00  0.35354739590E+02  0.35354739590E+02  0.00000000000E+00 0.  1.
          2   -1    0    0  501    0  0.00000000000E+00 -0.00000000000E+00 -0.38350511325E+03  0.38350511325E+03  0.00000000000E+00 0. -1.
         25    2    1    2    0    0 -0.31895722547E+02 -0.27704258002E+02 -0.18875020145E+03  0.23035091148E+03  0.12510012327E+03 0.  0.
          5    1    3    3  502    0 -0.73832494764E+02  0.10486755334E+02 -0.11674582428E+03  0.13859390033E+03  0.41800000000E+01 0.  1.
         -5    1    3    3    0  502  0.41936772217E+02 -0.38191013336E+02 -0.72004377168E+02  0.91757011149E+02  0.41800000000E+01 0.  1.
        -11    1    1    2    0    0  0.21427215917E+02  0.60874423372E+02 -0.88443065712E+02  0.10948514454E+03  0.00000000000E+00 0.  1.
         11    1    1    2    0    0  0.10468506630E+02 -0.33170165370E+02 -0.70957106499E+02  0.79023796824E+02  0.00000000000E+00 0. -1.
</event>
<event>
 7    1  0.2648915E-009  0.1641745E+03  0.7561462E-02  0.1184063E+00
          2   -1    0    0  501    0  0.00000000000E+00  0.00000000000E+00  0.17710585994E+03  0.17710585994E+03  0.00000000000E+00 0. -1.
         -2   -1    0    0    0  501 -0.00000000000E+00 -0.00000000000E+00 -0.19578370686E+03  0.19578370686E+03  0.00000000000E+00 0.  1.
         25    2    1    2    0    0 -0.70887666167E+02  0.12695103806E+03 -0.47948551795E+02  0.19770569947E+03  0.12508738028E+03 0.  0.
          5    1    3    3  502    0 -0.72156684406E+02  0.44983134202E+02 -0.72722145084E+02  0.11196451336E+03  0.41800000000E+01 0.  1.
         -5    1    3    3    0  502  0.12690182390E+01  0.81967903859E+02  0.24773593290E+02  0.85741186106E+02  0.41800000000E+01 0.  1.
        -11    1    1    2    0    0  0.44072970385E+02 -0.15842693721E+02 -0.19735991688E+02  0.50822505161E+02  0.00000000000E+00 0.  1.
         11    1    1    2    0    0  0.26814695782E+02 -0.11110834434E+03  0.49006696566E+02  0.12436136217E+03  0.00000000000E+00 0. -1.
</event>
<event>
 7    1  0.2953384E-009  0.7068973E+02  0.7561462E-02  0.1357763E+00
          1   -1    0    0  501    0  0.00000000000E+00  0.00000000000E+00  0.32264651455E+03  0.32264651455E+03  0.00000000000E+00 0. -1.
         -1   -1    0    0    0  501 -0.00000000000E+00 -0.00000000000E+00 -0.44066354782E+02  0.44066354782E+02  0.00000000000E+00 0.  1.
         25    2    1    2    0    0  0.26700551218E+02 -0.31620994444E+02  0.11350069050E+03  0.17390535731E+03  0.12509140591E+03 0.  0.
          5    1    3    3  502    0 -0.94519951548E+01 -0.14686506376E+02  0.12946662036E+03  0.13070620440E+03  0.41800000000E+01 0.  1.
         -5    1    3    3    0  502  0.36152546373E+02 -0.16934488067E+02 -0.15965929863E+02  0.43199152905E+02  0.41800000000E+01 0.  1.
        -11    1    1    2    0    0  0.25161281036E+02  0.11239927857E+02  0.12289997011E+02  0.30173996556E+02  0.00000000000E+00 0.  1.
         11    1    1    2    0    0 -0.51861832254E+02  0.20381066587E+02  0.15278947226E+03  0.16263351547E+03  0.00000000000E+00 0. -1.
</event>
<event>
 7    1  0.2648915E-009  0.2663363E+03  0.7561462E-02  0.1103395E+00
          1   -1    0    0  501    0  0.00000000000E+00  0.00000000000E+00  0.11679648589E+04  0.11679648589E+04  0.00000000000E+00 0. -1.
         -1   -1    0    0    0  501 -0.00000000000E+00 -0.00000000000E+00 -0.64747759886E+02  0.64747759886E+02  0.00000000000E+00 0.  1.
         25    2    1    2    0    0  0.78264896592E+02 -0.23607822915E+03  0.61201341834E+03  0.67235883730E+03  0.12509059736E+03 0.  0.
          5    1    3    3  502    0  0.10050956851E+03 -0.18165510196E+03  0.54441878920E+03  0.58267490067E+03  0.41800000000E+01 0. -1.
         -5    1    3    3    0  502 -0.22244671915E+02 -0.54423127189E+02  0.67594629138E+02  0.89683936633E+02  0.41800000000E+01 0. -1.
        -11    1    1    2    0    0 -0.45085666939E+01  0.16019861985E+03  0.24998651068E+03  0.29694642698E+03  0.00000000000E+00 0.  1.
         11    1    1    2    0    0 -0.73756329898E+02  0.75879609305E+02  0.24121717001E+03  0.26340735452E+03  0.00000000000E+00 0. -1.
</event>
<event>
 7    1  0.4008277E-009  0.1632799E+03  0.7561462E-02  0.1185043E+00
          1   -1    0    0  501    0  0.00000000000E+00  0.00000000000E+00  0.56213395814E+03  0.56213395814E+03  0.00000000000E+00 0. -1.
         -1   -1    0    0    0  501 -0.00000000000E+00 -0.00000000000E+00 -0.66622420163E+02  0.66622420163E+02  0.00000000000E+00 0.  1.
         25    2    1    2    0    0 -0.66699144998E+01 -0.15953457130E+03  0.25053616106E+03  0.32234990789E+03  0.12508128524E+03 0.  0.
          5    1    3    3  502    0 -0.26398127370E+02 -0.11147940790E+03  0.69723474925E+02  0.13417658093E+03  0.41800000000E+01 0. -1.
         -5    1    3    3    0  502  0.19728212870E+02 -0.48055163406E+02  0.18081268614E+03  0.18817332696E+03  0.41800000000E+01 0. -1.
        -11    1    1    2    0    0 -0.38370439490E+00  0.67763678995E+02  0.18378711257E+03  0.19588202104E+03  0.00000000000E+00 0. -1.
         11    1    1    2    0    0  0.70536188947E+01  0.91770892309E+02  0.61188264341E+02  0.11052444937E+03  0.00000000000E+00 0.  1.
</event>
<event>
 7    1  0.2648915E-009  0.9578705E+02  0.7561462E-02  0.1289413E+00
         -1   -1    0    0    0  501 -0.00000000000E+00  0.00000000000E+00  0.97407616685E+02  0.97407616685E+02  0.00000000000E+00 0.  1.
          1   -1    0    0  501    0  0.00000000000E+00 -0.00000000000E+00 -0.16675516242E+03  0.16675516242E+03  0.00000000000E+00 0. -1.
         25    2    1    2    0    0 -0.86456963700E+01  0.55804124353E+02 -0.77721651329E+02  0.15772478915E+03  0.12509038999E+03 0.  0.
          5    1    3    3  502    0 -0.35341968374E+02  0.57149230255E+02 -0.10143794194E+03  0.12174653059E+03  0.41800000000E+01 0.  1.
         -5    1    3    3    0  502  0.26696272004E+02 -0.13451059016E+01  0.23716290608E+02  0.35978258560E+02  0.41800000000E+01 0.  1.
        -11    1    1    2    0    0  0.43948841652E+02 -0.35292511112E+02  0.25869011992E+02  0.62018286050E+02  0.00000000000E+00 0.  1.
         11    1    1    2    0    0 -0.35303145282E+02 -0.20511613242E+02 -0.17494906395E+02  0.44419703897E+02  0.00000000000E+00 0. -1.
</event>
<event>
 7    1  0.2648915E-009  0.1231928E+03  0.7561462E-02  0.1237921E+00
          1   -1    0    0  501    0  0.00000000000E+00  0.00000000000E+00  0.50714810429E+03  0.50714810429E+03  0.00000000000E+00 0. -1.
         -1   -1    0    0    0  501 -0.00000000000E+00 -0.00000000000E+00 -0.48285914658E+02  0.48285914658E+02  0.00000000000E+00 0.  1.
         25    2    1    2    0    0  0.33852660023E+02  0.90233310301E+02  0.14507178524E+03  0.21443238377E+03  0.12508945382E+03 0.  0.
          5    1    3    3  502    0  0.58471833784E+02  0.51882298281E+02  0.14919213336E+03  0.16848291687E+03  0.41800000000E+01 0.  1.
         -5    1    3    3    0  502 -0.24619173762E+02  0.38351012021E+02 -0.41203481156E+01  0.45949466899E+02  0.41800000000E+01 0.  1.
        -11    1    1    2    0    0  0.24361410057E+02 -0.28284210414E+02  0.41828628189E+02  0.56063437237E+02  0.00000000000E+00 0.  1.
         11    1    1    2    0    0 -0.58214070080E+02 -0.61949099888E+02  0.27196177621E+03  0.28493819795E+03  0.00000000000E+00 0. -1.
</event>
<event>
 7    1  0.2648915E-009  0.1094736E+03  0.7561462E-02  0.1261548E+00
         -2   -1    0    0    0  501 -0.00000000000E+00  0.00000000000E+00  0.65203114636E+02  0.65203114636E+02  0.00000000000E+00 0.  1.
          2   -1    0    0  501    0  0.00000000000E+00 -0.00000000000E+00 -0.41489976017E+03  0.41489976017E+03  0.00000000000E+00 0. -1.
         25    2    1    2    0    0  0.14557042335E+02 -0.29589200287E+02 -0.36164505096E+03  0.38408642710E+03  0.12509121609E+03 0.  0.
          5    1    3    3  502    0  0.40652468671E+02 -0.68386580705E+02 -0.26372518027E+03  0.27549553669E+03  0.41800000000E+01 0. -1.
         -5    1    3    3    0  502 -0.26095426336E+02  0.38797380418E+02 -0.97919870689E+02  0.10859089040E+03  0.41800000000E+01 0. -1.
        -11    1    1    2    0    0  0.34224835272E+02 -0.18947757340E+01 -0.69181915652E+01  0.34968427174E+02  0.00000000000E+00 0. -1.
         11    1    1    2    0    0 -0.48781877607E+02  0.31483976021E+02  0.18866596991E+02  0.61048020533E+02  0.00000000000E+00 0.  1.
</event>
<event>
 7    1  0.2648915E-009  0.1585663E+03  0.7561462E-02  0.1190325E+00
          2   -1    0    0  501    0  0.00000000000E+00  0.00000000000E+00  0.98293537741E+02  0.98293537741E+02  0.00000000000E+00 0. -1.
         -2   -1    0    0    0  501 -0.00000000000E+00 -0.00000000000E+00 -0.29603046349E+03  0.29603046349E+03  0.00000000000E+00 0.  1.
         25    2    1    2    0    0  0.58254697322E+02  0.11012921602E+03 -0.58503614471E+02  0.18598956297E+03  0.12508953052E+03 0.  0.
          5    1    3    3  502    0  0.30295208179E+02 -0.14953827240E+02 -0.45882192549E+02  0.57131992621E+02  0.41800000000E+01 0. -1.
         -5    1    3    3    0  502  0.27959489143E+02  0.12508304326E+03 -0.12621421921E+02  0.12885757035E+03  0.41800000000E+01 0. -1.
        -11    1    1    2    0    0 -0.71598545688E+02 -0.11896444139E+03 -0.12728632868E+03  0.18836321171E+03  0.00000000000E+00 0.  1.
         11    1    1    2    0    0  0.13343848365E+02  0.88352253679E+01 -0.11946982600E+02  0.19971226546E+02  0.00000000000E+00 0. -1.
</event>
<event>
 7    1  0.2648915E-009  0.1339561E+03  0.7561462E-02  0.1221701E+00
          2   -1    0    0  501    0  0.00000000000E+00  0.00000000000E+00  0.79539449435E+03  0.79539449435E+03  0.00000000000E+00 0. -1.
         -2   -1    0    0    0  501 -0.00000000000E+00 -0.00000000000E+00 -0.33675148050E+02  0.33675148050E+02  0.00000000000E+00 0.  1.
         25    2    1    2    0    0 -0.79354678538E+02  0.92785885522E+02  0.38222459676E+03  0.42029748310E+03  0.12509175184E+03 0.  0.
          5    1    3    3  502    0 -0.17873987447E+02  0.19319702362E+02  0.27564946329E+03  0.27693470230E+03  0.41800000000E+01 0.  1.
         -5    1    3    3    0  502 -0.61480691091E+02  0.73466183160E+02  0.10657513347E+03  0.14336278080E+03  0.41800000000E+01 0.  1.
        -11    1    1    2    0    0  0.18487958152E+02 -0.81372549884E+02  0.15673373455E+03  0.17756339718E+03  0.00000000000E+00 0. -1.
         11    1    1    2    0    0  0.60866720385E+02 -0.11413335638E+02  0.22276101499E+03  0.23120876212E+03  0.00000000000E+00 0.  1.
</event>
<event>
 7    1  0.2648915E-009  0.8868088E+02  0.7561462E-02  0.1306078E+00
          2   -1    0    0  501    0  0.00000000000E+00  0.00000000000E+00  0.48884387226E+03  0.48884387226E+03  0.00000000000E+00 0.  1.
         -2   -1    0    0    0  501 -0.00000000000E+00 -0.00000000000E+00 -0.33951288330E+02  0.33951288330E+02  0.00000000000E+00 0. -1.
         25    2    1    2    0    0  0.28605646453E+02 -0.17398414621E+02  0.37277511859E+03  0.39462484097E+03  0.12508592337E+03 0.  0.
          5    1    3    3  502    0 -0.15571236205E+02  0.36673189612E+02  0.48569224842E+02  0.62958940866E+02  0.41800000000E+01 0. -1.
         -5    1    3    3    0  502  0.44176882658E+02 -0.54071604233E+02  0.32420589375E+03  0.33166590010E+03  0.41800000000E+01 0. -1.
        -11    1    1    2    0    0 -0.43339432384E+02  0.25754298316E+02  0.94555604651E+02  0.10715574017E+03  0.00000000000E+00 0.  1.
         11    1    1    2    0    0  0.14733785931E+02 -0.83558836956E+01 -0.12438139310E+02  0.21014579455E+02  0.00000000000E+00 0. -1.
</event>
<event>
 7    1  0.2648915E-009  0.1172319E+03  0.7561462E-02  0.1247735E+00
         -1   -1    0    0    0  501 -0.00000000000E+00  0.00000000000E+00  0.55490654202E+03  0.55490654202E+03  0.00000000000E+00 0.  1.
          1   -1    0    0  501    0  0.00000000000E+00 -0.00000000000E+00 -0.26860672033E+02  0.26860672033E+02  0.00000000000E+00 0. -1.
         25    2    1    2    0    0  0.38139620527E+01  0.54766743331E+02  0.27217967921E+03  0.30453771236E+03  0.12508995961E+03 0.  0.
          5    1    3    3  502    0  0.24749015506E+02  0.90651789015E+02  0.17279757824E+03  0.19674027566E+03  0.41800000000E+01 0. -1.
         -5    1    3    3    0  502 -0.20935053453E+02 -0.35885045684E+02  0.99382100971E+02  0.10779743671E+03  0.41800000000E+01 0. -1.
        -11    1    1    2    0    0  0.32690576571E+01 -0.76098857740E+02  0.23313235257E+03  0.24525989623E+03  0.00000000000E+00 0.  1.
         11    1    1    2    0    0 -0.70830197098E+01  0.21332114409E+02  0.22733838213E+02  0.31969605460E+02  0.00000000000E+00 0. -1.
</event>
<event>
 7    1  0.2648915E-009  0.6326498E+02  0.7561462E-02  0.1384619E+00
         -2   -1    0    0    0  501 -0.00000000000E+00  0.00000000000E+00  0.33351042024E+03  0.33351042024E+03  0.00000000000E+00 0.  1.
          2   -1    0    0  501    0  0.00000000000E+00 -0.00000000000E+00 -0.41239360669E+02  0.41239360669E+02  0.00000000000E+00 0. -1.
         25    2    1    2    0    0 -0.25001029840E+02  0.18597719364E+02  0.16283805732E+03  0.20768810989E+03  0.12508873418E+03 0.  0.
          5    1    3    3  502    0 -0.26802048988E+02  0.75911877489E+00 -0.13557201850E+02  0.30334736084E+02  0.41800000000E+01 0.  1.
         -5    1    3    3    0  502  0.18010191484E+01  0.17838600589E+02  0.17639525917E+03  0.17735337380E+03  0.41800000000E+01 0.  1.
        -11    1    1    2    0    0  0.22075328326E+02  0.27234534057E+02  0.62688744922E+01  0.35613743884E+02  0.00000000000E+00 0. -1.
         11    1    1    2    0    0  0.29257015138E+01 -0.45832253421E+02  0.12316412776E+03  0.13144792714E+03  0.00000000000E+00 0.  1.
</event>
<event>
 7    1  0.2648915E-009  0.1065453E+03  0.7561462E-02  0.1267105E+00
          2   -1    0    0  501    0  0.00000000000E+00  0.00000000000E+00  0.17429452854E+03  0.17429452854E+03  0.00000000000E+00 0. -1.
         -2   -1    0    0    0  501 -0.00000000000E+00 -0.00000000000E+00 -0.70424643821E+02  0.70424643821E+02  0.00000000000E+00 0.  1.
         25    2    1    2    0    0 -0.10396671305E+02  0.12573465823E+02  0.66153654450E+02  0.14244966717E+03  0.12509763731E+03 0.  0.
          5    1    3    3  502    0 -0.41811789050E+02  0.55134530328E+02  0.54351715697E+02  0.88088725369E+02  0.41800000000E+01 0. -1.
         -5    1    3    3    0  502  0.31415117744E+02 -0.42561064505E+02  0.11801938752E+02  0.54360941796E+02  0.41800000000E+01 0. -1.
        -11    1    1    2    0    0 -0.36592534807E+02 -0.22115171270E+02  0.25959174770E+01  0.42834952917E+02  0.00000000000E+00 0.  1.
         11    1    1    2    0    0  0.46989206112E+02  0.95417054472E+01  0.35120312792E+02  0.59434552278E+02  0.00000000000E+00 0. -1.
</event>
<event>
 7    1  0.2648915E-009  0.1279522E+03  0.7561462E-02  0.1230526E+00
          4   -1    0    0  501    0  0.00000000000E+00  0.00000000000E+00  0.98156747389E+02  0.98156747389E+02  0.00000000000E+00 0. -1.
         -4   -1    0    0    0  501 -0.00000000000E+00 -0.00000000000E+00 -0.20998419616E+03  0.20998419616E+03  0.00000000000E+00 0.  1.
         25    2    1    2    0    0  0.31591660845E+02 -0.82501750122E+02 -0.93362943036E+02  0.17935612013E+03  0.12508959545E+03 0.  0.
          5    1    3    3  502    0 -0.31572305552E+02 -0.83666788551E+02 -0.60222281994E+02  0.10789410379E+03  0.41800000000E+01 0. -1.
         -5    1    3    3    0  502  0.63163966396E+02  0.11650384287E+01 -0.33140661042E+02  0.71462016343E+02  0.41800000000E+01 0. -1.
        -11    1    1    2    0    0 -0.58445668954E+01  0.76380167273E+02 -0.46994865710E+02  0.89869941125E+02  0.00000000000E+00 0.  1.
         11    1    1    2    0    0 -0.25747093949E+02  0.61215828494E+01  0.28530359975E+02  0.38914882291E+02  0.00000000000E+00 0. -1.
</event>
<event>
 7    1  0.2648915E-009  0.1643427E+03  0.7561462E-02  0.1183879E+00
         -4   -1    0    0    0  501 -0.00000000000E+00  0.00000000000E+00  0.91080055553E+02  0.91080055553E+02  0.00000000000E+00 0.  1.
          4   -1    0    0  501    0  0.00000000000E+00 -0.00000000000E+00 -0.43652235638E+03  0.43652235638E+03  0.00000000000E+00 0. -1.
         25    2    1    2    0    0  0.14330742545E+03  0.25353190732E+02 -0.72599503046E+02  0.20517753984E+03  0.12508929828E+03 0.  0.
          5    1    3    3  502    0  0.16095298855E+03  0.27150804157E+02 -0.84062545632E+02  0.18364916190E+03  0.41800000000E+01 0. -1.
         -5    1    3    3    0  502 -0.17645563103E+02 -0.17976134242E+01  0.11463042586E+02  0.21528377936E+02  0.41800000000E+01 0. -1.
        -11    1    1    2    0    0 -0.33823097127E+02  0.33763216366E+01 -0.87532469486E+01  0.35100153549E+02  0.00000000000E+00 0.  1.
         11    1    1    2    0    0 -0.10948432832E+03 -0.28729512369E+02 -0.26408955083E+03  0.28732471855E+03  0.00000000000E+00 0. -1.
</event>
<event>
 7    1  0.3168952E-009  0.1239570E+03  0.7561462E-02  0.1236708E+00
         -1   -1    0    0    0  501 -0.00000000000E+00  0.00000000000E+00  0.41588338575E+02  0.41588338575E+02  0.00000000000E+00 0.  1.
          1   -1    0    0  501    0  0.00000000000E+00 -0.00000000000E+00 -0.91642477222E+03  0.91642477222E+03  0.00000000000E+00 0. -1.
         25    2    1    2    0    0  0.73349500972E+02  0.66817131936E+02 -0.77300336667E+03  0.78932085567E+03  0.12509408416E+03 0.  0.
          5    1    3    3  502    0  0.95384868130E+02  0.26671440899E+02 -0.65863686652E+03  0.66605527786E+03  0.41800000000E+01 0. -1.
         -5    1    3    3    0  502 -0.22035367158E+02  0.40145691037E+02 -0.11436650015E+03  0.12326557780E+03  0.41800000000E+01 0. -1.
        -11    1    1    2    0    0 -0.46533058536E+01 -0.17818062919E+02 -0.79222663549E+02  0.81334906660E+02  0.00000000000E+00 0. -1.
         11    1    1    2    0    0 -0.68696195118E+02 -0.48999069016E+02 -0.22610403423E+02  0.87357348467E+02  0.00000000000E+00 0.  1.
</event>
<event>
 7    1  0.2648915E-009  0.1469485E+03  0.7561462E-02  0.1204274E+00
         -2   -1    0    0    0  501 -0.00000000000E+00  0.00000000000E+00  0.39975518572E+03  0.39975518572E+03  0.00000000000E+00 0.  1.
          2   -1    0    0  501    0  0.00000000000E+00 -0.00000000000E+00 -0.17416704024E+03  0.17416704024E+03  0.00000000000E+00 0. -1.
         25    2    1    2    0    0 -0.34562490067E+02 -0.10587488864E+03  0.34819407832E+03  0.38637950532E+03  0.12508376468E+03 0.  0.
          5    1    3    3  502    0 -0.39914486473E+02 -0.12564704746E+03  0.22014629722E+03  0.25663634066E+03  0.41800000000E+01 0.  1.
         -5    1    3    3    0  502  0.53519964053E+01  0.19772158828E+02  0.12804778110E+03  0.12974316466E+03  0.41800000000E+01 0.  1.
        -11    1    1    2    0    0  0.63786027776E+02  0.77280936565E+02 -0.77604132605E+02  0.12674147661E+03  0.00000000000E+00 0.  1.
         11    1    1    2    0    0 -0.29223537709E+02  0.28593952071E+02 -0.45001800242E+02  0.60801244035E+02  0.00000000000E+00 0. -1.
</event>
<event>
 7    1  0.2648915E-009  0.8004892E+02  0.7561462E-02  0.1328913E+00
          2   -1    0    0  501    0  0.00000000000E+00  0.00000000000E+00  0.60543981796E+03  0.60543981796E+03  0.00000000000E+00 0. -1.
         -2   -1    0    0    0  501 -0.00000000000E+00 -0.00000000000E+00 -0.26218019185E+02  0.26218019185E+02  0.00000000000E+00 0.  1.
         25    2    1    2    0    0  0.16686924934E+02 -0.63103360939E+02  0.29373899334E+03  0.32586847865E+03  0.12508869472E+03 0.  0.
          5    1    3    3  502    0 -0.15280484663E+02  0.43720191284E+01  0.22078408223E+03  0.22139487602E+03  0.41800000000E+01 0.  1.
         -5    1    3    3    0  502  0.31967409597E+02 -0.67475380067E+02  0.72954911108E+02  0.10447360263E+03  0.41800000000E+01 0.  1.
        -11    1    1    2    0    0 -0.13225483034E+02  0.12621553025E+02  0.26580942098E+01  0.18473831954E+02  0.00000000000E+00 0.  1.
         11    1    1    2    0    0 -0.34614418999E+01  0.50481807914E+02  0.28282471123E+03  0.28731552654E+03  0.00000000000E+00 0. -1.
</event>
<event>
 7    1  0.2648915E-009  0.1338648E+03  0.7561462E-02  0.1221831E+00
         -1   -1    0    0    0  501 -0.00000000000E+00  0.00000000000E+00  0.20039362447E+02  0.20039362447E+02  0.00000000000E+00 0.  1.
          1   -1    0    0  501    0  0.00000000000E+00 -0.00000000000E+00 -0.99600451589E+03  0.99600451589E+03  0.00000000000E+00 0. -1.
         25    2    1    2    0    0 -0.50119500421E+02 -0.74844429057E+02 -0.54776326442E+03  0.56903931985E+03  0.12508997081E+03 0.  0.
          5    1    3    3  502    0 -0.68676785466E+02 -0.12345633368E+01 -0.35908161886E+03  0.36561606422E+03  0.41800000000E+01 0.  1.
         -5    1    3    3    0  502  0.18557285046E+02 -0.73609865720E+02 -0.18868164556E+03  0.20342325563E+03  0.41800000000E+01 0.  1.
        -11    1    1    2    0    0  0.43819869494E+02 -0.38055629124E+01 -0.21998971383E+03  0.22434379302E+03  0.00000000000E+00 0.  1.
         11    1    1    2    0    0  0.62996309268E+01  0.78649991969E+02 -0.20821217518E+03  0.22266076547E+03  0.00000000000E+00 0. -1.
</event>
<event>
 7    1  0.2648915E-009  0.9760702E+02  0.7561462E-02  0.1285410E+00
         -2   -1    0    0    0  501 -0.00000000000E+00  0.00000000000E+00  0.10917742996E+02  0.10917742996E+02  0.00000000000E+00 0.  1.
          2   -1    0    0  501    0  0.00000000000E+00 -0.00000000000E+00 -0.12166603679E+04  0.12166603679E+04  0.00000000000E+00 0. -1.
         25    2    1    2    0    0  0.76821278523E+01 -0.37915864032E+02 -0.75413645733E+03  0.76541844712E+03  0.12508786949E+03 0.  0.
          5    1    3    3  502    0  0.12050355710E+02  0.29792929962E+02 -0.53499301561E+03  0.53597372034E+03  0.41800000000E+01 0. -1.
         -5    1    3    3    0  502 -0.43682278579E+01 -0.67708793995E+02 -0.21914344172E+03  0.22944472678E+03  0.41800000000E+01 0. -1.
        -11    1    1    2    0    0  0.39592248677E+02  0.18897714174E+02 -0.15017970935E+03  0.15645643118E+03  0.00000000000E+00 0. -1.
         11    1    1    2    0    0 -0.47274376529E+02  0.19018149858E+02 -0.30142645825E+03  0.30570323262E+03  0.00000000000E+00 0.  1.
</event>
<event>
 7    1  0.2648915E-009  0.1013256E+03  0.7561462E-02  0.1277533E+00
          1   -1    0    0  501    0  0.00000000000E+00  0.00000000000E+00  0.83478144838E+02  0.83478144838E+02  0.00000000000E+00 0. -1.
         -1   -1    0    0    0  501 -0.00000000000E+00 -0.00000000000E+00 -0.26442476381E+03  0.26442476381E+03  0.00000000000E+00 0.  1.
         25    2    1    2    0    0  0.16721193026E+02  0.30692366526E+00 -0.21444200633E+03  0.24882209666E+03  0.12508944484E+03 0.  0.
          5    1    3    3  502    0  0.22752080956E+02  0.56721973837E+02 -0.66987332486E+02  0.90773424620E+02  0.41800000000E+01 0.  1.
         -5    1    3    3    0  502 -0.60308879295E+01 -0.56415050172E+02 -0.14745467385E+03  0.15804867204E+03  0.41800000000E+01 0.  1.
        -11    1    1    2    0    0 -0.35948041894E+02 -0.31542428569E+02  0.39356914727E+02  0.61936687455E+02  0.00000000000E+00 0. -1.
         11    1    1    2    0    0  0.19226848868E+02  0.31235504904E+02 -0.58615273645E+01  0.37144124529E+02  0.00000000000E+00 0.  1.
</event>
<event>
 7    1  0.2648915E-009  0.3812066E+03  0.7561462E-02  0.1050489E+00
          2   -1    0    0  501    0  0.00000000000E+00  0.00000000000E+00  0.31690713604E+03  0.31690713604E+03  0.00000000000E+00 0. -1.
         -2   -1    0    0    0  501 -0.00000000000E+00 -0.00000000000E+00 -0.51563096212E+03  0.51563096212E+03  0.00000000000E+00 0.  1.
         25    2    1    2    0    0 -0.22784121845E+02 -0.36935742343E+03  0.25960861615E+02  0.39149228940E+03  0.12509286101E+03 0.  0.
          5    1    3    3  502    0 -0.57501892011E+02 -0.88770428877E+02  0.24872663512E+02  0.10873260053E+03  0.41800000000E+01 0.  1.
         -5    1    3    3    0  502  0.34717770166E+02 -0.28058699455E+03  0.10881981030E+01  0.28275968887E+03  0.41800000000E+01 0.  1.
        -11    1    1    2    0    0  0.12335354040E+01  0.31935277685E+03 -0.21688326995E+03  0.38603894943E+03  0.00000000000E+00 0.  1.
         11    1    1    2    0    0  0.21550586441E+02  0.50004646574E+02 -0.78014177453E+01  0.55006859334E+02  0.00000000000E+00 0. -1.
</event>
<event>
 7    1  0.2648915E-009  0.1504497E+03  0.7561462E-02  0.1199921E+00
          3   -1    0    0  501    0  0.00000000000E+00  0.00000000000E+00  0.23547171844E+03  0.23547171844E+03  0.00000000000E+00 0. -1.
         -3   -1    0    0    0  501 -0.00000000000E+00 -0.00000000000E+00 -0.15776584352E+03  0.15776584352E+03  0.00000000000E+00 0.  1.
         25    2    1    2    0    0 -0.10943143031E+03  0.20389148921E+02 -0.72925398127E+02  0.18263620708E+03  0.12508762972E+03 0.  0.
          5    1    3    3  502    0  0.20850835430E+02  0.27748667868E+02 -0.27229781510E+02  0.44313421304E+02  0.41800000000E+01 0. -1.
         -5    1    3    3    0  502 -0.13028226574E+03 -0.73595189472E+01 -0.45695616617E+02  0.13832278577E+03  0.41800000000E+01 0. -1.
        -11    1    1    2    0    0  0.11274291658E+03  0.19890545841E+01  0.85081552557E+02  0.14125789239E+03  0.00000000000E+00 0.  1.
         11    1    1    2    0    0 -0.33114862732E+01 -0.22378203505E+02  0.65549720494E+02  0.69343462491E+02  0.00000000000E+00 0. -1.
</event>
<event>
 7    1  0.2648915E-009  0.1730833E+03  0.7561462E-02  0.1174670E+00
         -2   -1    0    0    0  501 -0.00000000000E+00  0.00000000000E+00  0.23545279700E+03  0.23545279700E+03  0.00000000000E+00 0.  1.
          2   -1    0    0  501    0  0.00000000000E+00 -0.00000000000E+00 -0.13374046528E+03  0.13374046528E+03  0.00000000000E+00 0. -1.
         25    2    1    2    0    0 -0.88419508169E+02  0.11184323935E+03  0.38575908371E+02  0.19355071822E+03  0.12508741025E+03 0.  0.
          5    1    3    3  502    0  0.28267324617E+02  0.86520781913E+01  0.21500849087E+02  0.36792105261E+02  0.41800000000E+01 0.  1.
         -5    1    3    3    0  502 -0.11668683279E+03  0.10319116116E+03  0.17075059284E+02  0.15675861296E+03  0.41800000000E+01 0.  1.
        -11    1    1    2    0    0  0.47871773923E+02 -0.10991939240E+03  0.62136800288E+02  0.13503688946E+03  0.00000000000E+00 0.  1.
         11    1    1    2    0    0  0.40547734247E+02 -0.19238469460E+01  0.99962305908E+00  0.40605654605E+02  0.00000000000E+00 0. -1.
</event>
<event>
 7    1  0.2648915E-009  0.1065942E+03  0.7561462E-02  0.1267010E+00
          1   -1    0    0  501    0  0.00000000000E+00  0.00000000000E+00  0.70849379073E+03  0.70849379073E+03  0.00000000000E+00 0. -1.
         -1   -1    0    0    0  501 -0.00000000000E+00 -0.00000000000E+00 -0.26565966767E+02  0.26565966767E+02  0.00000000000E+00 0.  1.
         25    2    1    2    0    0 -0.54367124582E+02 -0.56264648206E+02  0.28669208056E+03  0.32243035716E+03  0.12508993280E+03 0.  0.
          5    1    3    3  502    0 -0.65817020909E+02 -0.55027075458E+02  0.86625424536E+02  0.12198891692E+03  0.41800000000E+01 0.  1.
         -5    1    3    3    0  502  0.11449896327E+02 -0.12375727483E+01  0.20006665603E+03  0.20044144024E+03  0.41800000000E+01 0.  1.
        -11    1    1    2    0    0  0.54455871573E+02 -0.41655767999E+01  0.23787643496E+03  0.24406554916E+03  0.00000000000E+00 0. -1.
         11    1    1    2    0    0 -0.88746990816E-01  0.60430225006E+02  0.15735930844E+03  0.16856385117E+03  0.00000000000E+00 0.  1.
</event>
<event>
 7    1  0.2648915E-009  0.1894233E+03  0.7561462E-02  0.1158982E+00
          2   -1    0    0  501    0  0.00000000000E+00  0.00000000000E+00  0.19246155676E+04  0.19246155676E+04  0.00000000000E+00 0. -1.
         -2   -1    0    0    0  501 -0.00000000000E+00 -0.00000000000E+00 -0.24834040220E+02  0.24834040220E+02  0.00000000000E+00 0.  1.
         25    2    1    2    0    0 -0.59988737447E+02 -0.16187031900E+03  0.13345937019E+04  0.13515132249E+04  0.12508796559E+03 0.  0.
          5    1    3    3  502    0 -0.18020362000E+02 -0.16269193645E+03  0.89118259113E+03  0.90610004015E+03  0.41800000000E+01 0. -1.
         -5    1    3    3    0  502 -0.41968375447E+02  0.82161744577E+00  0.44341111075E+03  0.44541318473E+03  0.41800000000E+01 0. -1.
        -11    1    1    2    0    0  0.30289565963E+02  0.96029246168E+02  0.45624537603E+03  0.46722469656E+03  0.00000000000E+00 0. -1.
         11    1    1    2    0    0  0.29699171483E+02  0.65841072837E+02  0.10894244945E+03  0.13071168636E+03  0.00000000000E+00 0.  1.
</event>
<event>
 7    1  0.2648915E-009  0.1223083E+03  0.7561462E-02  0.1239337E+00
          2   -1    0    0  501    0  0.00000000000E+00  0.00000000000E+00  0.42772795580E+02  0.42772795580E+02  0.00000000000E+00 0. -1.
         -2   -1    0    0    0  501 -0.00000000000E+00 -0.00000000000E+00 -0.42601957470E+03  0.42601957470E+03  0.00000000000E+00 0.  1.
         25    2    1    2    0    0 -0.56949221824E+02 -0.45941236338E+02 -0.14091709546E+03  0.20213726986E+03  0.12509211412E+03 0.  0.
          5    1    3    3  502    0  0.19979948610E+02 -0.60730454870E+02 -0.45349487671E+02  0.78494808282E+02  0.41800000000E+01 0. -1.
         -5    1    3    3    0  502 -0.76929170434E+02  0.14789218532E+02 -0.95567607784E+02  0.12364246158E+03  0.41800000000E+01 0. -1.
        -11    1    1    2    0    0 -0.16404953140E+02  0.18405465358E+01 -0.10585129154E+02  0.19610075428E+02  0.00000000000E+00 0.  1.
         11    1    1    2    0    0  0.73354174964E+02  0.44100689803E+02 -0.23174455451E+03  0.24704502499E+03  0.00000000000E+00 0. -1.
</event>
<event>
 7    1  0.2648915E-009  0.6786519E+02  0.7561462E-02  0.1367507E+00
         -3   -1    0    0    0  501 -0.00000000000E+00  0.00000000000E+00  0.91271163722E+02  0.91271163722E+02  0.00000000000E+00 0.  1.
          3   -1    0    0  501    0  0.00000000000E+00 -0.00000000000E+00 -0.16369370255E+03  0.16369370255E+03  0.00000000000E+00 0. -1.
         25    2    1    2    0    0  0.35697006229E+02 -0.42283339460E+02 -0.38885671024E+02  0.14220423328E+03  0.12509113279E+03 0.  0.
          5    1    3    3  502    0  0.32086487571E+02 -0.30801706305E+02  0.41403829706E+02  0.60910075606E+02  0.41800000000E+01 0.  1.
         -5    1    3    3    0  502  0.36105186576E+01 -0.11481633155E+02 -0.80289500730E+02  0.81294157677E+02  0.41800000000E+01 0.  1.
        -11    1    1    2    0    0 -0.33198160392E+02 -0.26581540273E+01 -0.53898863110E+02  0.63358275551E+02  0.00000000000E+00 0. -1.
         11    1    1    2    0    0 -0.24988458372E+01  0.44941493487E+02  0.20361995308E+02  0.49402357436E+02  0.00000000000E+00 0.  1.
</event>
<event>
 7    1  0.2648915E-009  0.2910820E+03  0.7561462E-02  0.1089786E+00
          2   -1    0    0  501    0  0.00000000000E+00  0.00000000000E+00  0.12883126654E+04  0.12883126654E+04  0.00000000000E+00 0.  1.
         -2   -1    0    0    0  501 -0.00000000000E+00 -0.00000000000E+00 -0.73062131702E+02  0.73062131702E+02  0.00000000000E+00 0. -1.
         25    2    1    2    0    0 -0.11459479418E+03 -0.26105005283E+03  0.56528270411E+03  0.64534567245E+03  0.12508958566E+03 0.  0.
          5    1    3    3  502    0 -0.37489107719E+02 -0.70786710763E+02  0.29618773152E+03  0.30685637735E+03  0.41800000000E+01 0. -1.
         -5    1    3    3    0  502 -0.77105686465E+02 -0.19026334207E+03  0.26909497260E+03  0.33848929510E+03  0.41800000000E+01 0. -1.
        -11    1    1    2    0    0  0.12356782014E+03  0.20132082115E+03  0.46688444379E+03  0.52324006255E+03  0.00000000000E+00 0. -1.
         11    1    1    2    0    0 -0.89730259592E+01  0.59729231682E+02  0.18308338580E+03  0.19278906210E+03  0.00000000000E+00 0.  1.
</event>
<event>
 7    1  0.2648915E-009  0.1112351E+03  0.7561462E-02  0.1258300E+00
          1   -1    0    0  501    0  0.00000000000E+00  0.00000000000E+00  0.86746898692E+02  0.86746898692E+02  0.00000000000E+00 0. -1.
         -1   -1    0    0    0  501 -0.00000000000E+00 -0.00000000000E+00 -0.15230713904E+03  0.15230713904E+03  0.00000000000E+00 0.  1.
         25    2    1    2    0    0  0.24824078812E+02 -0.37292373261E+02 -0.37378382867E+02  0.13802635759E+03  0.12508867211E+03 0.  0.
          5    1    3    3  502    0  0.31557163249E+02 -0.77934962951E+02 -0.30525163971E+01  0.84240745835E+02  0.41800000000E+01 0.  1.
         -5    1    3    3    0  502 -0.67330844370E+01  0.40642589689E+02 -0.34325866470E+02  0.53785611753E+02  0.41800000000E+01 0.  1.
        -11    1    1    2    0    0 -0.32416361679E+02 -0.20652687312E+02 -0.85286956647E+01  0.39371215977E+02  0.00000000000E+00 0.  1.
         11    1    1    2    0    0  0.75922828677E+01  0.57945060574E+02 -0.19653161812E+02  0.61656464164E+02  0.00000000000E+00 0. -1.
</event>
<event>
 7    1  0.2648915E-009  0.1973767E+03  0.7561462E-02  0.1151971E+00
         -1   -1    0    0    0  501 -0.00000000000E+00  0.00000000000E+00  0.12289135352E+03  0.12289135352E+03  0.00000000000E+00 0.  1.
          1   -1    0    0  501    0  0.00000000000E+00 -0.00000000000E+00 -0.42001336490E+03  0.42001336490E+03  0.00000000000E+00 0. -1.
         25    2    1    2    0    0 -0.15887503107E+03  0.41606078074E+02 -0.31620277310E+02  0.20885618719E+03  0.12509485905E+03 0.  0.
          5    1    3    3  502    0 -0.35120493472E+02 -0.35738143285E+02  0.19844522394E+02  0.54054985119E+02  0.41800000000E+01 0.  1.
         -5    1    3    3    0  502 -0.12375453759E+03  0.77344221359E+02 -0.51464799704E+02  0.15480120207E+03  0.41800000000E+01 0.  1.
        -11    1    1    2    0    0  0.95828304036E+02  0.32491803735E+02 -0.10124423854E+03  0.14314041010E+03  0.00000000000E+00 0. -1.
         11    1    1    2    0    0  0.63046727030E+02 -0.74097881808E+02 -0.16425749552E+03  0.19090812113E+03  0.00000000000E+00 0.  1.
</event>
<event>
 7    1  0.2648915E-009  0.1187756E+03  0.7561462E-02  0.1245131E+00
         -1   -1    0    0    0  501 -0.00000000000E+00  0.00000000000E+00  0.64124906691E+02  0.64124906691E+02  0.00000000000E+00 0.  1.
          1   -1    0    0  501    0  0.00000000000E+00 -0.00000000000E+00 -0.64739774297E+03  0.64739774297E+03  0.00000000000E+00 0. -1.
         25    2    1    2    0    0  0.68778755010E+02  0.93318573545E+02 -0.82196799069E+02  0.18932462676E+03  0.12509447314E+03 0.  0.
          5    1    3    3  502    0  0.43420842875E+01  0.11225060197E+02  0.32074524067E+02  0.34512362517E+02  0.41800000000E+01 0. -1.
         -5    1    3    3    0  502  0.64436670723E+02  0.82093513348E+02 -0.11427132314E+03  0.15481226424E+03  0.41800000000E+01 0. -1.
        -11    1    1    2    0    0 -0.34958122273E+02 -0.72925678823E+02 -0.45213075082E+03  0.45930647806E+03  0.00000000000E+00 0. -1.
         11    1    1    2    0    0 -0.33820632737E+02 -0.20392894723E+02 -0.48945286388E+02  0.62891544849E+02  0.00000000000E+00 0.  1.
</event>
<event>
 7    1  0.2648915E-009  0.1145516E+03  0.7561462E-02  0.1252366E+00
          3   -1    0    0  501    0  0.00000000000E+00  0.00000000000E+00  0.24402196677E+02  0.24402196677E+02  0.00000000000E+00 0. -1.
         -3   -1    0    0    0  501 -0.00000000000E+00 -0.00000000000E+00 -0.78525276143E+03  0.78525276143E+03  0.00000000000E+00 0.  1.
         25    2    1    2    0    0  0.71287351444E+02  0.53153878996E+02 -0.37930410469E+03  0.40917716984E+03  0.12508849328E+03 0.  0.
          5    1    3    3  502    0 -0.23297469193E+02  0.34393440470E+02 -0.45739965622E+02  0.61929780181E+02  0.41800000000E+01 0.  1.
         -5    1    3    3    0  502  0.94584820637E+02  0.18760438525E+02 -0.33356413907E+03  0.34724738966E+03  0.41800000000E+01 0.  1.
        -11    1    1    2    0    0 -0.55896794657E+02 -0.31175561502E+02 -0.36114148635E+03  0.36676905601E+03  0.00000000000E+00 0.  1.
         11    1    1    2    0    0 -0.15390556787E+02 -0.21978317494E+02 -0.20404973711E+02  0.33708732255E+02  0.00000000000E+00 0. -1.
</event>
<event>
 7    1  0.2648915E-009  0.2206367E+03  0.7561462E-02  0.1133409E+00
         -1   -1    0    0    0  501 -0.00000000000E+00  0.00000000000E+00  0.85535802173E+03  0.85535802173E+03  0.00000000000E+00 0.  1.
          1   -1    0    0  501    0  0.00000000000E+00 -0.00000000000E+00 -0.96690910788E+02  0.96690910788E+02  0.00000000000E+00 0. -1.
         25    2    1    2    0    0  0.12084578577E+03  0.15293324272E+03  0.87444421628E+02  0.24756236274E+03  0.12509322886E+03 0.  0.
          5    1    3    3  502    0  0.11806274384E+03  0.17308356963E+03  0.71635332984E+02  0.22146292442E+03  0.41800000000E+01 0.  1.
         -5    1    3    3    0  502  0.27830419317E+01 -0.20150326913E+02  0.15809088644E+02  0.26099438325E+02  0.41800000000E+01 0.  1.
        -11    1    1    2    0    0 -0.73864494063E+02 -0.14578220817E+03  0.56408652880E+03  0.58728360072E+03  0.00000000000E+00 0.  1.
         11    1    1    2    0    0 -0.46981291707E+02 -0.71510345548E+01  0.10713616051E+03  0.11720296905E+03  0.00000000000E+00 0. -1.
</event>
<event>
 7    1  0.2648915E-009  0.1042946E+03  0.7561462E-02  0.1271516E+00
          2   -1    0    0  501    0  0.00000000000E+00  0.00000000000E+00  0.12252121070E+03  0.12252121070E+03  0.00000000000E+00 0. -1.
         -2   -1    0    0    0  501 -0.00000000000E+00 -0.00000000000E+00 -0.10296074064E+03  0.10296074064E+03  0.00000000000E+00 0.  1.
         25    2    1    2    0    0  0.13415263606E+02 -0.28012105250E+02  0.35297476726E+02  0.13363144390E+03  0.12508718398E+03 0.  0.
          5    1    3    3  502    0 -0.10236331550E+02  0.42340330885E+02 -0.12181144415E+02  0.45423989062E+02  0.41800000000E+01 0. -1.
         -5    1    3    3    0  502  0.23651595155E+02 -0.70352436135E+02  0.47478621141E+02  0.88207454837E+02  0.41800000000E+01 0. -1.
        -11    1    1    2    0    0 -0.45325289213E+02  0.35664952002E+02 -0.10375230442E+02  0.58600478243E+02  0.00000000000E+00 0.  1.
         11    1    1    2    0    0  0.31910025608E+02 -0.76528467518E+01 -0.53617762192E+01  0.33250029202E+02  0.00000000000E+00 0. -1.
</event>
<event>
 7    1  0.2648915E-009  0.1652874E+03  0.7561462E-02  0.1182853E+00
          2   -1    0    0  501    0  0.00000000000E+00  0.00000000000E+00  0.10875813180E+03  0.10875813180E+03  0.00000000000E+00 0. -1.
         -2   -1    0    0    0  501 -0.00000000000E+00 -0.00000000000E+00 -0.39689090222E+03  0.39689090222E+03  0.00000000000E+00 0.  1.
         25    2    1    2    0    0  0.76574176932E+02 -0.13228893661E+03 -0.25978781489E+03  0.32634713737E+03  0.12509507579E+03 0.  0.
          5    1    3    3  502    0  0.87719281398E+00 -0.11099769777E+02 -0.13811949918E+03  0.13863059839E+03  0.41800000000E+01 0.  1.
         -5    1    3    3    0  502  0.75696984118E+02 -0.12118916683E+03 -0.12166831571E+03  0.18771653899E+03  0.41800000000E+01 0.  1.
        -11    1    1    2    0    0  0.69054980226E+01  0.73037247973E+02 -0.22623803784E+02  0.76772143334E+02  0.00000000000E+00 0. -1.
         11    1    1    2    0    0 -0.83479674955E+02  0.59251688635E+02 -0.57211517515E+01  0.10252975331E+03  0.00000000000E+00 0.  1.
</event>
<event>
 7    1  0.2648915E-009  0.9828554E+02  0.7561462E-02  0.1283943E+00
         -1   -1    0    0    0  501 -0.00000000000E+00  0.00000000000E+00  0.36245111434E+03  0.36245111434E+03  0.00000000000E+00 0.  1.
          1   -1    0    0  501    0  0.00000000000E+00 -0.00000000000E+00 -0.43465297695E+02  0.43465297695E+02  0.00000000000E+00 0. -1.
         25    2    1    2    0    0  0.18656982068E+01 -0.37314168221E+02  0.96416041991E+02  0.16229827043E+03  0.12509535343E+03 0.  0.
          5    1    3    3  502    0  0.40889312138E+02 -0.54442445064E+02  0.14315973326E+02  0.69701758686E+02  0.41800000000E+01 0. -1.
         -5    1    3    3    0  502 -0.39023613931E+02  0.17128276843E+02  0.82100068665E+02  0.92596511742E+02  0.41800000000E+01 0. -1.
        -11    1    1    2    0    0  0.37080385792E+02  0.24868074165E+02  0.53536934405E+02  0.69710684036E+02  0.00000000000E+00 0. -1.
         11    1    1    2    0    0 -0.38946083999E+02  0.12446094056E+02  0.16903284025E+03  0.17390745757E+03  0.00000000000E+00 0.  1.
</event>
<event>
 7    1  0.2648915E-009  0.1174738E+03  0.7561462E-02  0.1247324E+00
         -1   -1    0    0    0  501 -0.00000000000E+00  0.00000000000E+00  0.51838906399E+03  0.51838906399E+03  0.00000000000E+00 0.  1.
          1   -1    0    0  501    0  0.00000000000E+00 -0.00000000000E+00 -0.31130269458E+02  0.31130269458E+02  0.00000000000E+00 0. -1.
         25    2    1    2    0    0  0.20577876768E+02  0.63107943569E+02  0.28864088457E+03  0.32150770233E+03  0.12509029081E+03 0.  0.
          5    1    3    3  502    0 -0.36007786278E+02  0.58944197166E+02  0.22838098611E+03  0.23863429399E+03  0.41800000000E+01 0.  1.
         -5    1    3    3    0  502  0.56585663046E+02  0.41637464026E+01  0.60259898463E+02  0.82873408336E+02  0.41800000000E+01 0.  1.
        -11    1    1    2    0    0  0.33900872252E+02 -0.28733216996E+02  0.10840970215E+03  0.11716454421E+03  0.00000000000E+00 0.  1.
         11    1    1    2    0    0 -0.54478749020E+02 -0.34374726572E+02  0.90208207812E+02  0.11084708692E+03  0.00000000000E+00 0. -1.
</event>
<event>
 7    1  0.2648915E-009  0.1834756E+03  0.7561462E-02  0.1164481E+00
          1   -1    0    0  501    0  0.00000000000E+00  0.00000000000E+00  0.80634553720E+03  0.80634553720E+03  0.00000000000E+00 0. -1.
         -1   -1    0    0    0  501 -0.00000000000E+00 -0.00000000000E+00 -0.51978289989E+02  0.51978289989E+02  0.00000000000E+00 0.  1.
         25    2    1    2    0    0 -0.16112343845E+03 -0.72762646610E+02  0.46085343265E+03  0.50920207927E+03  0.12508279651E+03 0.  0.
          5    1    3    3  502    0 -0.15632991026E+03 -0.71236496978E+02  0.46856902396E+03  0.49908724884E+03  0.41800000000E+01 0.  1.
         -5    1    3    3    0  502 -0.47935281881E+01 -0.15261496327E+01 -0.77155913096E+01  0.10114830421E+02  0.41800000000E+01 0.  1.
        -11    1    1    2    0    0  0.60303066521E+02  0.63100551587E+02  0.14824124624E+03  0.17202792369E+03  0.00000000000E+00 0.  1.
         11    1    1    2    0    0  0.10082037193E+03  0.96620950232E+01  0.14527256833E+03  0.17709382424E+03  0.00000000000E+00 0. -1.
</event>
<event>
 7    1  0.2648915E-009  0.1236244E+03  0.7561462E-02  0.1237235E+00
          1   -1    0    0  501    0  0.00000000000E+00  0.00000000000E+00  0.38222914125E+03  0.38222914125E+03  0.00000000000E+00 0. -1.
         -1   -1    0    0    0  501 -0.00000000000E+00 -0.00000000000E+00 -0.44550193293E+02  0.44550193293E+02  0.00000000000E+00 0.  1.
         25    2    1    2    0    0 -0.52126139273E+02  0.40420347436E+02  0.24128340264E+03  0.27967109956E+03  0.12508918680E+03 0.  0.
          5    1    3    3  502    0  0.24718954342E+02 -0.28385658225E+02  0.56779882879E+02  0.68251005827E+02  0.41800000000E+01 0. -1.
         -5    1    3    3    0  502 -0.76845093615E+02  0.68806005661E+02  0.18450351977E+03  0.21142009373E+03  0.41800000000E+01 0. -1.
        -11    1    1    2    0    0 -0.22743356933E+02 -0.14223777960E+02  0.45638887538E+02  0.52938494498E+02  0.00000000000E+00 0. -1.
         11    1    1    2    0    0  0.74869496206E+02 -0.26196569476E+02  0.50756657771E+02  0.94169740482E+02  0.00000000000E+00 0.  1.
</event>
<event>
 7    1  0.2648915E-009  0.1164474E+03  0.7561462E-02  0.1249076E+00
         -3   -1    0    0    0  501 -0.00000000000E+00  0.00000000000E+00  0.16080944907E+03  0.16080944907E+03  0.00000000000E+00 0.  1.
          3   -1    0    0  501    0  0.00000000000E+00 -0.00000000000E+00 -0.14475844430E+03  0.14475844430E+03  0.00000000000E+00 0. -1.
         25    2    1    2    0    0 -0.24093320819E+02  0.55040502351E+02  0.76581218914E+02  0.15849009620E+03  0.12507790570E+03 0.  0.
          5    1    3    3  502    0 -0.79213611762E+01 -0.40267009382E+02  0.30592121358E+02  0.51356891423E+02  0.41800000000E+01 0.  1.
         -5    1    3    3    0  502 -0.16171959642E+02  0.95307511733E+02  0.45989097556E+02  0.10713320478E+03  0.41800000000E+01 0.  1.
        -11    1    1    2    0    0  0.47807416135E+02 -0.18373965962E+02 -0.83334394256E+02  0.97814993374E+02  0.00000000000E+00 0. -1.
         11    1    1    2    0    0 -0.23714095317E+02 -0.36666536388E+02  0.22804180110E+02  0.49262803797E+02  0.00000000000E+00 0.  1.
</event>
<event>
 7    1  0.2648915E-009  0.6976586E+02  0.7561462E-02  0.1360891E+00
          2   -1    0    0  501    0  0.00000000000E+00  0.00000000000E+00  0.28097620252E+03  0.28097620252E+03  0.00000000000E+00 0. -1.
         -2   -1    0    0    0  501 -0.00000000000E+00 -0.00000000000E+00 -0.58098464003E+02  0.58098464003E+02  0.00000000000E+00 0.  1.
         25    2    1    2    0    0  0.75334680029E-04  0.68103303677E+02  0.98698956329E+02  0.17328435687E+03  0.12509166392E+03 0.  0.
          5    1    3    3  502    0 -0.14626782066E+01  0.57737413533E+02 -0.14363150026E+02  0.59661719952E+02  0.41800000000E+01 0.  1.
         -5    1    3    3    0  502  0.14627535413E+01  0.10365890145E+02  0.11306210635E+03  0.11362263692E+03  0.41800000000E+01 0.  1.
        -11    1    1    2    0    0 -0.76812794328E+01 -0.51361148815E+02  0.13594250495E+02  0.53682150738E+02  0.00000000000E+00 0.  1.
         11    1    1    2    0    0  0.76812040981E+01 -0.16742154862E+02  0.11058453169E+03  0.11210815892E+03  0.00000000000E+00 0. -1.
</event>
<event>
 7    1  0.2648915E-009  0.1128154E+03  0.7561462E-02  0.1255443E+00
         -2   -1    0    0    0  501 -0.00000000000E+00  0.00000000000E+00  0.31631550747E+03  0.31631550747E+03  0.00000000000E+00 0.  1.
          2   -1    0    0  501    0  0.00000000000E+00 -0.00000000000E+00 -0.16136438604E+03  0.16136438604E+03  0.00000000000E+00 0. -1.
         25    2    1    2    0    0  0.61964109087E+02  0.35785135028E+02 -0.11456954236E+03  0.18409856599E+03  0.12508387289E+03 0.  0.
          5    1    3    3  502    0  0.87692082405E+02  0.25580376169E+02 -0.12443354234E+03  0.15441967433E+03  0.41800000000E+01 0. -1.
         -5    1    3    3    0  502 -0.25727973319E+02  0.10204758859E+02  0.98639999757E+01  0.29678891657E+02  0.41800000000E+01 0. -1.
        -11    1    1    2    0    0 -0.52545766774E+02 -0.60271840577E+02  0.13819692074E+03  0.15966258571E+03  0.00000000000E+00 0. -1.
         11    1    1    2    0    0 -0.94183423124E+01  0.24486705549E+02  0.13132374305E+03  0.13391874181E+03  0.00000000000E+00 0.  1.
</event>
<event>
 7    1  0.2648915E-009  0.1540235E+03  0.7561462E-02  0.1195614E+00
         -2   -1    0    0    0  501 -0.00000000000E+00  0.00000000000E+00  0.49156366297E+02  0.49156366297E+02  0.00000000000E+00 0.  1.
          2   -1    0    0  501    0  0.00000000000E+00 -0.00000000000E+00 -0.59357411395E+03  0.59357411395E+03  0.00000000000E+00 0. -1.
         25    2    1    2    0    0 -0.54390351613E+02 -0.11554804042E+03 -0.23358544707E+03  0.29414138268E+03  0.12508929583E+03 0.  0.
          5    1    3    3  502    0 -0.80258911786E+02 -0.89122036593E+02 -0.10233062530E+03  0.15771258543E+03  0.41800000000E+01 0. -1.
         -5    1    3    3    0  502  0.25868560173E+02 -0.26426003825E+02 -0.13125482176E+03  0.13642879725E+03  0.41800000000E+01 0. -1.
        -11    1    1    2    0    0 -0.16333454720E+02  0.56115916721E+02 -0.73451828545E+02  0.93866655256E+02  0.00000000000E+00 0.  1.
         11    1    1    2    0    0  0.70723806333E+02  0.59432123697E+02 -0.23738047204E+03  0.25472244231E+03  0.00000000000E+00 0. -1.
</event>
<event>
 7    1  0.2648915E-009  0.1252808E+03  0.7561462E-02  0.1234631E+00
         -2   -1    0    0    0  501 -0.00000000000E+00  0.00000000000E+00  0.44365883097E+03  0.44365883097E+03  0.00000000000E+00 0.  1.
          2   -1    0    0  501    0  0.00000000000E+00 -0.00000000000E+00 -0.51222649244E+02  0.51222649244E+02  0.00000000000E+00 0. -1.
         25    2    1    2    0    0  0.16085290103E+02  0.73119835972E+02  0.33262401456E+03  0.36317031485E+03  0.12509474630E+03 0.  0.
          5    1    3    3  502    0  0.63487261556E+02  0.37890381616E+02  0.25505117121E+03  0.26558404646E+03  0.41800000000E+01 0.  1.
         -5    1    3    3    0  502 -0.47401971453E+02  0.35229454356E+02  0.77572843357E+02  0.97586268390E+02  0.41800000000E+01 0.  1.
        -11    1    1    2    0    0 -0.49713342233E+02 -0.18270955116E+02  0.25182862376E+02  0.58646574958E+02  0.00000000000E+00 0.  1.
         11    1    1    2    0    0  0.33628052130E+02 -0.54848880857E+02  0.34629304784E+02  0.73064590405E+02  0.00000000000E+00 0. -1.
</event>
<event>
 7    1  0.2648915E-009  0.1062655E+03  0.7561462E-02  0.1267646E+00
         -2   -1    0    0    0  501 -0.00000000000E+00  0.00000000000E+00  0.17333872380E+02  0.17333872380E+02  0.00000000000E+00 0.  1.
          2   -1    0    0  501    0  0.00000000000E+00 -0.00000000000E+00 -0.78610542304E+03  0.78610542304E+03  0.00000000000E+00 0. -1.
         25    2    1    2    0    0 -0.17825495123E+02 -0.44174700918E+02 -0.43032754075E+03  0.45066456125E+03  0.12509037518E+03 0.  0.
          5    1    3    3  502    0 -0.62781208118E+02 -0.34787896643E+02 -0.14735781601E+03  0.16396181319E+03  0.41800000000E+01 0.  1.
         -5    1    3    3    0  502  0.44955712994E+02 -0.93868042743E+01 -0.28296972475E+03  0.28670274807E+03  0.41800000000E+01 0.  1.
        -11    1    1    2    0    0 -0.78061616946E+01  0.62515723829E+02 -0.16764721617E+03  0.17909422374E+03  0.00000000000E+00 0.  1.
         11    1    1    2    0    0  0.25631656818E+02 -0.18341022911E+02 -0.17079679373E+03  0.17368051043E+03  0.00000000000E+00 0. -1.
</event>
<event>
 7    1  0.2648915E-009  0.1096701E+03  0.7561462E-02  0.1261182E+00
          2   -1    0    0  501    0  0.00000000000E+00  0.00000000000E+00  0.13135899181E+03  0.13135899181E+03  0.00000000000E+00 0. -1.
         -2   -1    0    0    0  501 -0.00000000000E+00 -0.00000000000E+00 -0.10735856939E+03  0.10735856939E+03  0.00000000000E+00 0.  1.
         25    2    1    2    0    0  0.70166585821E+02  0.41771931330E+02  0.77044638975E+01  0.14958183474E+03  0.12508845873E+03 0.  0.
          5    1    3    3  502    0 -0.21279420060E+01 -0.33031761970E+02  0.27943842954E+02  0.43519607019E+02  0.41800000000E+01 0. -1.
         -5    1    3    3    0  502  0.72294527827E+02  0.74803693300E+02 -0.20239379057E+02  0.10606222772E+03  0.41800000000E+01 0. -1.
        -11    1    1    2    0    0 -0.37827043380E+02 -0.19155621871E+02 -0.74918014114E+01  0.43057521393E+02  0.00000000000E+00 0.  1.
         11    1    1    2    0    0 -0.32339542441E+02 -0.22616309459E+02  0.23787759943E+02  0.46078205065E+02  0.00000000000E+00 0. -1.
</event>
<event>
 7    1  0.2648915E-009  0.1422988E+03  0.7561462E-02  0.1210269E+00
          2   -1    0    0  501    0  0.00000000000E+00  0.00000000000E+00  0.89883356077E+03  0.89883356077E+03  0.00000000000E+00 0. -1.
         -2   -1    0    0    0  501 -0.00000000000E+00 -0.00000000000E+00 -0.27464362345E+02  0.27464362345E+02  0.00000000000E+00 0.  1.
         25    2    1    2    0    0 -0.24875804814E+01  0.11319542285E+03  0.45569074943E+03  0.48592758514E+03  0.12510862109E+03 0.  0.
          5    1    3    3  502    0 -0.31584675133E+02 -0.10122209647E+02  0.44626618108E+02  0.55758930003E+02  0.41800000000E+01 0.  1.
         -5    1    3    3    0  502  0.29097094651E+02  0.12331763249E+03  0.41106413132E+03  0.43016865514E+03  0.41800000000E+01 0.  1.
        -11    1    1    2    0    0 -0.21111502022E+02 -0.85218424037E+02  0.37712820612E+03  0.38721255037E+03  0.00000000000E+00 0. -1.
         11    1    1    2    0    0  0.23599082503E+02 -0.27976998809E+02  0.38550242869E+02  0.53157787601E+02  0.00000000000E+00 0.  1.
</event>
<event>
 7    1  0.2648915E-009  0.1303355E+03  0.7561462E-02  0.1226959E+00
         -2   -1    0    0    0  501 -0.00000000000E+00  0.00000000000E+00  0.10494948869E+03  0.10494948869E+03  0.00000000000E+00 0. -1.
          2   -1    0    0  501    0  0.00000000000E+00 -0.00000000000E+00 -0.19851376294E+03  0.19851376294E+03  0.00000000000E+00 0.  1.
         25    2    1    2    0    0 -0.52076013971E+02  0.61290606132E+02 -0.22161199138E+01  0.14873013772E+03  0.12508914040E+03 0.  0.
          5    1    3    3  502    0 -0.16832397579E+02  0.89052221617E+02 -0.30281686165E+02  0.95645599482E+02  0.41800000000E+01 0.  1.
         -5    1    3    3    0  502 -0.35243616392E+02 -0.27761615485E+02  0.28065566251E+02  0.53084538236E+02  0.41800000000E+01 0.  1.
        -11    1    1    2    0    0  0.48256786428E+00 -0.72159444035E+02 -0.52136372076E+02  0.89024825349E+02  0.00000000000E+00 0. -1.
         11    1    1    2    0    0  0.51593446106E+02  0.10868837903E+02 -0.39211782252E+02  0.65708288563E+02  0.00000000000E+00 0.  1.
</event>
<event>
 7    1  0.2648915E-009  0.1321555E+03  0.7561462E-02  0.1224292E+00
          2   -1    0    0  501    0  0.00000000000E+00  0.00000000000E+00  0.96052813455E+03  0.96052813455E+03  0.00000000000E+00 0. -1.
         -2   -1    0    0    0  501 -0.00000000000E+00 -0.00000000000E+00 -0.24304782449E+02  0.24304782449E+02  0.00000000000E+00 0.  1.
         25    2    1    2    0    0 -0.62961557295E+02 -0.44226073396E+02  0.75121765763E+03  0.76543511799E+03  0.12507136942E+03 0.  0.
          5    1    3    3  502    0 -0.18259256400E+02 -0.84453318019E+02  0.45295797697E+03  0.46114440761E+03  0.41800000000E+01 0. -1.
         -5    1    3    3    0  502 -0.44702300895E+02  0.40227244623E+02  0.29825968067E+03  0.30429071038E+03  0.41800000000E+01 0. -1.
        -11    1    1    2    0    0 -0.22948743155E+02  0.10345597794E+02  0.32476446090E+02  0.41090093170E+02  0.00000000000E+00 0.  1.
         11    1    1    2    0    0  0.85910300450E+02  0.33880475602E+02  0.15252924837E+03  0.17830770583E+03  0.00000000000E+00 0. -1.
</event>
<event>
 7    1  0.3457223E-009  0.1281757E+03  0.7561462E-02  0.1230188E+00
         -1   -1    0    0    0  501 -0.00000000000E+00  0.00000000000E+00  0.29164118507E+02  0.29164118507E+02  0.00000000000E+00 0.  1.
          1   -1    0    0  501    0  0.00000000000E+00 -0.00000000000E+00 -0.76685166890E+03  0.76685166890E+03  0.00000000000E+00 0. -1.
         25    2    1    2    0    0  0.25233548277E+02  0.81351693170E+02 -0.24659529981E+03  0.28932712340E+03  0.12508442151E+03 0.  0.
          5    1    3    3  502    0  0.15392212182E+02 -0.27088265883E+02 -0.18334344889E+02  0.36391138302E+02  0.41800000000E+01 0.  1.
         -5    1    3    3    0  502  0.98413360948E+01  0.10843995905E+03 -0.22826095492E+03  0.25293598510E+03  0.41800000000E+01 0.  1.
        -11    1    1    2    0    0  0.28250740400E+02 -0.36454685233E+02 -0.11042156268E+03  0.11966607671E+03  0.00000000000E+00 0.  1.
         11    1    1    2    0    0 -0.53484288676E+02 -0.44897007938E+02 -0.38067068791E+03  0.38702258731E+03  0.00000000000E+00 0. -1.
</event>
<event>
 7    1  0.2648915E-009  0.9919866E+02  0.7561462E-02  0.1281990E+00
         -1   -1    0    0    0  501 -0.00000000000E+00  0.00000000000E+00  0.55675684781E+02  0.55675684781E+02  0.00000000000E+00 0.  1.
          1   -1    0    0  501    0  0.00000000000E+00 -0.00000000000E+00 -0.33464822930E+03  0.33464822930E+03  0.00000000000E+00 0. -1.
         25    2    1    2    0    0  0.11621628222E+02 -0.66325618910E+02 -0.84554181525E+02  0.16531863298E+03  0.12508673323E+03 0.  0.
          5    1    3    3  502    0  0.58192493519E+01  0.84370902329E+01  0.27942795089E+02  0.30055288254E+02  0.41800000000E+01 0. -1.
         -5    1    3    3    0  502  0.58023788704E+01 -0.74762709143E+02 -0.11249697661E+03  0.13526334473E+03  0.41800000000E+01 0. -1.
        -11    1    1    2    0    0  0.16856210169E+02 -0.17136723575E+02 -0.30121667297E+02  0.38537176297E+02  0.00000000000E+00 0.  1.
         11    1    1    2    0    0 -0.28477838392E+02  0.83462342486E+02 -0.16429669569E+03  0.18646810480E+03  0.00000000000E+00 0. -1.
</event>
<event>
 7    1  0.2648915E-009  0.2231929E+03  0.7561462E-02  0.1131525E+00
         -2   -1    0    0    0  501 -0.00000000000E+00  0.00000000000E+00  0.42367866083E+02  0.42367866083E+02  0.00000000000E+00 0.  1.
          2   -1    0    0  501    0  0.00000000000E+00 -0.00000000000E+00 -0.12423844136E+04  0.12423844136E+04  0.00000000000E+00 0. -1.
         25    2    1    2    0    0  0.13205499107E+03  0.15200106257E+03 -0.59782688397E+03  0.64310875135E+03  0.12509611974E+03 0.  0.
          5    1    3    3  502    0  0.11239711118E+03  0.53470309554E+02 -0.22733103312E+03  0.25920851766E+03  0.41800000000E+01 0. -1.
         -5    1    3    3    0  502  0.19657879885E+02  0.98530753021E+02 -0.37049585084E+03  0.38390023369E+03  0.41800000000E+01 0. -1.
        -11    1    1    2    0    0 -0.21718845220E+02  0.11085458651E+02 -0.57534258039E+02  0.62488290737E+02  0.00000000000E+00 0. -1.
         11    1    1    2    0    0 -0.11033614585E+03 -0.16308652123E+03 -0.54465540552E+03  0.57915523761E+03  0.00000000000E+00 0.  1.
</event>
<event>
 7    1  0.2648915E-009  0.9596663E+02  0.7561462E-02  0.1289014E+00
          2   -1    0    0  501    0  0.00000000000E+00  0.00000000000E+00  0.22299919805E+03  0.22299919805E+03  0.00000000000E+00 0. -1.
         -2   -1    0    0    0  501 -0.00000000000E+00 -0.00000000000E+00 -0.58264442121E+02  0.58264442121E+02  0.00000000000E+00 0.  1.
         25    2    1    2    0    0  0.99204494275E+00 -0.39491692516E+02  0.11362789755E+03  0.17355139071E+03  0.12509279830E+03 0.  0.
          5    1    3    3  502    0 -0.60552603432E+02 -0.89215806449E+01  0.42981224785E+02  0.74907078889E+02  0.41800000000E+01 0. -1.
         -5    1    3    3    0  502  0.61544648375E+02 -0.30570111871E+02  0.70646672760E+02  0.98644311825E+02  0.41800000000E+01 0. -1.
        -11    1    1    2    0    0  0.21686805279E+02  0.30314765468E+02 -0.12698647866E+02  0.39377127704E+02  0.00000000000E+00 0.  1.
         11    1    1    2    0    0 -0.22678850222E+02  0.91769270474E+01  0.63805506252E+02  0.68335121756E+02  0.00000000000E+00 0. -1.
</event>
<event>
 7    1  0.2648915E-009  0.1483419E+03  0.7561462E-02  0.1202525E+00
          1   -1    0    0  501    0  0.00000000000E+00  0.00000000000E+00  0.12510184839E+03  0.12510184839E+03  0.00000000000E+00 0. -1.
         -1   -1    0    0    0  501 -0.00000000000E+00 -0.00000000000E+00 -0.26818890830E+03  0.26818890830E+03  0.00000000000E+00 0.  1.
         25    2    1    2    0    0  0.11584080211E+03 -0.22452571681E+02 -0.17100111812E+03  0.24251348840E+03  0.12509276656E+03 0.  0.
          5    1    3    3  502    0  0.10523523330E+03 -0.55980664829E+02 -0.16925424731E+03  0.20705738769E+03  0.41800000000E+01 0.  1.
         -5    1    3    3    0  502  0.10605568808E+02  0.33528093148E+02 -0.17468708115E+01  0.35456100710E+02  0.41800000000E+01 0.  1.
        -11    1    1    2    0    0 -0.10344694073E+02 -0.24448515482E+02  0.23156561584E+02  0.35227389190E+02  0.00000000000E+00 0.  1.
         11    1    1    2    0    0 -0.10549610804E+03  0.46901087162E+02  0.47574966332E+01  0.11554987911E+03  0.00000000000E+00 0. -1.
</event>
<event>
 7    1  0.2648915E-009  0.1789266E+03  0.7561462E-02  0.1168846E+00
         -1   -1    0    0    0  501 -0.00000000000E+00  0.00000000000E+00  0.28395392553E+02  0.28395392553E+02  0.00000000000E+00 0.  1.
          1   -1    0    0  501    0  0.00000000000E+00 -0.00000000000E+00 -0.20952346722E+04  0.20952346722E+04  0.00000000000E+00 0. -1.
         25    2    1    2    0    0 -0.28874008048E+02 -0.14411600039E+03 -0.17613604347E+04  0.17719032249E+04  0.12508927873E+03 0.  0.
          5    1    3    3  502    0 -0.70751700508E+02 -0.99719335672E+02 -0.88582791655E+03  0.89423616521E+03  0.41800000000E+01 0.  1.
         -5    1    3    3    0  502  0.41877692461E+02 -0.44396664717E+02 -0.87553251818E+03  0.87766705974E+03  0.41800000000E+01 0.  1.
        -11    1    1    2    0    0 -0.34557230868E+02  0.54921430253E+02 -0.11295964411E+03  0.13027066786E+03  0.00000000000E+00 0. -1.
         11    1    1    2    0    0  0.63431238915E+02  0.89194570137E+02 -0.19251920080E+03  0.22145617193E+03  0.00000000000E+00 0.  1.
</event>
<event>
 7    1  0.2648915E-009  0.9462890E+02  0.7561462E-02  0.1292014E+00
          1   -1    0    0  501    0  0.00000000000E+00  0.00000000000E+00  0.16894515470E+03  0.16894515470E+03  0.00000000000E+00 0. -1.
         -1   -1    0    0    0  501 -0.00000000000E+00 -0.00000000000E+00 -0.74525792455E+02  0.74525792455E+02  0.00000000000E+00 0.  1.
         25    2    1    2    0    0  0.61448823682E+01 -0.25363549966E+02  0.19262437376E+02  0.12922130918E+03  0.12508411572E+03 0.  0.
          5    1    3    3  502    0  0.41054224344E+02 -0.59699625064E+02  0.30641675256E+02  0.78777403053E+02  0.41800000000E+01 0.  1.
         -5    1    3    3    0  502 -0.34909341976E+02  0.34336075097E+02 -0.11379237880E+02  0.50443906124E+02  0.41800000000E+01 0.  1.
        -11    1    1    2    0    0 -0.28253758867E+02  0.33641881687E+02  0.78939136026E+02  0.90340679043E+02  0.00000000000E+00 0. -1.
         11    1    1    2    0    0  0.22108876498E+02 -0.82783317203E+01 -0.37822111570E+01  0.23908958934E+02  0.00000000000E+00 0.  1.
</event>
<event>
 7    1  0.2648915E-009  0.2282392E+03  0.7561462E-02  0.1127885E+00
         -2   -1    0    0    0  501 -0.00000000000E+00  0.00000000000E+00  0.16414540964E+03  0.16414540964E+03  0.00000000000E+00 0.  1.
          2   -1    0    0  501    0  0.00000000000E+00 -0.00000000000E+00 -0.32332932926E+03  0.32332932926E+03  0.00000000000E+00 0. -1.
         25    2    1    2    0    0 -0.12561828524E+03 -0.15443895955E+03 -0.95657659600E+02  0.25382765607E+03  0.12508695108E+03 0.  0.
          5    1    3    3  502    0 -0.41703074626E+02  0.14970486127E+02 -0.29917259560E+02  0.53626268822E+02  0.41800000000E+01 0.  1.
         -5    1    3    3    0  502 -0.83915210617E+02 -0.16940944568E+03 -0.65740400040E+02  0.20020138725E+03  0.41800000000E+01 0.  1.
        -11    1    1    2    0    0  0.12003895673E+03  0.71444552244E+02 -0.24732661138E+02  0.14186394787E+03  0.00000000000E+00 0. -1.
         11    1    1    2    0    0  0.55793285150E+01  0.82994407306E+02 -0.38793598878E+02  0.91783134968E+02  0.00000000000E+00 0.  1.
</event>
<event>
 7    1  0.2648915E-009  0.6864955E+02  0.7561462E-02  0.1364746E+00
          3   -1    0    0  501    0  0.00000000000E+00  0.00000000000E+00  0.75197906630E+02  0.75197906630E+02  0.00000000000E+00 0. -1.
         -3   -1    0    0    0  501 -0.00000000000E+00 -0.00000000000E+00 -0.19017773376E+03  0.19017773376E+03  0.00000000000E+00 0.  1.
         25    2    1    2    0    0  0.22368768195E+02 -0.31555554869E+02 -0.10200013921E+03  0.16597589817E+03  0.12509138875E+03 0.  0.
          5    1    3    3  502    0 -0.24207526902E+02 -0.17362625692E+02  0.18931212509E+02  0.35543330411E+02  0.41800000000E+01 0.  1.
         -5    1    3    3    0  502  0.46576295097E+02 -0.14192929176E+02 -0.12093135172E+03  0.13043256776E+03  0.41800000000E+01 0.  1.
        -11    1    1    2    0    0 -0.27484608962E+02  0.11441963327E+01  0.33669816635E+02  0.43478379308E+02  0.00000000000E+00 0. -1.
         11    1    1    2    0    0  0.51158407678E+01  0.30411358536E+02 -0.46649504562E+02  0.55921362918E+02  0.00000000000E+00 0.  1.
</event>
<event>
 7    1  0.2648915E-009  0.1099813E+03  0.7561462E-02  0.1260605E+00
          1   -1    0    0  501    0  0.00000000000E+00  0.00000000000E+00  0.57541278749E+03  0.57541278749E+03  0.00000000000E+00 0. -1.
         -1   -1    0    0    0  501 -0.00000000000E+00 -0.00000000000E+00 -0.23336636873E+02  0.23336636873E+02  0.00000000000E+00 0.  1.
         25    2    1    2    0    0 -0.26505608606E+02 -0.45372574004E+01  0.34286859108E+03  0.36596332610E+03  0.12508857386E+03 0.  0.
          5    1    3    3  502    0 -0.67830374278E+02 -0.33770253362E+02  0.17953083326E+03  0.19491070309E+03  0.41800000000E+01 0. -1.
         -5    1    3    3    0  502  0.41324765672E+02  0.29232995962E+02  0.16333775782E+03  0.17105262301E+03  0.41800000000E+01 0. -1.
        -11    1    1    2    0    0 -0.66493425654E+01  0.42422061066E+02  0.14482757437E+03  0.15105916497E+03  0.00000000000E+00 0. -1.
         11    1    1    2    0    0  0.33154951172E+02 -0.37884803665E+02  0.64379985163E+02  0.81726933293E+02  0.00000000000E+00 0.  1.
</event>
<event>
 7    1  0.2648915E-009  0.1110264E+03  0.7561462E-02  0.1258681E+00
          3   -1    0    0  501    0  0.00000000000E+00  0.00000000000E+00  0.97135753926E+03  0.97135753926E+03  0.00000000000E+00 0. -1.
         -3   -1    0    0    0  501 -0.00000000000E+00 -0.00000000000E+00 -0.13159779265E+02  0.13159779265E+02  0.00000000000E+00 0.  1.
         25    2    1    2    0    0  0.21576762881E+02  0.20943619106E+02  0.63479383790E+03  0.64770010081E+03  0.12509201444E+03 0.  0.
          5    1    3    3  502    0 -0.10232680899E+02 -0.49501648136E+02  0.28049258335E+03  0.28504154547E+03  0.41800000000E+01 0.  1.
         -5    1    3    3    0  502  0.31809443780E+02  0.70445267242E+02  0.35430125455E+03  0.36265855534E+03  0.41800000000E+01 0.  1.
        -11    1    1    2    0    0  0.22929664307E+02  0.22217131140E+02  0.10026578000E+03  0.10522640857E+03  0.00000000000E+00 0. -1.
         11    1    1    2    0    0 -0.44506427189E+02 -0.43160750246E+02  0.22313814209E+03  0.23159080914E+03  0.00000000000E+00 0.  1.
</event>
<event>
 7    1  0.2648915E-009  0.1482776E+03  0.7561462E-02  0.1202606E+00
         -1   -1    0    0    0  501 -0.00000000000E+00  0.00000000000E+00  0.36750242412E+03  0.36750242412E+03  0.00000000000E+00 0.  1.
          1   -1    0    0  501    0  0.00000000000E+00 -0.00000000000E+00 -0.68851982039E+02  0.68851982039E+02  0.00000000000E+00 0. -1.
         25    2    1    2    0    0 -0.59605356156E+02 -0.95757758000E+02  0.19416152217E+03  0.25703760266E+03  0.12508911140E+03 0.  0.
          5    1    3    3  502    0  0.21840927978E+02 -0.59697750647E+02  0.13708696470E+03  0.15116598777E+03  0.41800000000E+01 0.  1.
         -5    1    3    3    0  502 -0.81446284134E+02 -0.36060007353E+02  0.57074557475E+02  0.10587161490E+03  0.41800000000E+01 0.  1.
        -11    1    1    2    0    0  0.65470409860E+02  0.21091459047E+02  0.35120124187E+02  0.77231129312E+02  0.00000000000E+00 0.  1.
         11    1    1    2    0    0 -0.58650537039E+01  0.74666298953E+02  0.69368795727E+02  0.10208567419E+03  0.00000000000E+00 0. -1.
</event>
<event>
 7    1  0.2648915E-009  0.1134840E+03  0.7561462E-02  0.1254251E+00
          4   -1    0    0  501    0  0.00000000000E+00  0.00000000000E+00  0.16261832526E+02  0.16261832526E+02  0.00000000000E+00 0. -1.
         -4   -1    0    0    0  501 -0.00000000000E+00 -0.00000000000E+00 -0.92162749066E+03  0.92162749066E+03  0.00000000000E+00 0.  1.
         25    2    1    2    0    0  0.34688203010E+02 -0.37795835327E+02 -0.59628678656E+03  0.61142226849E+03  0.12508981564E+03 0.  0.
          5    1    3    3  502    0 -0.44606008001E+02 -0.33004687477E+02 -0.24258192482E+03  0.24888243810E+03  0.41800000000E+01 0.  1.
         -5    1    3    3    0  502  0.79294211011E+02 -0.47911478501E+01 -0.35370486174E+03  0.36253983039E+03  0.41800000000E+01 0.  1.
        -11    1    1    2    0    0 -0.26593973270E+02 -0.20086776613E+02 -0.44997582549E+02  0.55995539503E+02  0.00000000000E+00 0. -1.
         11    1    1    2    0    0 -0.80942297395E+01  0.57882611941E+02 -0.26408128903E+03  0.27047151520E+03  0.00000000000E+00 0.  1.
</event>
<event>
 7    1  0.2752259E-009  0.8989902E+02  0.7561462E-02  0.1303096E+00
          2   -1    0    0  501    0  0.00000000000E+00  0.00000000000E+00  0.50205114267E+02  0.50205114267E+02  0.00000000000E+00 0. -1.
         -2   -1    0    0    0  501 -0.00000000000E+00 -0.00000000000E+00 -0.30955298702E+03  0.30955298702E+03  0.00000000000E+00 0.  1.
         25    2    1    2    0    0 -0.31566236748E+02 -0.22062567323E+01 -0.68832341739E+02  0.14624491453E+03  0.12509352056E+03 0.  0.
          5    1    3    3  502    0 -0.13874048342E+02 -0.54651184043E+02  0.16091281047E+01  0.56562379971E+02  0.41800000000E+01 0. -1.
         -5    1    3    3    0  502 -0.17692188406E+02  0.52444927311E+02 -0.70441469844E+02  0.89682534559E+02  0.41800000000E+01 0. -1.
        -11    1    1    2    0    0  0.43514593895E+02 -0.15670341318E+02 -0.18584001551E+03  0.19150872263E+03  0.00000000000E+00 0.  1.
         11    1    1    2    0    0 -0.11948357146E+02  0.17876598050E+02 -0.46755155056E+01  0.22004464129E+02  0.00000000000E+00 0. -1.
</event>
<event>
 7    1  0.2648915E-009  0.6128542E+02  0.7561462E-02  0.1392515E+00
         -3   -1    0    0    0  501 -0.00000000000E+00  0.00000000000E+00  0.10401846110E+03  0.10401846110E+03  0.00000000000E+00 0.  1.
          3   -1    0    0  501    0  0.00000000000E+00 -0.00000000000E+00 -0.11178673622E+03  0.11178673622E+03  0.00000000000E+00 0. -1.
         25    2    1    2    0    0  0.11442921651E+02  0.10013261153E+02 -0.37716883797E+01  0.12607011243E+03  0.12509293250E+03 0.  0.
          5    1    3    3  502    0  0.23044443292E+01 -0.19240050039E+02 -0.59290368743E+02  0.62516479547E+02  0.41800000000E+01 0. -1.
         -5    1    3    3    0  502  0.91384773223E+01  0.29253311192E+02  0.55518680364E+02  0.63553632884E+02  0.41800000000E+01 0. -1.
        -11    1    1    2    0    0  0.13135606894E+02  0.25466620617E+02  0.24760805860E+02  0.37870706898E+02  0.00000000000E+00 0.  1.
         11    1    1    2    0    0 -0.24578528546E+02 -0.35479881769E+02 -0.28757392602E+02  0.51864377998E+02  0.00000000000E+00 0. -1.
</event>
<event>
 7    1  0.2648915E-009  0.1027905E+03  0.7561462E-02  0.1274535E+00
         -2   -1    0    0    0  501 -0.00000000000E+00  0.00000000000E+00  0.15999901324E+02  0.15999901324E+02  0.00000000000E+00 0. -1.
          2   -1    0    0  501    0  0.00000000000E+00 -0.00000000000E+00 -0.11534739687E+04  0.11534739687E+04  0.00000000000E+00 0.  1.
         25    2    1    2    0    0  0.44329275626E+02 -0.66512426484E+02 -0.59384569552E+03  0.61211878852E+03  0.12509082145E+03 0.  0.
          5    1    3    3  502    0  0.21885685922E+02  0.19932962474E+01 -0.11203367766E+02  0.25018879422E+02  0.41800000000E+01 0. -1.
         -5    1    3    3    0  502  0.22443589704E+02 -0.68505722731E+02 -0.58264232776E+03  0.58709990910E+03  0.41800000000E+01 0. -1.
        -11    1    1    2    0    0 -0.27783848270E+02 -0.12362079642E+02 -0.62291431421E+02  0.69318003911E+02  0.00000000000E+00 0. -1.
         11    1    1    2    0    0 -0.16545427356E+02  0.78874506126E+02 -0.48133694041E+03  0.48803707758E+03  0.00000000000E+00 0.  1.
</event>
<event>
 7    1  0.2648915E-009  0.1052007E+03  0.7561462E-02  0.1269725E+00
          3   -1    0    0  501    0  0.00000000000E+00  0.00000000000E+00  0.15373168717E+03  0.15373168717E+03  0.00000000000E+00 0. -1.
         -3   -1    0    0    0  501 -0.00000000000E+00 -0.00000000000E+00 -0.97431652403E+02  0.97431652403E+02  0.00000000000E+00 0.  1.
         25    2    1    2    0    0  0.52542879862E+02 -0.18322814428E+02  0.23381279801E+02  0.13889052947E+03  0.12508962858E+03 0.  0.
          5    1    3    3  502    0 -0.37155008526E+02 -0.70011529690E+01  0.29558936445E+02  0.48173788778E+02  0.41800000000E+01 0. -1.
         -5    1    3    3    0  502  0.89697888388E+02 -0.11321661459E+02 -0.61776566440E+01  0.90716740688E+02  0.41800000000E+01 0. -1.
        -11    1    1    2    0    0 -0.31582932090E+02 -0.20558717887E+02 -0.20545943046E+02  0.42921769024E+02  0.00000000000E+00 0.  1.
         11    1    1    2    0    0 -0.20959947773E+02  0.38881532314E+02  0.53464698010E+02  0.69351041081E+02  0.00000000000E+00 0. -1.
</event>
<event>
 7    1  0.2648915E-009  0.1099468E+03  0.7561462E-02  0.1260668E+00
         -1   -1    0    0    0  501 -0.00000000000E+00  0.00000000000E+00  0.23999499295E+03  0.23999499295E+03  0.00000000000E+00 0.  1.
          1   -1    0    0  501    0  0.00000000000E+00 -0.00000000000E+00 -0.91974660710E+02  0.91974660710E+02  0.00000000000E+00 0. -1.
         25    2    1    2    0    0  0.78060189153E+01 -0.22917770423E+02  0.16453418282E+03  0.20810029821E+03  0.12509228061E+03 0.  0.
          5    1    3    3  502    0 -0.22091326946E+02  0.36016216175E+02  0.15817614080E+02  0.45308540795E+02  0.41800000000E+01 0.  1.
         -5    1    3    3    0  502  0.29897345861E+02 -0.58933986597E+02  0.14871656874E+03  0.16279175742E+03  0.41800000000E+01 0.  1.
        -11    1    1    2    0    0  0.40081527472E+01 -0.43538019987E+02  0.18915252047E+02  0.47638337847E+02  0.00000000000E+00 0.  1.
         11    1    1    2    0    0 -0.11814171662E+02  0.66455790410E+02 -0.35429102627E+02  0.76231017598E+02  0.00000000000E+00 0. -1.
</event>
<event>
 7    1  0.2648915E-009  0.1216863E+03  0.7561462E-02  0.1240341E+00
         -1   -1    0    0    0  501 -0.00000000000E+00  0.00000000000E+00  0.12364054437E+03  0.12364054437E+03  0.00000000000E+00 0. -1.
          1   -1    0    0  501    0  0.00000000000E+00 -0.00000000000E+00 -0.14562247522E+03  0.14562247522E+03  0.00000000000E+00 0.  1.
         25    2    1    2    0    0  0.70276163861E+02 -0.34782472454E+02 -0.17524052973E+02  0.14867090934E+03  0.12508951697E+03 0.  0.
          5    1    3    3  502    0  0.40036766283E+02  0.32286331556E+02  0.31226536332E+02  0.60315162531E+02  0.41800000000E+01 0. -1.
         -5    1    3    3    0  502  0.30239397578E+02 -0.67068804010E+02 -0.48750589305E+02  0.88355746813E+02  0.41800000000E+01 0. -1.
        -11    1    1    2    0    0  0.19151616995E+02  0.19544893307E+02  0.91655994725E+01  0.28858196437E+02  0.00000000000E+00 0. -1.
         11    1    1    2    0    0 -0.89427780857E+02  0.15237579147E+02 -0.13623477346E+02  0.91733913806E+02  0.00000000000E+00 0.  1.
</event>
<event>
 7    1  0.2648915E-009  0.1251853E+03  0.7561462E-02  0.1234780E+00
          2   -1    0    0  501    0  0.00000000000E+00  0.00000000000E+00  0.43652529947E+03  0.43652529947E+03  0.00000000000E+00 0. -1.
         -2   -1    0    0    0  501 -0.00000000000E+00 -0.00000000000E+00 -0.56445472842E+02  0.56445472842E+02  0.00000000000E+00 0.  1.
         25    2    1    2    0    0 -0.23884166610E+02 -0.68251841347E+02  0.33988112836E+03  0.36931765768E+03  0.12509030176E+03 0.  0.
          5    1    3    3  502    0 -0.72946236230E+02 -0.23691783439E+02  0.20640066663E+03  0.22022979264E+03  0.41800000000E+01 0. -1.
         -5    1    3    3    0  502  0.49062069620E+02 -0.44560057908E+02  0.13348046173E+03  0.14908786503E+03  0.41800000000E+01 0. -1.
        -11    1    1    2    0    0  0.53129814755E+02  0.40179199437E+02  0.48341714680E+02  0.82304718343E+02  0.00000000000E+00 0. -1.
         11    1    1    2    0    0 -0.29245648145E+02  0.28072641910E+02 -0.81430164177E+01  0.41348396288E+02  0.00000000000E+00 0.  1.
</event>
<event>
 7    1  0.2648915E-009  0.9199196E+02  0.7561462E-02  0.1298098E+00
         -2   -1    0    0    0  501 -0.00000000000E+00  0.00000000000E+00  0.56323337298E+03  0.56323337298E+03  0.00000000000E+00 0.  1.
          2   -1    0    0  501    0  0.00000000000E+00 -0.00000000000E+00 -0.24311027059E+02  0.24311027059E+02  0.00000000000E+00 0. -1.
         25    2    1    2    0    0 -0.45868829715E+01 -0.44124076321E+02  0.25871846076E+03  0.29077632211E+03  0.12509058300E+03 0.  0.
          5    1    3    3  502    0  0.32681730238E+02  0.17456385410E+02  0.18084852517E+03  0.18465232828E+03  0.41800000000E+01 0.  1.
         -5    1    3    3    0  502 -0.37268613210E+02 -0.61580461731E+02  0.77869935583E+02  0.10612399382E+03  0.41800000000E+01 0.  1.
        -11    1    1    2    0    0  0.86852206379E+01 -0.13920141110E+02  0.77064518132E+01  0.18127128444E+02  0.00000000000E+00 0. -1.
         11    1    1    2    0    0 -0.40983376665E+01  0.58044217432E+02  0.27249743335E+03  0.27864094949E+03  0.00000000000E+00 0.  1.
</event>
<event>
 7    1  0.2648915E-009  0.2631005E+03  0.7561462E-02  0.1105295E+00
          3   -1    0    0  501    0  0.00000000000E+00  0.00000000000E+00  0.14329529241E+04  0.14329529241E+04  0.00000000000E+00 0. -1.
         -3   -1    0    0    0  501 -0.00000000000E+00 -0.00000000000E+00 -0.74173431907E+02  0.74173431907E+02  0.00000000000E+00 0.  1.
         25    2    1    2    0    0 -0.20271674262E+03 -0.12789512126E+03  0.24772232060E+03  0.36669508475E+03  0.12509075616E+03 0.  0.
          5    1    3    3  502    0 -0.19150656932E+03 -0.15109742018E+03  0.21853478959E+03  0.32753644551E+03  0.41800000000E+01 0. -1.
         -5    1    3    3    0  502 -0.11210173301E+02  0.23202298920E+02  0.29187531012E+02  0.39158639241E+02  0.41800000000E+01 0. -1.
        -11    1    1    2    0    0  0.57731396685E+02  0.88873509823E+02  0.40991867422E+03  0.42339666318E+03  0.00000000000E+00 0.  1.
         11    1    1    2    0    0  0.14498534593E+03  0.39021611435E+02  0.70113849740E+03  0.71703460811E+03  0.00000000000E+00 0. -1.
</event>
<event>
 7    1  0.2648915E-009  0.1004783E+03  0.7561462E-02  0.1279293E+00
         -1   -1    0    0    0  501 -0.00000000000E+00  0.00000000000E+00  0.17314737192E+04  0.17314737192E+04  0.00000000000E+00 0.  1.
          1   -1    0    0  501    0  0.00000000000E+00 -0.00000000000E+00 -0.83615515167E+01  0.83615515167E+01  0.00000000000E+00 0. -1.
         25    2    1    2    0    0  0.22503266678E+02 -0.38312027405E+02  0.11619659350E+04  0.11695240229E+04  0.12508955841E+03 0.  0.
          5    1    3    3  502    0 -0.34022632330E+02 -0.20195180498E+02  0.13260854206E+03  0.13844812261E+03  0.41800000000E+01 0.  1.
         -5    1    3    3    0  502  0.56525899008E+02 -0.18116846907E+02  0.10293573929E+04  0.10310759003E+04  0.41800000000E+01 0.  1.
        -11    1    1    2    0    0 -0.64928709601E+01  0.67801090892E+02  0.36031595130E+03  0.36669705489E+03  0.00000000000E+00 0.  1.
         11    1    1    2    0    0 -0.16010395718E+02 -0.29489063487E+02  0.20083028141E+03  0.20361419294E+03  0.00000000000E+00 0. -1.
</event>
<event>
 7    1  0.2648915E-009  0.1018690E+03  0.7561462E-02  0.1276414E+00
          2   -1    0    0  501    0  0.00000000000E+00  0.00000000000E+00  0.53118796651E+03  0.53118796651E+03  0.00000000000E+00 0. -1.
         -2   -1    0    0    0  501 -0.00000000000E+00 -0.00000000000E+00 -0.24345369712E+02  0.24345369712E+02  0.00000000000E+00 0.  1.
         25    2    1    2    0    0 -0.33858453096E+01  0.25592188321E+02  0.33297096746E+03  0.35662745585E+03  0.12508818108E+03 0.  0.
          5    1    3    3  502    0  0.33129061906E+02 -0.29399290233E+02  0.54219378297E+02  0.70136056290E+02  0.41800000000E+01 0. -1.
         -5    1    3    3    0  502 -0.36514907215E+02  0.54991478554E+02  0.27875158916E+03  0.28649139956E+03  0.41800000000E+01 0. -1.
        -11    1    1    2    0    0  0.44649824774E+02 -0.19142540437E+00  0.57136450040E+02  0.72513567139E+02  0.00000000000E+00 0.  1.
         11    1    1    2    0    0 -0.41263979464E+02 -0.25400762916E+02  0.11673517930E+03  0.12639231323E+03  0.00000000000E+00 0. -1.
</event>
<event>
 7    1  0.2648915E-009  0.1224406E+03  0.7561462E-02  0.1239124E+00
         -2   -1    0    0    0  501 -0.00000000000E+00  0.00000000000E+00  0.13757288551E+03  0.13757288551E+03  0.00000000000E+00 0. -1.
          2   -1    0    0  501    0  0.00000000000E+00 -0.00000000000E+00 -0.12244024879E+03  0.12244024879E+03  0.00000000000E+00 0.  1.
         25    2    1    2    0    0  0.14359207267E+02  0.67191216582E+02  0.17796806516E+01  0.14273333664E+03  0.12509513062E+03 0.  0.
          5    1    3    3  502    0 -0.33685022938E+02 -0.11711554475E+02 -0.28053464444E+02  0.45566550735E+02  0.41800000000E+01 0. -1.
         -5    1    3    3    0  502  0.48044230205E+02  0.78902771058E+02  0.29833145096E+02  0.97166785904E+02  0.41800000000E+01 0. -1.
        -11    1    1    2    0    0 -0.50454811285E+02 -0.14256269243E+02  0.69958871909E+01  0.52894911212E+02  0.00000000000E+00 0. -1.
         11    1    1    2    0    0  0.36095604018E+02 -0.52934947339E+02  0.63570688791E+01  0.64384886456E+02  0.00000000000E+00 0.  1.
</event>
<event>
 7    1  0.2648915E-009  0.1192358E+03  0.7561462E-02  0.1244363E+00
          4   -1    0    0  501    0  0.00000000000E+00  0.00000000000E+00  0.16083062134E+03  0.16083062134E+03  0.00000000000E+00 0. -1.
         -4   -1    0    0    0  501 -0.00000000000E+00 -0.00000000000E+00 -0.13185115006E+03  0.13185115006E+03  0.00000000000E+00 0.  1.
         25    2    1    2    0    0  0.17167323829E+02  0.93458953542E+02  0.32791739290E+02  0.16047212786E+03  0.12508682045E+03 0.  0.
          5    1    3    3  502    0  0.16901063516E+02 -0.10935102731E+02  0.50481045628E+02  0.54507162717E+02  0.41800000000E+01 0.  1.
         -5    1    3    3    0  502  0.26626031312E+00  0.10439405627E+03 -0.17689306339E+02  0.10596496515E+03  0.41800000000E+01 0.  1.
        -11    1    1    2    0    0 -0.38734703896E+02 -0.39493237987E+02  0.32037795138E+02  0.63925843364E+02  0.00000000000E+00 0. -1.
         11    1    1    2    0    0  0.21567380066E+02 -0.53965715556E+02 -0.35850063142E+02  0.68283800170E+02  0.00000000000E+00 0.  1.
</event>
<event>
 7    1  0.2648915E-009  0.2650614E+03  0.7561462E-02  0.1104140E+00
         -1   -1    0    0    0  501 -0.00000000000E+00  0.00000000000E+00  0.41065060907E+03  0.41065060907E+03  0.00000000000E+00 0.  1.
          1   -1    0    0  501    0  0.00000000000E+00 -0.00000000000E+00 -0.20045730293E+03  0.20045730293E+03  0.00000000000E+00 0. -1.
         25    2    1    2    0    0 -0.34418668022E+02  0.25571916672E+03  0.17734585946E+03  0.33715979380E+03  0.12509290847E+03 0.  0.
          5    1    3    3  502    0 -0.30544265693E+02  0.39150956447E+02  0.91379231613E+02  0.10408355263E+03  0.41800000000E+01 0. -1.
         -5    1    3    3    0  502 -0.38744023291E+01  0.21656821027E+03  0.85966627849E+02  0.23307624117E+03  0.41800000000E+01 0. -1.
        -11    1    1    2    0    0  0.39236436255E+02 -0.94044967956E+02  0.45725008825E+02  0.11169033244E+03  0.00000000000E+00 0.  1.
         11    1    1    2    0    0 -0.48177682331E+01 -0.16167419876E+03 -0.12877562145E+02  0.16225778577E+03  0.00000000000E+00 0. -1.
</event>
<event>
 7    1  0.2648915E-009  0.1063782E+03  0.7561462E-02  0.1267428E+00
         -2   -1    0    0    0  501 -0.00000000000E+00  0.00000000000E+00  0.36922339088E+02  0.36922339088E+02  0.00000000000E+00 0. -1.
          2   -1    0    0  501    0  0.00000000000E+00 -0.00000000000E+00 -0.49952728006E+03  0.49952728006E+03  0.00000000000E+00 0.  1.
         25    2    1    2    0    0 -0.58837191670E+02  0.42097517122E+02 -0.17858259468E+03  0.22972545116E+03  0.12509206095E+03 0.  0.
          5    1    3    3  502    0  0.21450218228E+02  0.47897341260E+02 -0.29760824671E+02  0.60476824048E+02  0.41800000000E+01 0.  1.
         -5    1    3    3    0  502 -0.80287409898E+02 -0.57998241376E+01 -0.14882177001E+03  0.16924862711E+03  0.41800000000E+01 0.  1.
        -11    1    1    2    0    0 -0.16280061071E+01 -0.11727950804E+02  0.26846812931E+01  0.12140953323E+02  0.00000000000E+00 0. -1.
         11    1    1    2    0    0  0.60465197777E+02 -0.30369566318E+02 -0.28670702758E+03  0.29458321467E+03  0.00000000000E+00 0.  1.
</event>
<event>
 7    1  0.2648915E-009  0.8395951E+02  0.7561462E-02  0.1318176E+00
          2   -1    0    0  501    0  0.00000000000E+00  0.00000000000E+00  0.23911588975E+03  0.23911588975E+03  0.00000000000E+00 0. -1.
         -2   -1    0    0    0  501 -0.00000000000E+00 -0.00000000000E+00 -0.53870637960E+02  0.53870637960E+02  0.00000000000E+00 0.  1.
         25    2    1    2    0    0  0.11068852869E+02  0.26266246026E+02  0.87327304714E+02  0.15519409924E+03  0.12508683027E+03 0.  0.
          5    1    3    3  502    0  0.38028500230E+02  0.54954935429E+02  0.91745183874E+01  0.67585915288E+02  0.41800000000E+01 0. -1.
         -5    1    3    3    0  502 -0.26959647360E+02 -0.28688689403E+02  0.78152786327E+02  0.87608183956E+02  0.41800000000E+01 0. -1.
        -11    1    1    2    0    0 -0.32112628302E+02 -0.24227586358E+02  0.27680705373E+01  0.40321942558E+02  0.00000000000E+00 0.  1.
         11    1    1    2    0    0  0.21043775432E+02 -0.20386596675E+01  0.95149876537E+02  0.97470485906E+02  0.00000000000E+00 0. -1.
</event>
<event>
 7    1  0.2648915E-009  0.1179671E+03  0.7561462E-02  0.1246489E+00
          2   -1    0    0  501    0  0.00000000000E+00  0.00000000000E+00  0.36575309198E+03  0.36575309198E+03  0.00000000000E+00 0. -1.
         -2   -1    0    0    0  501 -0.00000000000E+00 -0.00000000000E+00 -0.45472404779E+02  0.45472404779E+02  0.00000000000E+00 0.  1.
         25    2    1    2    0    0  0.22241744800E+02  0.59508543239E+02  0.12647417484E+03  0.18888681434E+03  0.12508616950E+03 0.  0.
          5    1    3    3  502    0  0.73931969760E+02  0.38299533749E+02  0.85944546022E+02  0.11973607572E+03  0.41800000000E+01 0. -1.
         -5    1    3    3    0  502 -0.51690224960E+02  0.21209009490E+02  0.40529628818E+02  0.69150738623E+02  0.41800000000E+01 0. -1.
        -11    1    1    2    0    0 -0.38034381568E+02 -0.33281102809E+01  0.30337924096E+02  0.48765563031E+02  0.00000000000E+00 0.  1.
         11    1    1    2    0    0  0.15792636768E+02 -0.56180432958E+02  0.16346858826E+03  0.17357311938E+03  0.00000000000E+00 0. -1.
</event>
<event>
 7    1  0.2648915E-009  0.8342413E+02  0.7561462E-02  0.1319606E+00
         -3   -1    0    0    0  501 -0.00000000000E+00  0.00000000000E+00  0.76392229694E+02  0.76392229694E+02  0.00000000000E+00 0.  1.
          3   -1    0    0  501    0  0.00000000000E+00 -0.00000000000E+00 -0.17802275747E+03  0.17802275747E+03  0.00000000000E+00 0. -1.
         25    2    1    2    0    0 -0.56627332390E+01 -0.32206774559E+01 -0.95273939028E+01  0.12561952582E+03  0.12508818778E+03 0.  0.
          5    1    3    3  502    0  0.37348405579E+02 -0.12147981527E+02 -0.51377131351E+02  0.64804003583E+02  0.41800000000E+01 0. -1.
         -5    1    3    3    0  502 -0.43011138818E+02  0.89273040715E+01  0.41849737449E+02  0.60815522237E+02  0.41800000000E+01 0. -1.
        -11    1    1    2    0    0  0.22518091906E+02 -0.34906261155E+02 -0.70540139438E+02  0.81862218409E+02  0.00000000000E+00 0.  1.
         11    1    1    2    0    0 -0.16855358667E+02  0.38126938611E+02 -0.21562994439E+02  0.46933242939E+02  0.00000000000E+00 0. -1.
</event>
<event>
 7    1  0.2648915E-009  0.1425172E+03  0.7561462E-02  0.1209981E+00
          1   -1    0    0  501    0  0.00000000000E+00  0.00000000000E+00  0.33356114557E+02  0.33356114557E+02  0.00000000000E+00 0. -1.
         -1   -1    0    0    0  501 -0.00000000000E+00 -0.00000000000E+00 -0.77198725376E+03  0.77198725376E+03  0.00000000000E+00 0.  1.
         25    2    1    2    0    0 -0.51335407651E+02 -0.85643603304E+02 -0.23962885821E+03  0.28816040001E+03  0.12507707855E+03 0.  0.
          5    1    3    3  502    0 -0.83425718552E+02 -0.38613506066E+02 -0.93104552546E+02  0.13090753787E+03  0.41800000000E+01 0.  1.
         -5    1    3    3    0  502  0.32090310901E+02 -0.47030097238E+02 -0.14652430566E+03  0.15725286214E+03  0.41800000000E+01 0.  1.
        -11    1    1    2    0    0 -0.20551606007E+02 -0.40798982775E+01 -0.77185947435E+02  0.79979275821E+02  0.00000000000E+00 0. -1.
         11    1    1    2    0    0  0.71887013658E+02  0.89723501582E+02 -0.42181633356E+03  0.43720369249E+03  0.00000000000E+00 0.  1.
</event>
<event>
 7    1  0.2648915E-009  0.9943929E+02  0.7561462E-02  0.1281479E+00
         -2   -1    0    0    0  501 -0.00000000000E+00  0.00000000000E+00  0.15117492471E+02  0.15117492471E+02  0.00000000000E+00 0.  1.
          2   -1    0    0  501    0  0.00000000000E+00 -0.00000000000E+00 -0.11064140643E+04  0.11064140643E+04  0.00000000000E+00 0. -1.
         25    2    1    2    0    0  0.38070151538E+02 -0.13501176518E+02 -0.86097907504E+03  0.87095539028E+03  0.12508679386E+03 0.  0.
          5    1    3    3  502    0  0.47626298043E+02 -0.48817447426E+02 -0.76671754780E+03  0.76975624580E+03  0.41800000000E+01 0. -1.
         -5    1    3    3    0  502 -0.95561465052E+01  0.35316270908E+02 -0.94261527232E+02  0.10119914448E+03  0.41800000000E+01 0. -1.
        -11    1    1    2    0    0 -0.49061256279E+02 -0.24021053788E+02 -0.93564447731E+02  0.10834354513E+03  0.00000000000E+00 0. -1.
         11    1    1    2    0    0  0.10991104741E+02  0.37522230305E+02 -0.13675304902E+03  0.14223262132E+03  0.00000000000E+00 0.  1.
</event>
<event>
 7    1  0.2648915E-009  0.8453633E+02  0.7561462E-02  0.1316650E+00
         -4   -1    0    0    0  501 -0.00000000000E+00  0.00000000000E+00  0.45998985474E+03  0.45998985474E+03  0.00000000000E+00 0.  1.
          4   -1    0    0  501    0  0.00000000000E+00 -0.00000000000E+00 -0.25729728874E+02  0.25729728874E+02  0.00000000000E+00 0. -1.
         25    2    1    2    0    0  0.50589376451E+01 -0.34380571540E+01  0.26420482310E+03  0.29238474269E+03  0.12508891286E+03 0.  0.
          5    1    3    3  502    0 -0.50557667259E+01 -0.50277556668E+02  0.22408076193E+03  0.22974562836E+03  0.41800000000E+01 0.  1.
         -5    1    3    3    0  502  0.10114704371E+02  0.46839499514E+02  0.40124061170E+02  0.62639114330E+02  0.41800000000E+01 0.  1.
        -11    1    1    2    0    0 -0.36679820658E+02 -0.62230861306E+01  0.15026199365E+03  0.15479923378E+03  0.00000000000E+00 0.  1.
         11    1    1    2    0    0  0.31620883013E+02  0.96611432845E+01  0.19793309112E+02  0.38535607140E+02  0.00000000000E+00 0. -1.
</event>
<event>
 7    1  0.2648915E-009  0.1573771E+03  0.7561462E-02  0.1191690E+00
         -2   -1    0    0    0  501 -0.00000000000E+00  0.00000000000E+00  0.21959424628E+03  0.21959424628E+03  0.00000000000E+00 0.  1.
          2   -1    0    0  501    0  0.00000000000E+00 -0.00000000000E+00 -0.11708436912E+03  0.11708436912E+03  0.00000000000E+00 0. -1.
         25    2    1    2    0    0 -0.10953034907E+03  0.41203279530E+02  0.41186988615E+02  0.17618312082E+03  0.12509802724E+03 0.  0.
          5    1    3    3  502    0 -0.42181870019E+00  0.58624984466E+02  0.17842871773E+01  0.58802404844E+02  0.41800000000E+01 0. -1.
         -5    1    3    3    0  502 -0.10910853037E+03 -0.17421704936E+02  0.39402701438E+02  0.11738071597E+03  0.41800000000E+01 0. -1.
        -11    1    1    2    0    0  0.57866925280E+02 -0.66275641097E+02  0.52331242822E+02  0.10236992048E+03  0.00000000000E+00 0. -1.
         11    1    1    2    0    0  0.51663423789E+02  0.25072361566E+02  0.89916457185E+01  0.58125574103E+02  0.00000000000E+00 0.  1.
</event>
<event>
 7    1  0.2648915E-009  0.1327938E+03  0.7561462E-02  0.1223368E+00
          2   -1    0    0  501    0  0.00000000000E+00  0.00000000000E+00  0.45897866656E+03  0.45897866656E+03  0.00000000000E+00 0. -1.
         -2   -1    0    0    0  501 -0.00000000000E+00 -0.00000000000E+00 -0.49942474064E+02  0.49942474064E+02  0.00000000000E+00 0.  1.
         25    2    1    2    0    0 -0.15074750285E+00 -0.86269018185E+02  0.11865663488E+03  0.19278680565E+03  0.12507993127E+03 0.  0.
          5    1    3    3  502    0  0.37209632770E+02  0.12875175213E+02  0.97285236153E+01  0.40773072970E+02  0.41800000000E+01 0.  1.
         -5    1    3    3    0  502 -0.37360380273E+02 -0.99144193398E+02  0.10892811126E+03  0.15201373268E+03  0.41800000000E+01 0.  1.
        -11    1    1    2    0    0 -0.33851483108E+02  0.82335652218E+01  0.12973514076E+03  0.13433138596E+03  0.00000000000E+00 0. -1.
         11    1    1    2    0    0  0.34002230611E+02  0.78035452963E+02  0.16064441685E+03  0.18180294902E+03  0.00000000000E+00 0.  1.
</event>
<event>
 7    1  0.2648915E-009  0.1052468E+03  0.7561462E-02  0.1269634E+00
          2   -1    0    0  501    0  0.00000000000E+00  0.00000000000E+00  0.10159950418E+04  0.10159950418E+04  0.00000000000E+00 0. -1.
         -2   -1    0    0    0  501 -0.00000000000E+00 -0.00000000000E+00 -0.18068119045E+02  0.18068119045E+02  0.00000000000E+00 0.  1.
         25    2    1    2    0    0 -0.76579457180E+02 -0.25837081340E+02  0.61797853414E+03  0.63567013487E+03  0.12508830351E+03 0.  0.
          5    1    3    3  502    0 -0.41724020115E+02  0.26150716914E+02  0.79905155402E+02  0.93952435357E+02  0.41800000000E+01 0.  1.
         -5    1    3    3    0  502 -0.34855437066E+02 -0.51987798254E+02  0.53807337873E+03  0.54171769951E+03  0.41800000000E+01 0.  1.
        -11    1    1    2    0    0  0.66897163257E+02 -0.39592611409E+01  0.34503811006E+03  0.35148570895E+03  0.00000000000E+00 0. -1.
         11    1    1    2    0    0  0.96822939237E+01  0.29796342481E+02  0.34910278517E+02  0.46907316988E+02  0.00000000000E+00 0.  1.
</event>
<event>
 7    1  0.2648915E-009  0.6592385E+02  0.7561462E-02  0.1374530E+00
         -1   -1    0    0    0  501 -0.00000000000E+00  0.00000000000E+00  0.49248924403E+02  0.49248924403E+02  0.00000000000E+00 0.  1.
          1   -1    0    0  501    0  0.00000000000E+00 -0.00000000000E+00 -0.26842078133E+03  0.26842078133E+03  0.00000000000E+00 0. -1.
         25    2    1    2    0    0  0.31230601669E+02 -0.18558595992E+02 -0.13845568975E+03  0.19009636476E+03  0.12508748101E+03 0.  0.
          5    1    3    3  502    0  0.21832631302E+01 -0.28220269690E+02 -0.15320960208E+03  0.15585828444E+03  0.41800000000E+01 0.  1.
         -5    1    3    3    0  502  0.29047338538E+02  0.96616736975E+01  0.14753912332E+02  0.34238080319E+02  0.41800000000E+01 0.  1.
        -11    1    1    2    0    0  0.14737366426E+01 -0.20978188756E+02  0.10050188974E+02  0.23307994371E+02  0.00000000000E+00 0.  1.
         11    1    1    2    0    0 -0.32704338311E+02  0.39536784749E+02 -0.90766356150E+02  0.10426534660E+03  0.00000000000E+00 0. -1.
</event>
<event>
 7    1  0.2648915E-009  0.1132866E+03  0.7561462E-02  0.1254602E+00
         -2   -1    0    0    0  501 -0.00000000000E+00  0.00000000000E+00  0.33824341871E+02  0.33824341871E+02  0.00000000000E+00 0.  1.
          2   -1    0    0  501    0  0.00000000000E+00 -0.00000000000E+00 -0.54192360981E+03  0.54192360981E+03  0.00000000000E+00 0. -1.
         25    2    1    2    0    0 -0.13598189756E+02 -0.57544116215E+02 -0.39843890538E+03  0.42177958353E+03  0.12509284425E+03 0.  0.
          5    1    3    3  502    0  0.22882438137E+02 -0.87063591134E+02 -0.28622179587E+03  0.30007343053E+03  0.41800000000E+01 0.  1.
         -5    1    3    3    0  502 -0.36480627893E+02  0.29519474919E+02 -0.11221710951E+03  0.12170615300E+03  0.41800000000E+01 0.  1.
        -11    1    1    2    0    0  0.33743364959E+02  0.60210582359E+02 -0.11392743271E+03  0.13320431236E+03  0.00000000000E+00 0. -1.
         11    1    1    2    0    0 -0.20145175204E+02 -0.26664661439E+01  0.42670701491E+01  0.20764055802E+02  0.00000000000E+00 0.  1.
</event>
<event>
 7    1  0.2648915E-009  0.9287660E+02  0.7561462E-02  0.1296031E+00
          2   -1    0    0  501    0  0.00000000000E+00  0.00000000000E+00  0.12255197534E+04  0.12255197534E+04  0.00000000000E+00 0. -1.
         -2   -1    0    0    0  501 -0.00000000000E+00 -0.00000000000E+00 -0.23316879159E+02  0.23316879159E+02  0.00000000000E+00 0.  1.
         25    2    1    2    0    0 -0.34143703950E+01 -0.44272288826E+02  0.10803348331E+04  0.10884580912E+04  0.12508385674E+03 0.  0.
          5    1    3    3  502    0 -0.27906003599E+02 -0.82315358182E+02  0.67569365977E+03  0.68127377572E+03  0.41800000000E+01 0.  1.
         -5    1    3    3    0  502  0.24491633204E+02  0.38043069357E+02  0.40464117336E+03  0.40718431551E+03  0.41800000000E+01 0.  1.
        -11    1    1    2    0    0 -0.96342854466E+01  0.37258207274E+02  0.13512521842E+03  0.14049846305E+03  0.00000000000E+00 0. -1.
         11    1    1    2    0    0  0.13048655842E+02  0.70140815519E+01 -0.13257177352E+02  0.19880078235E+02  0.00000000000E+00 0.  1.
</event>
<event>
 7    1  0.2648915E-009  0.8680237E+02  0.7561462E-02  0.1310785E+00
          2   -1    0    0  501    0  0.00000000000E+00  0.00000000000E+00  0.33798538601E+03  0.33798538601E+03  0.00000000000E+00 0. -1.
         -2   -1    0    0    0  501 -0.00000000000E+00 -0.00000000000E+00 -0.38144462726E+02  0.38144462726E+02  0.00000000000E+00 0.  1.
         25    2    1    2    0    0 -0.32290919330E+02 -0.47433156869E+01  0.19579992234E+03  0.23462853197E+03  0.12509091059E+03 0.  0.
          5    1    3    3  502    0 -0.50319935168E+01 -0.49222838632E+02  0.24225785903E+02  0.55250067008E+02  0.41800000000E+01 0. -1.
         -5    1    3    3    0  502 -0.27258925813E+02  0.44479522945E+02  0.17157413644E+03  0.17937846496E+03  0.41800000000E+01 0. -1.
        -11    1    1    2    0    0 -0.16325237461E+02  0.14723719492E+02 -0.42391138108E+01  0.22389090641E+02  0.00000000000E+00 0.  1.
         11    1    1    2    0    0  0.48616156791E+02 -0.99804038049E+01  0.10828011475E+03  0.11911222612E+03  0.00000000000E+00 0. -1.
</event>
<event>
 7    1  0.2648915E-009  0.6546345E+02  0.7561462E-02  0.1376237E+00
          1   -1    0    0  501    0  0.00000000000E+00  0.00000000000E+00  0.83839090692E+03  0.83839090692E+03  0.00000000000E+00 0. -1.
         -1   -1    0    0    0  501 -0.00000000000E+00 -0.00000000000E+00 -0.21434487795E+02  0.21434487795E+02  0.00000000000E+00 0.  1.
         25    2    1    2    0    0  0.40687870727E+02 -0.42464090671E+02  0.66973719982E+03  0.68385286934E+03  0.12509247883E+03 0.  0.
          5    1    3    3  502    0  0.13005497193E+02 -0.23944367575E+02  0.63481751407E+03  0.63541578849E+03  0.41800000000E+01 0.  1.
         -5    1    3    3    0  502  0.27682373534E+02 -0.18519723097E+02  0.34919685751E+02  0.48437080847E+02  0.41800000000E+01 0.  1.
        -11    1    1    2    0    0 -0.36549522759E+02  0.11159123507E+02  0.16729659746E+02  0.41716605406E+02  0.00000000000E+00 0.  1.
         11    1    1    2    0    0 -0.41383479680E+01  0.31304967164E+02  0.13048955956E+03  0.13425591997E+03  0.00000000000E+00 0. -1.
</event>
<event>
 7    1  0.2648915E-009  0.1259208E+03  0.7561462E-02  0.1233637E+00
         -1   -1    0    0    0  501 -0.00000000000E+00  0.00000000000E+00  0.13029283188E+03  0.13029283188E+03  0.00000000000E+00 0.  1.
          1   -1    0    0  501    0  0.00000000000E+00 -0.00000000000E+00 -0.16097552119E+03  0.16097552119E+03  0.00000000000E+00 0. -1.
         25    2    1    2    0    0  0.11886030388E+02  0.78387845200E+02 -0.70365783306E+02  0.16396239867E+03  0.12508554162E+03 0.  0.
          5    1    3    3  502    0 -0.23019713455E+01  0.11109739417E+03 -0.44771975583E+02  0.11987465229E+03  0.41800000000E+01 0.  1.
         -5    1    3    3    0  502  0.14188001733E+02 -0.32709548971E+02 -0.25593807723E+02  0.44087746379E+02  0.41800000000E+01 0.  1.
        -11    1    1    2    0    0  0.27988686219E+02 -0.43687301137E+02  0.51540887764E+02  0.73132824015E+02  0.00000000000E+00 0.  1.
         11    1    1    2    0    0 -0.39874716606E+02 -0.34700544064E+02 -0.11857793766E+02  0.54173130385E+02  0.00000000000E+00 0. -1.
</event>
<event>
 7    1  0.3697985E-009  0.1045979E+03  0.7561462E-02  0.1270914E+00
          2   -1    0    0  501    0  0.00000000000E+00  0.00000000000E+00  0.20831300301E+04  0.20831300301E+04  0.00000000000E+00 0. -1.
         -2   -1    0    0    0  501 -0.00000000000E+00 -0.00000000000E+00 -0.91962064202E+01  0.91962064202E+01  0.00000000000E+00 0.  1.
         25    2    1    2    0    0  0.38448978381E+02  0.38547336075E+02  0.16446704169E+04  0.16503189094E+04  0.12508997423E+03 0.  0.
          5    1    3    3  502    0  0.16415201337E+02 -0.30928988535E+02  0.11242222374E+04  0.11247751654E+04  0.41800000000E+01 0. -1.
         -5    1    3    3    0  502  0.22033777044E+02  0.69476324610E+02  0.52044817946E+03  0.52554374405E+03  0.41800000000E+01 0. -1.
        -11    1    1    2    0    0  0.11069426323E+02 -0.49068736042E+02  0.27752969541E+03  0.28205142242E+03  0.00000000000E+00 0. -1.
         11    1    1    2    0    0 -0.49518404704E+02  0.10521399967E+02  0.15173371139E+03  0.15995590466E+03  0.00000000000E+00 0.  1.
</event>
<event>
 7    1  0.2648915E-009  0.1425679E+03  0.7561462E-02  0.1209915E+00
          2   -1    0    0  501    0  0.00000000000E+00  0.00000000000E+00  0.71731181135E+03  0.71731181135E+03  0.00000000000E+00 0. -1.
         -2   -1    0    0    0  501 -0.00000000000E+00 -0.00000000000E+00 -0.29582405296E+02  0.29582405296E+02  0.00000000000E+00 0.  1.
         25    2    1    2    0    0  0.91680425173E+02 -0.19128867834E+02  0.43879646809E+03  0.46579096052E+03  0.12509062535E+03 0.  0.
          5    1    3    3  502    0 -0.10849447040E+02  0.36747344625E+02  0.13145489498E+03  0.13698883039E+03  0.41800000000E+01 0. -1.
         -5    1    3    3    0  502  0.10252987221E+03 -0.55876212460E+02  0.30734157312E+03  0.32880213013E+03  0.41800000000E+01 0. -1.
        -11    1    1    2    0    0 -0.10886967314E+02  0.43912537529E+02  0.10236454197E+03  0.11191664962E+03  0.00000000000E+00 0.  1.
         11    1    1    2    0    0 -0.80793457859E+02 -0.24783669694E+02  0.14656839599E+03  0.16918660650E+03  0.00000000000E+00 0. -1.
</event>
<event>
 7    1  0.2648915E-009  0.1368529E+03  0.7561462E-02  0.1217627E+00
          2   -1    0    0  501    0  0.00000000000E+00  0.00000000000E+00  0.12425513694E+03  0.12425513694E+03  0.00000000000E+00 0. -1.
         -2   -1    0    0    0  501 -0.00000000000E+00 -0.00000000000E+00 -0.17286664031E+03  0.17286664031E+03  0.00000000000E+00 0.  1.
         25    2    1    2    0    0  0.88348881886E+02 -0.29372076683E+02  0.65662909233E+01  0.15607001210E+03  0.12508592519E+03 0.  0.
          5    1    3    3  502    0  0.94302172757E+02  0.22221776304E+02  0.26097736220E+02  0.10042545178E+03  0.41800000000E+01 0. -1.
         -5    1    3    3    0  502 -0.59532908715E+01 -0.51593852987E+02 -0.19531445297E+02  0.55644560324E+02  0.41800000000E+01 0. -1.
        -11    1    1    2    0    0 -0.27073034694E+02  0.52549707088E+02 -0.45992513340E+02  0.74898145544E+02  0.00000000000E+00 0.  1.
         11    1    1    2    0    0 -0.61275847192E+02 -0.23177630405E+02 -0.91852809544E+01  0.66153619603E+02  0.00000000000E+00 0. -1.
</event>
<event>
 7    1  0.2648915E-009  0.3172733E+03  0.7561462E-02  0.1076911E+00
         -2   -1    0    0    0  501 -0.00000000000E+00  0.00000000000E+00  0.36887989209E+03  0.36887989209E+03  0.00000000000E+00 0.  1.
          2   -1    0    0  501    0  0.00000000000E+00 -0.00000000000E+00 -0.38295509789E+03  0.38295509789E+03  0.00000000000E+00 0. -1.
         25    2    1    2    0    0 -0.10545638190E+03 -0.28606368966E+03  0.18240245170E+03  0.37665902193E+03  0.12509149208E+03 0.  0.
          5    1    3    3  502    0 -0.62008252129E+02 -0.27141415995E+03  0.17785262092E+03  0.33039324558E+03  0.41800000000E+01 0.  1.
         -5    1    3    3    0  502 -0.43448129775E+02 -0.14649529707E+02  0.45498307792E+01  0.46265776355E+02  0.41800000000E+01 0.  1.
        -11    1    1    2    0    0  0.64852616282E+02  0.96938338295E+02 -0.11951318079E+03  0.16699192691E+03  0.00000000000E+00 0.  1.
         11    1    1    2    0    0  0.40603765622E+02  0.18912535136E+03 -0.76964476713E+02  0.20818404114E+03  0.00000000000E+00 0. -1.
</event>
<event>
 7    1  0.2648915E-009  0.8544701E+02  0.7561462E-02  0.1314268E+00
          2   -1    0    0  501    0  0.00000000000E+00  0.00000000000E+00  0.37101109214E+03  0.37101109214E+03  0.00000000000E+00 0. -1.
         -2   -1    0    0    0  501 -0.00000000000E+00 -0.00000000000E+00 -0.37242555924E+02  0.37242555924E+02  0.00000000000E+00 0.  1.
         25    2    1    2    0    0  0.64383399629E+01 -0.27505740680E+02  0.14050243042E+03  0.19022825490E+03  0.12509131871E+03 0.  0.
          5    1    3    3  502    0 -0.27415340180E+02 -0.23753543024E+02  0.15019445946E+03  0.15456933633E+03  0.41800000000E+01 0.  1.
         -5    1    3    3    0  502  0.33853680143E+02 -0.37521976556E+01 -0.96920290353E+01  0.35658918566E+02  0.41800000000E+01 0.  1.
        -11    1    1    2    0    0  0.35187867492E+01  0.63051206965E+02  0.10791732609E+03  0.12503593816E+03  0.00000000000E+00 0. -1.
         11    1    1    2    0    0 -0.99571267121E+01 -0.35545466286E+02  0.85348779706E+02  0.92989455010E+02  0.00000000000E+00 0.  1.
</event>
<event>
 7    1  0.2648915E-009  0.7795090E+02  0.7561462E-02  0.1334969E+00
          1   -1    0    0  501    0  0.00000000000E+00  0.00000000000E+00  0.77883352864E+02  0.77883352864E+02  0.00000000000E+00 0. -1.
         -1   -1    0    0    0  501 -0.00000000000E+00 -0.00000000000E+00 -0.17690009688E+03  0.17690009688E+03  0.00000000000E+00 0.  1.
         25    2    1    2    0    0  0.36675169262E+02  0.23823446690E+02 -0.46882484692E+02  0.14056400997E+03  0.12509056269E+03 0.  0.
          5    1    3    3  502    0  0.12552175445E+02 -0.35156966323E+02  0.24451967902E+02  0.44821206183E+02  0.41800000000E+01 0. -1.
         -5    1    3    3    0  502  0.24122993817E+02  0.58980413013E+02 -0.71334452595E+02  0.95742803786E+02  0.41800000000E+01 0. -1.
        -11    1    1    2    0    0 -0.36322076827E+02 -0.61955408714E+01 -0.76050516499E+02  0.84506562180E+02  0.00000000000E+00 0.  1.
         11    1    1    2    0    0 -0.35309243439E+00 -0.17627905819E+02  0.23916257174E+02  0.29712877596E+02  0.00000000000E+00 0. -1.
</event>
<event>
 7    1  0.2648915E-009  0.1135828E+03  0.7561462E-02  0.1254075E+00
         -2   -1    0    0    0  501 -0.00000000000E+00  0.00000000000E+00  0.32259495582E+03  0.32259495582E+03  0.00000000000E+00 0.  1.
          2   -1    0    0  501    0  0.00000000000E+00 -0.00000000000E+00 -0.54541107592E+02  0.54541107592E+02  0.00000000000E+00 0. -1.
         25    2    1    2    0    0 -0.31383620515E+02 -0.48180086362E+02  0.21834823370E+03  0.25812724412E+03  0.12508985027E+03 0.  0.
          5    1    3    3  502    0 -0.74775773154E+02 -0.62345685244E+01  0.14255373732E+03  0.16115001247E+03  0.41800000000E+01 0.  1.
         -5    1    3    3    0  502  0.43392152639E+02 -0.41945517838E+02  0.75794496379E+02  0.96977231651E+02  0.41800000000E+01 0.  1.
        -11    1    1    2    0    0  0.45786757852E+02  0.58141427262E+02  0.62865850505E+02  0.97102872864E+02  0.00000000000E+00 0.  1.
         11    1    1    2    0    0 -0.14403137337E+02 -0.99613409002E+01 -0.13160235979E+02  0.21905946423E+02  0.00000000000E+00 0. -1.
</event>
<event>
 7    1  0.2648915E-009  0.1691136E+03  0.7561462E-02  0.1178775E+00
          1   -1    0    0  501    0  0.00000000000E+00  0.00000000000E+00  0.14000467937E+03  0.14000467937E+03  0.00000000000E+00 0. -1.
         -1   -1    0    0    0  501 -0.00000000000E+00 -0.00000000000E+00 -0.30850708515E+03  0.30850708515E+03  0.00000000000E+00 0.  1.
         25    2    1    2    0    0  0.13149980601E+03 -0.83422027547E+02 -0.17924165034E+03  0.26837717531E+03  0.12508918959E+03 0.  0.
          5    1    3    3  502    0  0.95119311343E+02 -0.10356692608E+03 -0.17757572422E+03  0.22654889494E+03  0.41800000000E+01 0. -1.
         -5    1    3    3    0  502  0.36380494662E+02  0.20144898531E+02 -0.16659261198E+01  0.41828280367E+02  0.41800000000E+01 0. -1.
        -11    1    1    2    0    0 -0.63892619123E+02  0.38987717566E+02 -0.39771688536E+02  0.84759047354E+02  0.00000000000E+00 0.  1.
         11    1    1    2    0    0 -0.67607186882E+02  0.44434309980E+02  0.50510933092E+02  0.95375541851E+02  0.00000000000E+00 0. -1.
</event>
<event>
 7    1  0.2648915E-009  0.1425375E+03  0.7561462E-02  0.1209955E+00
          2   -1    0    0  501    0  0.00000000000E+00  0.00000000000E+00  0.14712692220E+04  0.14712692220E+04  0.00000000000E+00 0. -1.
         -2   -1    0    0    0  501 -0.00000000000E+00 -0.00000000000E+00 -0.19438802201E+02  0.19438802201E+02  0.00000000000E+00 0.  1.
         25    2    1    2    0    0  0.10909931333E+03 -0.34698759196E+01  0.10784796748E+04  0.10911831548E+04  0.12509024031E+03 0.  0.
          5    1    3    3  502    0  0.30008567482E+02 -0.44354355271E+02  0.16863709426E+03  0.17698521100E+03  0.41800000000E+01 0.  1.
         -5    1    3    3    0  502  0.79090745843E+02  0.40884479351E+02  0.90984258054E+03  0.91419794383E+03  0.41800000000E+01 0.  1.
        -11    1    1    2    0    0 -0.56800480739E+02 -0.43805150483E+02  0.18905294537E+03  0.20220336787E+03  0.00000000000E+00 0.  1.
         11    1    1    2    0    0 -0.52298832586E+02  0.47275026402E+02  0.18429779967E+03  0.19732150155E+03  0.00000000000E+00 0. -1.
</event>
<event>
 7    1  0.3021117E-009  0.1564979E+03  0.7561462E-02  0.1192708E+00
         -1   -1    0    0    0  501 -0.00000000000E+00  0.00000000000E+00  0.35681469302E+02  0.35681469302E+02  0.00000000000E+00 0.  1.
          1   -1    0    0  501    0  0.00000000000E+00 -0.00000000000E+00 -0.84468740402E+03  0.84468740402E+03  0.00000000000E+00 0. -1.
         25    2    1    2    0    0  0.12407331593E+03 -0.12244548639E+02 -0.56159778365E+03  0.58871315018E+03  0.12508791267E+03 0.  0.
          5    1    3    3  502    0  0.10691480381E+03 -0.54584030689E+02 -0.30051883549E+03  0.32363441499E+03  0.41800000000E+01 0.  1.
         -5    1    3    3    0  502  0.17158512117E+02  0.42339482049E+02 -0.26107894816E+03  0.26507873519E+03  0.41800000000E+01 0.  1.
        -11    1    1    2    0    0 -0.98091906052E+02 -0.25342728697E+02 -0.12440390175E+03  0.16043879425E+03  0.00000000000E+00 0.  1.
         11    1    1    2    0    0 -0.25981409879E+02  0.37587277336E+02 -0.12300424932E+03  0.13121692889E+03  0.00000000000E+00 0. -1.
</event>
<event>
 7    1  0.2648915E-009  0.1083642E+03  0.7561462E-02  0.1263629E+00
          3   -1    0    0  501    0  0.00000000000E+00  0.00000000000E+00  0.29355059328E+03  0.29355059328E+03  0.00000000000E+00 0. -1.
         -3   -1    0    0    0  501 -0.00000000000E+00 -0.00000000000E+00 -0.58094337978E+02  0.58094337978E+02  0.00000000000E+00 0.  1.
         25    2    1    2    0    0 -0.66849153307E+02 -0.27545086058E+02  0.12223079098E+03  0.18925013332E+03  0.12509078957E+03 0.  0.
          5    1    3    3  502    0 -0.45829615056E+02  0.47158892053E+02  0.45791262371E+02  0.80241054488E+02  0.41800000000E+01 0.  1.
         -5    1    3    3    0  502 -0.21019538251E+02 -0.74703978111E+02  0.76439528608E+02  0.10900907883E+03  0.41800000000E+01 0.  1.
        -11    1    1    2    0    0  0.94319548271E+01  0.82951937975E+01 -0.15610286639E+02  0.20036293593E+02  0.00000000000E+00 0.  1.
         11    1    1    2    0    0  0.57417198480E+02  0.19249892260E+02  0.12883575096E+03  0.14235850434E+03  0.00000000000E+00 0. -1.
</event>
<event>
 7    1  0.2648915E-009  0.8570480E+02  0.7561462E-02  0.1313600E+00
         -2   -1    0    0    0  501 -0.00000000000E+00  0.00000000000E+00  0.11923706507E+02  0.11923706507E+02  0.00000000000E+00 0.  1.
          2   -1    0    0  501    0  0.00000000000E+00 -0.00000000000E+00 -0.11259299529E+04  0.11259299529E+04  0.00000000000E+00 0. -1.
         25    2    1    2    0    0  0.39177046217E+02  0.90022406896E+01 -0.69705674079E+03  0.70933451896E+03  0.12510586966E+03 0.  0.
          5    1    3    3  502    0  0.94266278485E+01  0.32797163011E+02 -0.47437949906E+02  0.58586233071E+02  0.41800000000E+01 0.  1.
         -5    1    3    3    0  502  0.29750418369E+02 -0.23794922321E+02 -0.64961879088E+03  0.65074828589E+03  0.41800000000E+01 0.  1.
        -11    1    1    2    0    0 -0.44678552874E+02  0.33503462946E+02 -0.22236933806E+03  0.22927445916E+03  0.00000000000E+00 0.  1.
         11    1    1    2    0    0  0.55015066567E+01 -0.42505703636E+02 -0.19458016759E+03  0.19924468133E+03  0.00000000000E+00 0. -1.
</event>
<event>
 7    1  0.2648915E-009  0.1619728E+03  0.7561462E-02  0.1186487E+00
          2   -1    0    0  501    0  0.00000000000E+00  0.00000000000E+00  0.76554933435E+03  0.76554933435E+03  0.00000000000E+00 0. -1.
         -2   -1    0    0    0  501 -0.00000000000E+00 -0.00000000000E+00 -0.38822585665E+02  0.38822585665E+02  0.00000000000E+00 0.  1.
         25    2    1    2    0    0  0.99459045181E+02  0.87932404408E+02  0.33687201839E+03  0.38308480911E+03  0.12508798816E+03 0.  0.
          5    1    3    3  502    0  0.61802837730E+02  0.10569741062E+03  0.16104831010E+03  0.20235010242E+03  0.41800000000E+01 0. -1.
         -5    1    3    3    0  502  0.37656207451E+02 -0.17765006210E+02  0.17582370829E+03  0.18073470668E+03  0.41800000000E+01 0. -1.
        -11    1    1    2    0    0 -0.21145312609E+02  0.18056569097E+02  0.73322674314E+02  0.78417973076E+02  0.00000000000E+00 0.  1.
         11    1    1    2    0    0 -0.78313732572E+02 -0.10598897351E+03  0.31653205598E+03  0.34286913783E+03  0.00000000000E+00 0. -1.
</event>
<event>
 7    1  0.2648915E-009  0.1004356E+03  0.7561462E-02  0.1279383E+00
         -4   -1    0    0    0  501 -0.00000000000E+00  0.00000000000E+00  0.36117126776E+03  0.36117126776E+03  0.00000000000E+00 0.  1.
          4   -1    0    0  501    0  0.00000000000E+00 -0.00000000000E+00 -0.36635485244E+02  0.36635485244E+02  0.00000000000E+00 0. -1.
         25    2    1    2    0    0 -0.24086053419E+02  0.46246161750E+01  0.28360342023E+03  0.31093409606E+03  0.12509031569E+03 0.  0.
          5    1    3    3  502    0 -0.75006670055E+02 -0.57225027716E+01  0.16852007924E+03  0.18459479163E+03  0.41800000000E+01 0. -1.
         -5    1    3    3    0  502  0.50920616636E+02  0.10347118947E+02  0.11508334099E+03  0.12633930443E+03  0.41800000000E+01 0. -1.
        -11    1    1    2    0    0  0.25047266362E+02  0.29819906482E+02  0.91687853709E+01  0.40008236652E+02  0.00000000000E+00 0.  1.
         11    1    1    2    0    0 -0.96121294289E+00 -0.34444522657E+02  0.31763576920E+02  0.46864420301E+02  0.00000000000E+00 0. -1.
</event>
<event>
 7    1  0.2648915E-009  0.2489705E+03  0.7561462E-02  0.1113957E+00
          1   -1    0    0  501    0  0.00000000000E+00  0.00000000000E+00  0.23020135844E+03  0.23020135844E+03  0.00000000000E+00 0. -1.
         -1   -1    0    0    0  501 -0.00000000000E+00 -0.00000000000E+00 -0.31351129140E+03  0.31351129140E+03  0.00000000000E+00 0.  1.
         25    2    1    2    0    0 -0.23851253693E+03 -0.31055261543E+02  0.66354976057E+01  0.27118990639E+03  0.12508907210E+03 0.  0.
          5    1    3    3  502    0 -0.96999111965E+02 -0.10422005565E+02 -0.58672392193E+02  0.11391825107E+03  0.41800000000E+01 0.  1.
         -5    1    3    3    0  502 -0.14151342496E+03 -0.20633255978E+02  0.65307889799E+02  0.15727165532E+03  0.41800000000E+01 0.  1.
        -11    1    1    2    0    0  0.61699698269E+02  0.49976624234E+02 -0.29639122854E+02  0.84752541790E+02  0.00000000000E+00 0. -1.
         11    1    1    2    0    0  0.17681283866E+03 -0.18921362691E+02 -0.60306307719E+02  0.18777020166E+03  0.00000000000E+00 0.  1.
</event>
<event>
 7    1  0.2648915E-009  0.8864769E+02  0.7561462E-02  0.1306160E+00
          2   -1    0    0  501    0  0.00000000000E+00  0.00000000000E+00  0.78011566933E+03  0.78011566933E+03  0.00000000000E+00 0. -1.
         -2   -1    0    0    0  501 -0.00000000000E+00 -0.00000000000E+00 -0.23644322201E+02  0.23644322201E+02  0.00000000000E+00 0.  1.
         25    2    1    2    0    0 -0.45946945172E+02  0.46063823531E+01  0.59217503538E+03  0.60700176993E+03  0.12509011009E+03 0.  0.
          5    1    3    3  502    0 -0.29628749229E+02 -0.26646752691E+02  0.51925586525E+02  0.65586973903E+02  0.41800000000E+01 0. -1.
         -5    1    3    3    0  502 -0.16318195944E+02  0.31253135044E+02  0.54024944885E+03  0.54141479602E+03  0.41800000000E+01 0. -1.
        -11    1    1    2    0    0  0.73103499948E+02 -0.10727857491E+02  0.84509526411E+02  0.11225448180E+03  0.00000000000E+00 0.  1.
         11    1    1    2    0    0 -0.27156554776E+02  0.61214751379E+01  0.79786785340E+02  0.84503739799E+02  0.00000000000E+00 0. -1.
</event>
<event>
 7    1  0.2648915E-009  0.2686258E+03  0.7561462E-02  0.1102069E+00
          2   -1    0    0  501    0  0.00000000000E+00  0.00000000000E+00  0.71527654364E+03  0.71527654364E+03  0.00000000000E+00 0. -1.
         -2   -1    0    0    0  501 -0.00000000000E+00 -0.00000000000E+00 -0.12679285900E+03  0.12679285900E+03  0.00000000000E+00 0.  1.
         25    2    1    2    0    0  0.24908196298E+03  0.27531976046E+02  0.12244926842E+03  0.30567873521E+03  0.12508329958E+03 0.  0.
          5    1    3    3  502    0  0.13178405964E+03 -0.38831372372E+02  0.97591589141E+02  0.16857195653E+03  0.41800000000E+01 0. -1.
         -5    1    3    3    0  502  0.11729790334E+03  0.66363348419E+02  0.24857679283E+02  0.13710677868E+03  0.41800000000E+01 0. -1.
        -11    1    1    2    0    0 -0.13144307185E+03 -0.57657082438E+02  0.27033936702E+03  0.30608004452E+03  0.00000000000E+00 0. -1.
         11    1    1    2    0    0 -0.11763889113E+03  0.30125106391E+02  0.19569504920E+03  0.23031062291E+03  0.00000000000E+00 0.  1.
</event>
<event>
 7    1  0.2648915E-009  0.7849768E+02  0.7561462E-02  0.1333370E+00
         -1   -1    0    0    0  501 -0.00000000000E+00  0.00000000000E+00  0.20951771300E+03  0.20951771300E+03  0.00000000000E+00 0.  1.
          1   -1    0    0  501    0  0.00000000000E+00 -0.00000000000E+00 -0.69178253044E+02  0.69178253044E+02  0.00000000000E+00 0. -1.
         25    2    1    2    0    0  0.30144354802E+02 -0.34276353538E+02  0.11975252790E+03  0.17908925479E+03  0.12509493477E+03 0.  0.
          5    1    3    3  502    0  0.54818814795E+02 -0.21603054658E+02  0.31435817784E+01  0.59153604561E+02  0.41800000000E+01 0. -1.
         -5    1    3    3    0  502 -0.24674459993E+02 -0.12673298880E+02  0.11660894612E+03  0.11993565023E+03  0.41800000000E+01 0. -1.
        -11    1    1    2    0    0 -0.53418150247E+01  0.43188976097E+02  0.45768510607E+02  0.63155199368E+02  0.00000000000E+00 0.  1.
         11    1    1    2    0    0 -0.24802539778E+02 -0.89126225584E+01 -0.25181578552E+02  0.36451511884E+02  0.00000000000E+00 0. -1.
</event>
<event>
 7    1  0.2648915E-009  0.1218270E+03  0.7561462E-02  0.1240113E+00
         -2   -1    0    0    0  501 -0.00000000000E+00  0.00000000000E+00  0.74058618161E+02  0.74058618161E+02  0.00000000000E+00 0. -1.
          2   -1    0    0  501    0  0.00000000000E+00 -0.00000000000E+00 -0.20626515276E+03  0.20626515276E+03  0.00000000000E+00 0.  1.
         25    2    1    2    0    0  0.55856679238E+02  0.10680545035E+02 -0.96216656278E+02  0.16775114739E+03  0.12509500329E+03 0.  0.
          5    1    3    3  502    0  0.66073322212E+02 -0.45118682506E+02 -0.62649186686E+02  0.10170433821E+03  0.41800000000E+01 0. -1.
         -5    1    3    3    0  502 -0.10216642974E+02  0.55799227541E+02 -0.33567469591E+02  0.66046809178E+02  0.41800000000E+01 0. -1.
        -11    1    1    2    0    0 -0.68335282967E+02  0.21906715203E+02 -0.24898164005E+02  0.75957446245E+02  0.00000000000E+00 0.  1.
         11    1    1    2    0    0  0.12478603730E+02 -0.32587260237E+02 -0.11091714312E+02  0.36615177279E+02  0.00000000000E+00 0. -1.
</event>
<event>
 7    1  0.2648915E-009  0.1329050E+03  0.7561462E-02  0.1223208E+00
          2   -1    0    0  501    0  0.00000000000E+00  0.00000000000E+00  0.15483213303E+03  0.15483213303E+03  0.00000000000E+00 0. -1.
         -2   -1    0    0    0  501 -0.00000000000E+00 -0.00000000000E+00 -0.12244075075E+03  0.12244075075E+03  0.00000000000E+00 0.  1.
         25    2    1    2    0    0 -0.65371057949E+02  0.46590792419E+02  0.46532567111E+02  0.15574186071E+03  0.12508465221E+03 0.  0.
          5    1    3    3  502    0 -0.84449399458E+02 -0.13287812555E+02  0.24729528447E+02  0.89091464285E+02  0.41800000000E+01 0.  1.
         -5    1    3    3    0  502  0.19078341508E+02  0.59878604974E+02  0.21803038664E+02  0.66650396423E+02  0.41800000000E+01 0.  1.
        -11    1    1    2    0    0 -0.14481678552E+02 -0.33263139669E+02 -0.17965348812E+02  0.40483443928E+02  0.00000000000E+00 0.  1.
         11    1    1    2    0    0  0.79852736502E+02 -0.13327652750E+02  0.38241639814E+01  0.81047579142E+02  0.00000000000E+00 0. -1.
</event>
<event>
 7    1  0.2648915E-009  0.2399294E+03  0.7561462E-02  0.1119840E+00
          1   -1    0    0  501    0  0.00000000000E+00  0.00000000000E+00  0.12310619206E+03  0.12310619206E+03  0.00000000000E+00 0. -1.
         -1   -1    0    0    0  501 -0.00000000000E+00 -0.00000000000E+00 -0.65713549301E+03  0.65713549301E+03  0.00000000000E+00 0.  1.
         25    2    1    2    0    0  0.74019392500E+02 -0.21028699559E+03 -0.82928251207E+02  0.26874419963E+03  0.12508740546E+03 0.  0.
          5    1    3    3  502    0  0.10151969010E+03 -0.19688818061E+03 -0.57903131707E+02  0.22900097861E+03  0.41800000000E+01 0. -1.
         -5    1    3    3    0  502 -0.27500297599E+02 -0.13398814977E+02 -0.25025119500E+02  0.39743221017E+02  0.41800000000E+01 0. -1.
        -11    1    1    2    0    0 -0.13645898048E+02  0.10637437188E+03 -0.29897689104E+03  0.31763012908E+03  0.00000000000E+00 0.  1.
         11    1    1    2    0    0 -0.60373494452E+02  0.10391262371E+03 -0.15212415871E+03  0.19386735636E+03  0.00000000000E+00 0. -1.
</event>
<event>
 7    1  0.2648915E-009  0.1274007E+03  0.7561462E-02  0.1231364E+00
          2   -1    0    0  501    0  0.00000000000E+00  0.00000000000E+00  0.86428107627E+02  0.86428107627E+02  0.00000000000E+00 0. -1.
         -2   -1    0    0    0  501 -0.00000000000E+00 -0.00000000000E+00 -0.24243660338E+03  0.24243660338E+03  0.00000000000E+00 0.  1.
         25    2    1    2    0    0 -0.75472477669E+02 -0.55640408805E+02 -0.99131241624E+02  0.18511048464E+03  0.12508772314E+03 0.  0.
          5    1    3    3  502    0  0.25906227426E+02  0.15132797387E+02 -0.76276819939E+01  0.31237607284E+02  0.41800000000E+01 0.  1.
         -5    1    3    3    0  502 -0.10137870510E+03 -0.70773206192E+02 -0.91503559630E+02  0.15387287736E+03  0.41800000000E+01 0.  1.
        -11    1    1    2    0    0  0.13055731611E+02  0.31105690031E+02  0.21958180843E+02  0.40251432100E+02  0.00000000000E+00 0. -1.
         11    1    1    2    0    0  0.62416746059E+02  0.24534718775E+02 -0.78835434976E+02  0.10350279427E+03  0.00000000000E+00 0.  1.
</event>
<event>
 7    1  0.2648915E-009  0.2264073E+03  0.7561462E-02  0.1129194E+00
          2   -1    0    0  501    0  0.00000000000E+00  0.00000000000E+00  0.13778144890E+04  0.13778144890E+04  0.00000000000E+00 0. -1.
         -2   -1    0    0    0  501 -0.00000000000E+00 -0.00000000000E+00 -0.42781463599E+02  0.42781463599E+02  0.00000000000E+00 0.  1.
         25    2    1    2    0    0 -0.92579451057E+02  0.19515758965E+03  0.75966391493E+03  0.79962212140E+03  0.12509529899E+03 0.  0.
          5    1    3    3  502    0 -0.10396170541E+03  0.15862920963E+03  0.46128440022E+03  0.49877052101E+03  0.41800000000E+01 0. -1.
         -5    1    3    3    0  502  0.11382254352E+02  0.36528380026E+02  0.29837951470E+03  0.30085160039E+03  0.41800000000E+01 0. -1.
        -11    1    1    2    0    0  0.48217147466E+02 -0.16258200258E+03  0.49757295848E+03  0.52567732487E+03  0.00000000000E+00 0. -1.
         11    1    1    2    0    0  0.44362303591E+02 -0.32575587069E+02  0.77796151977E+02  0.95296506312E+02  0.00000000000E+00 0.  1.
</event>
<event>
 7    1  0.2648915E-009  0.1277792E+03  0.7561462E-02  0.1230789E+00
          1   -1    0    0  501    0  0.00000000000E+00  0.00000000000E+00  0.29673834121E+03  0.29673834121E+03  0.00000000000E+00 0. -1.
         -1   -1    0    0    0  501 -0.00000000000E+00 -0.00000000000E+00 -0.56030334422E+02  0.56030334422E+02  0.00000000000E+00 0.  1.
         25    2    1    2    0    0  0.23391549716E+02 -0.65339524795E+02  0.14210091357E+03  0.20163497853E+03  0.12509027473E+03 0.  0.
          5    1    3    3  502    0  0.63925605573E+02 -0.77466399619E+02  0.10112914531E+03  0.14259068185E+03  0.41800000000E+01 0.  1.
         -5    1    3    3    0  502 -0.40534055857E+02  0.12126874824E+02  0.40971768254E+02  0.59044296685E+02  0.41800000000E+01 0.  1.
        -11    1    1    2    0    0  0.29810436520E+02  0.21096513263E+01  0.14470958269E+02  0.33204237492E+02  0.00000000000E+00 0.  1.
         11    1    1    2    0    0 -0.53201986236E+02  0.63229873468E+02  0.84136134950E+02  0.11792945960E+03  0.00000000000E+00 0. -1.
</event>
<event>
 7    1  0.2648915E-009  0.2509947E+03  0.7561462E-02  0.1112678E+00
          1   -1    0    0  501    0  0.00000000000E+00  0.00000000000E+00  0.77379057248E+03  0.77379057248E+03  0.00000000000E+00 0. -1.
         -1   -1    0    0    0  501 -0.00000000000E+00 -0.00000000000E+00 -0.94092828635E+02  0.94092828635E+02  0.00000000000E+00 0.  1.
         25    2    1    2    0    0  0.23143235978E+03 -0.73115315766E+02  0.27465537505E+03  0.38728530029E+03  0.12509013639E+03 0.  0.
          5    1    3    3  502    0  0.20475677635E+03 -0.28271529368E+02  0.16059724707E+03  0.26178916135E+03  0.41800000000E+01 0. -1.
         -5    1    3    3    0  502  0.26675583430E+02 -0.44843786398E+02  0.11405812798E+03  0.12549613894E+03  0.41800000000E+01 0. -1.
        -11    1    1    2    0    0 -0.14429139507E+03  0.50517543928E+02  0.32889044168E+03  0.36268574767E+03  0.00000000000E+00 0. -1.
         11    1    1    2    0    0 -0.87140964712E+02  0.22597771838E+02  0.76151927117E+02  0.11791235316E+03  0.00000000000E+00 0.  1.
</event>
<event>
 7    1  0.2648915E-009  0.1146318E+03  0.7561462E-02  0.1252225E+00
         -1   -1    0    0    0  501 -0.00000000000E+00  0.00000000000E+00  0.11461351359E+02  0.11461351359E+02  0.00000000000E+00 0.  1.
          1   -1    0    0  501    0  0.00000000000E+00 -0.00000000000E+00 -0.11970892232E+04  0.11970892232E+04  0.00000000000E+00 0. -1.
         25    2    1    2    0    0 -0.56911380063E+01 -0.43865028818E+02 -0.69792890403E+03  0.71042740683E+03  0.12508323423E+03 0.  0.
          5    1    3    3  502    0 -0.11202609553E+02 -0.86141516167E+02 -0.39325179524E+03  0.40275340611E+03  0.41800000000E+01 0.  1.
         -5    1    3    3    0  502  0.55114715466E+01  0.42276487349E+02 -0.30467710879E+03  0.30767400072E+03  0.41800000000E+01 0.  1.
        -11    1    1    2    0    0  0.44939152144E+02  0.67567270286E+01 -0.27163705366E+03  0.27541218142E+03  0.00000000000E+00 0.  1.
         11    1    1    2    0    0 -0.39248014137E+02  0.37108301789E+02 -0.21606191416E+03  0.22271098631E+03  0.00000000000E+00 0. -1.
</event>
<event>
 7    1  0.2648915E-009  0.1330868E+03  0.7561462E-02  0.1222946E+00
         -1   -1    0    0    0  501 -0.00000000000E+00  0.00000000000E+00  0.51882797578E+02  0.51882797578E+02  0.00000000000E+00 0.  1.
          1   -1    0    0  501    0  0.00000000000E+00 -0.00000000000E+00 -0.36159403617E+03  0.36159403617E+03  0.00000000000E+00 0. -1.
         25    2    1    2    0    0  0.27246776971E+02 -0.78047116206E+02 -0.14260993522E+03  0.20692840960E+03  0.12509210155E+03 0.  0.
          5    1    3    3  502    0 -0.50202003649E+02 -0.31951715427E+02 -0.53909776939E+02  0.80404538048E+02  0.41800000000E+01 0. -1.
         -5    1    3    3    0  502  0.77448780620E+02 -0.46095400779E+02 -0.88700158279E+02  0.12652387155E+03  0.41800000000E+01 0. -1.
        -11    1    1    2    0    0  0.87674202630E+00 -0.17077197187E+02 -0.75874841593E+01  0.18707465254E+02  0.00000000000E+00 0.  1.
         11    1    1    2    0    0 -0.28123518997E+02  0.95124313393E+02 -0.15951381921E+03  0.18784095890E+03  0.00000000000E+00 0. -1.
</event>
<event>
 7    1  0.2648915E-009  0.1348546E+03  0.7561462E-02  0.1220425E+00
         -2   -1    0    0    0  501 -0.00000000000E+00  0.00000000000E+00  0.42086199390E+02  0.42086199390E+02  0.00000000000E+00 0.  1.
          2   -1    0    0  501    0  0.00000000000E+00 -0.00000000000E+00 -0.61170940964E+03  0.61170940964E+03  0.00000000000E+00 0. -1.
         25    2    1    2    0    0 -0.68661288838E+02  0.81397090187E+02 -0.21133158705E+03  0.26767099592E+03  0.12508742340E+03 0.  0.
          5    1    3    3  502    0 -0.51327423502E+02  0.68221381249E+01 -0.10907180973E+02  0.53079986518E+02  0.41800000000E+01 0.  1.
         -5    1    3    3    0  502 -0.17333865336E+02  0.74574952063E+02 -0.20042440608E+03  0.21459100940E+03  0.41800000000E+01 0.  1.
        -11    1    1    2    0    0 -0.19947031782E+02  0.11551684631E+01 -0.28549557945E+02  0.34846746619E+02  0.00000000000E+00 0.  1.
         11    1    1    2    0    0  0.88608320620E+02 -0.82552258651E+02 -0.32974206526E+03  0.35127786650E+03  0.00000000000E+00 0. -1.
</event>
<event>
 7    1  0.2648915E-009  0.1215839E+03  0.7561462E-02  0.1240507E+00
         -2   -1    0    0    0  501 -0.00000000000E+00  0.00000000000E+00  0.11016862059E+04  0.11016862059E+04  0.00000000000E+00 0.  1.
          2   -1    0    0  501    0  0.00000000000E+00 -0.00000000000E+00 -0.15721698020E+02  0.15721698020E+02  0.00000000000E+00 0. -1.
         25    2    1    2    0    0 -0.35885588179E+02  0.48975618483E+02  0.77940141210E+03  0.79170759121E+03  0.12509181489E+03 0.  0.
          5    1    3    3  502    0 -0.19024395316E+02  0.90884092865E+02  0.48418654704E+03  0.49302731232E+03  0.41800000000E+01 0.  1.
         -5    1    3    3    0  502 -0.16861192863E+02 -0.41908474382E+02  0.29521486505E+03  0.29868027889E+03  0.41800000000E+01 0.  1.
        -11    1    1    2    0    0 -0.15960131187E+02 -0.50523883818E+02  0.10554263916E+03  0.11809588183E+03  0.00000000000E+00 0. -1.
         11    1    1    2    0    0  0.51845719366E+02  0.15482653348E+01  0.20102045658E+03  0.20760443085E+03  0.00000000000E+00 0.  1.
</event>
<event>
 7    1  0.2648915E-009  0.1801149E+03  0.7561462E-02  0.1167692E+00
          2   -1    0    0  501    0  0.00000000000E+00  0.00000000000E+00  0.76202550079E+03  0.76202550079E+03  0.00000000000E+00 0. -1.
         -2   -1    0    0    0  501 -0.00000000000E+00 -0.00000000000E+00 -0.49090855569E+02  0.49090855569E+02  0.00000000000E+00 0.  1.
         25    2    1    2    0    0  0.44617245548E+02 -0.15512502597E+03  0.38287907369E+03  0.43393344712E+03  0.12508948468E+03 0.  0.
          5    1    3    3  502    0  0.73889923636E+02 -0.94572717782E+02  0.31990334855E+03  0.34170066517E+03  0.41800000000E+01 0.  1.
         -5    1    3    3    0  502 -0.29272678087E+02 -0.60552308187E+02  0.62975725133E+02  0.92232781944E+02  0.41800000000E+01 0.  1.
        -11    1    1    2    0    0 -0.58689498065E+02  0.14140732472E+03  0.32079686279E+03  0.35545902133E+03  0.00000000000E+00 0. -1.
         11    1    1    2    0    0  0.14072252517E+02  0.13717701251E+02  0.92587087434E+01  0.21723887914E+02  0.00000000000E+00 0.  1.
</event>
<event>
 7    1  0.2648915E-009  0.1146963E+03  0.7561462E-02  0.1252112E+00
         -2   -1    0    0    0  501 -0.00000000000E+00  0.00000000000E+00  0.56072198907E+02  0.56072198907E+02  0.00000000000E+00 0.  1.
          2   -1    0    0  501    0  0.00000000000E+00 -0.00000000000E+00 -0.35340777421E+03  0.35340777421E+03  0.00000000000E+00 0. -1.
         25    2    1    2    0    0 -0.43961437220E+02  0.75800115299E+02 -0.18970470921E+03  0.24354180673E+03  0.12508584847E+03 0.  0.
          5    1    3    3  502    0 -0.71464069159E+02  0.34693037556E+02 -0.17426069275E+03  0.19155934191E+03  0.41800000000E+01 0.  1.
         -5    1    3    3    0  502  0.27502631940E+02  0.41107077743E+02 -0.15444016455E+02  0.51982464817E+02  0.41800000000E+01 0.  1.
        -11    1    1    2    0    0  0.42145845973E+02 -0.24248250643E+02 -0.23276575961E+01  0.48679235634E+02  0.00000000000E+00 0.  1.
         11    1    1    2    0    0  0.18155912460E+01 -0.51551864656E+02 -0.10530320850E+03  0.11725893076E+03  0.00000000000E+00 0. -1.
</event>
<event>
 7    1  0.2648915E-009  0.8422304E+02  0.7561462E-02  0.1317477E+00
         -2   -1    0    0    0  501 -0.00000000000E+00  0.00000000000E+00  0.14139757272E+03  0.14139757272E+03  0.00000000000E+00 0.  1.
          2   -1    0    0  501    0  0.00000000000E+00 -0.00000000000E+00 -0.43308221595E+03  0.43308221595E+03  0.00000000000E+00 0. -1.
         25    2    1    2    0    0 -0.78399715911E+01 -0.45285941161E+02  0.10119284747E+03  0.16733529512E+03  0.12509527166E+03 0.  0.
          5    1    3    3  502    0 -0.27792826131E+01 -0.61986074308E+02  0.12375849489E+03  0.13850500091E+03  0.41800000000E+01 0.  1.
         -5    1    3    3    0  502 -0.50606889780E+01  0.16700133147E+02 -0.22565647427E+02  0.28830294203E+02  0.41800000000E+01 0.  1.
        -11    1    1    2    0    0  0.38462348574E+01 -0.21281472065E+02 -0.24078019997E+02  0.32364264595E+02  0.00000000000E+00 0.  1.
         11    1    1    2    0    0  0.39937367337E+01  0.66567413226E+02 -0.36879947070E+03  0.37478022897E+03  0.00000000000E+00 0. -1.
</event>
<event>
 7    1  0.2648915E-009  0.1028269E+03  0.7561462E-02  0.1274461E+00
         -1   -1    0    0    0  501 -0.00000000000E+00  0.00000000000E+00  0.80337974326E+02  0.80337974326E+02  0.00000000000E+00 0.  1.
          1   -1    0    0  501    0  0.00000000000E+00 -0.00000000000E+00 -0.20990322604E+03  0.20990322604E+03  0.00000000000E+00 0. -1.
         25    2    1    2    0    0 -0.61248562254E+02 -0.29590344754E+02 -0.51204348290E+02  0.15131776618E+03  0.12509279035E+03 0.  0.
          5    1    3    3  502    0 -0.35804166790E+02 -0.65107087126E+02 -0.71284426036E+02  0.10305247667E+03  0.41800000000E+01 0.  1.
         -5    1    3    3    0  502 -0.25444395464E+02  0.35516742371E+02  0.20080077745E+02  0.48265289510E+02  0.41800000000E+01 0.  1.
        -11    1    1    2    0    0  0.71710559857E+02  0.25461385363E+02 -0.18900515971E+02  0.78408647761E+02  0.00000000000E+00 0.  1.
         11    1    1    2    0    0 -0.10461997603E+02  0.41289593909E+01 -0.59460387454E+02  0.60514786422E+02  0.00000000000E+00 0. -1.
</event>
<event>
 7    1  0.2648915E-009  0.1499469E+03  0.7561462E-02  0.1200538E+00
         -2   -1    0    0    0  501 -0.00000000000E+00  0.00000000000E+00  0.35155012341E+02  0.35155012341E+02  0.00000000000E+00 0.  1.
          2   -1    0    0  501    0  0.00000000000E+00 -0.00000000000E+00 -0.97125944669E+03  0.97125944669E+03  0.00000000000E+00 0. -1.
         25    2    1    2    0    0 -0.12241970834E+03 -0.51384795170E+02 -0.30592787154E+03  0.35618365704E+03  0.12509177748E+03 0.  0.
          5    1    3    3  502    0 -0.33266524064E+02 -0.35884555436E+02 -0.23785013528E+03  0.24286729338E+03  0.41800000000E+01 0.  1.
         -5    1    3    3    0  502 -0.89153184281E+02 -0.15500239734E+02 -0.68077736266E+02  0.11331636366E+03  0.41800000000E+01 0.  1.
        -11    1    1    2    0    0  0.35646828878E+01 -0.20823129927E+02 -0.88519132994E+02  0.91005201006E+02  0.00000000000E+00 0. -1.
         11    1    1    2    0    0  0.11885502546E+03  0.72207925096E+02 -0.54165742981E+03  0.55922560098E+03  0.00000000000E+00 0.  1.
</event>
<event>
 7    1  0.2648915E-009  0.1370772E+03  0.7561462E-02  0.1217317E+00
         -1   -1    0    0    0  501 -0.00000000000E+00  0.00000000000E+00  0.54988751272E+02  0.54988751272E+02  0.00000000000E+00 0.  1.
          1   -1    0    0  501    0  0.00000000000E+00 -0.00000000000E+00 -0.69358216737E+03  0.69358216737E+03  0.00000000000E+00 0. -1.
         25    2    1    2    0    0 -0.10900284914E+03  0.69879135824E+02 -0.14819116979E+03  0.23318067340E+03  0.12509152209E+03 0.  0.
          5    1    3    3  502    0 -0.71400162386E+02  0.54391709606E+02 -0.11597350564E+02  0.90600288094E+02  0.41800000000E+01 0. -1.
         -5    1    3    3    0  502 -0.37602686753E+02  0.15487426218E+02 -0.13659381923E+03  0.14258038530E+03  0.41800000000E+01 0. -1.
        -11    1    1    2    0    0  0.10332996357E+03 -0.36541188314E+02 -0.44769412507E+03  0.46091470950E+03  0.00000000000E+00 0. -1.
         11    1    1    2    0    0  0.56728855693E+01 -0.33337947510E+02 -0.42708121241E+02  0.54475535746E+02  0.00000000000E+00 0.  1.
</event>
<event>
 7    1  0.2648915E-009  0.1412847E+03  0.7561462E-02  0.1211611E+00
          4   -1    0    0  501    0  0.00000000000E+00  0.00000000000E+00  0.10792554746E+03  0.10792554746E+03  0.00000000000E+00 0. -1.
         -4   -1    0    0    0  501 -0.00000000000E+00 -0.00000000000E+00 -0.24248199937E+03  0.24248199937E+03  0.00000000000E+00 0.  1.
         25    2    1    2    0    0 -0.96501771858E+02 -0.32899329193E+02 -0.13842233090E+03  0.21261086748E+03  0.12509069288E+03 0.  0.
          5    1    3    3  502    0  0.16089935466E+01 -0.59318087870E+02 -0.56226257570E+02  0.81854070449E+02  0.41800000000E+01 0. -1.
         -5    1    3    3    0  502 -0.98110765404E+02  0.26418758677E+02 -0.82196073333E+02  0.13075679703E+03  0.41800000000E+01 0. -1.
        -11    1    1    2    0    0  0.96072555574E+02  0.79095559415E+01 -0.25027236096E+02  0.99593471454E+02  0.00000000000E+00 0.  1.
         11    1    1    2    0    0  0.42921628441E+00  0.24989773251E+02  0.28893115090E+02  0.38203207894E+02  0.00000000000E+00 0. -1.
</event>
<event>
 7    1  0.2648915E-009  0.1079909E+03  0.7561462E-02  0.1264336E+00
         -3   -1    0    0    0  501 -0.00000000000E+00  0.00000000000E+00  0.17260969657E+03  0.17260969657E+03  0.00000000000E+00 0.  1.
          3   -1    0    0  501    0  0.00000000000E+00 -0.00000000000E+00 -0.12968414156E+03  0.12968414156E+03  0.00000000000E+00 0. -1.
         25    2    1    2    0    0  0.77857896459E+01 -0.88987184174E+02 -0.14832669514E+02  0.15442510969E+03  0.12509104264E+03 0.  0.
          5    1    3    3  502    0 -0.17234191028E+02  0.12007019037E+02  0.33391612702E+02  0.39669359024E+02  0.41800000000E+01 0.  1.
         -5    1    3    3    0  502  0.25019980674E+02 -0.10099420321E+03 -0.48224282217E+02  0.11475575066E+03  0.41800000000E+01 0.  1.
        -11    1    1    2    0    0  0.40299456420E+01  0.30539964535E+02 -0.29189844242E+02  0.42437918216E+02  0.00000000000E+00 0. -1.
         11    1    1    2    0    0 -0.11815735288E+02  0.58447219639E+02  0.86948068761E+02  0.10543081023E+03  0.00000000000E+00 0.  1.
</event>
<event>
 7    1  0.2648915E-009  0.1445444E+03  0.7561462E-02  0.1207342E+00
          2   -1    0    0  501    0  0.00000000000E+00  0.00000000000E+00  0.44643892668E+02  0.44643892668E+02  0.00000000000E+00 0. -1.
         -2   -1    0    0    0  501 -0.00000000000E+00 -0.00000000000E+00 -0.80975345243E+03  0.80975345243E+03  0.00000000000E+00 0.  1.
         25    2    1    2    0    0 -0.90876527602E+02  0.81954011941E+02 -0.60772614063E+03  0.63242002521E+03  0.12509605482E+03 0.  0.
          5    1    3    3  502    0 -0.96165681456E+02  0.36651743842E+02 -0.54559393478E+03  0.55523094536E+03  0.41800000000E+01 0. -1.
         -5    1    3    3    0  502  0.52891538543E+01  0.45302268099E+02 -0.62132205848E+02  0.77189079843E+02  0.41800000000E+01 0. -1.
        -11    1    1    2    0    0  0.17915208438E+02 -0.62160605949E+02 -0.12289919869E+03  0.13888523559E+03  0.00000000000E+00 0.  1.
         11    1    1    2    0    0  0.72961319164E+02 -0.19793405992E+02 -0.34484220442E+02  0.83092084307E+02  0.00000000000E+00 0. -1.
</event>
<event>
 7    1  0.2648915E-009  0.1145296E+03  0.7561462E-02  0.1252404E+00
         -1   -1    0    0    0  501 -0.00000000000E+00  0.00000000000E+00  0.21601306998E+02  0.21601306998E+02  0.00000000000E+00 0.  1.
          1   -1    0    0  501    0  0.00000000000E+00 -0.00000000000E+00 -0.95643485719E+03  0.95643485719E+03  0.00000000000E+00 0. -1.
         25    2    1    2    0    0  0.69982475975E+02  0.59983664329E+02 -0.57443951253E+03  0.59508360338E+03  0.12509258383E+03 0.  0.
          5    1    3    3  502    0  0.21574187224E+01 -0.96052234068E+01  0.16668977879E+01  0.10824311547E+02  0.41800000000E+01 0.  1.
         -5    1    3    3    0  502  0.67825057252E+02  0.69588887735E+02 -0.57610641032E+03  0.58425929184E+03  0.41800000000E+01 0.  1.
        -11    1    1    2    0    0 -0.98902072279E+01  0.19258327344E+02 -0.24738080310E+02  0.32873575840E+02  0.00000000000E+00 0. -1.
         11    1    1    2    0    0 -0.60092268747E+02 -0.79241991672E+02 -0.33565595735E+03  0.35007898497E+03  0.00000000000E+00 0.  1.
</event>
<event>
 7    1  0.2648915E-009  0.1124720E+03  0.7561462E-02  0.1256059E+00
         -1   -1    0    0    0  501 -0.00000000000E+00  0.00000000000E+00  0.63552131230E+02  0.63552131230E+02  0.00000000000E+00 0.  1.
          1   -1    0    0  501    0  0.00000000000E+00 -0.00000000000E+00 -0.24230169576E+03  0.24230169576E+03  0.00000000000E+00 0. -1.
         25    2    1    2    0    0  0.55659440669E+02  0.18382818051E+02 -0.79450260155E+02  0.15936159590E+03  0.12509145884E+03 0.  0.
          5    1    3    3  502    0  0.34799779690E+01  0.54433843121E+02  0.35503594394E+01  0.54819987009E+02  0.41800000000E+01 0.  1.
         -5    1    3    3    0  502  0.52179462700E+02 -0.36051025069E+02 -0.83000619595E+02  0.10454160889E+03  0.41800000000E+01 0.  1.
        -11    1    1    2    0    0 -0.38917782141E+02  0.34005223582E+02 -0.38072219544E+02  0.64190676103E+02  0.00000000000E+00 0.  1.
         11    1    1    2    0    0 -0.16741658528E+02 -0.52388041634E+02 -0.61227084835E+02  0.82301554991E+02  0.00000000000E+00 0. -1.
</event>
<event>
 7    1  0.2648915E-009  0.1221156E+03  0.7561462E-02  0.1239647E+00
         -2   -1    0    0    0  501 -0.00000000000E+00  0.00000000000E+00  0.76323551694E+02  0.76323551694E+02  0.00000000000E+00 0.  1.
          2   -1    0    0  501    0  0.00000000000E+00 -0.00000000000E+00 -0.39865511776E+03  0.39865511776E+03  0.00000000000E+00 0. -1.
         25    2    1    2    0    0 -0.24678214223E+01 -0.88284721222E+02 -0.30322908903E+02  0.15610880087E+03  0.12510074645E+03 0.  0.
          5    1    3    3  502    0  0.25968945932E+02 -0.34082251969E+01  0.35934603583E+02  0.44662851303E+02  0.41800000000E+01 0.  1.
         -5    1    3    3    0  502 -0.28436767354E+02 -0.84876496025E+02 -0.66257512486E+02  0.11144594957E+03  0.41800000000E+01 0.  1.
        -11    1    1    2    0    0 -0.44432602708E+02  0.31591204283E+02 -0.12465994120E+03  0.13606013858E+03  0.00000000000E+00 0. -1.
         11    1    1    2    0    0  0.46900424131E+02  0.56693516939E+02 -0.16734871596E+03  0.18280972999E+03  0.00000000000E+00 0.  1.
</event>
<event>
 7    1  0.2648915E-009  0.9173792E+02  0.7561462E-02  0.1298697E+00
         -1   -1    0    0    0  501 -0.00000000000E+00  0.00000000000E+00  0.34894513204E+02  0.34894513204E+02  0.00000000000E+00 0.  1.
          1   -1    0    0  501    0  0.00000000000E+00 -0.00000000000E+00 -0.39344314335E+03  0.39344314335E+03  0.00000000000E+00 0. -1.
         25    2    1    2    0    0  0.29410249234E+02  0.34750352562E+01 -0.25532562757E+03  0.28586251790E+03  0.12509662034E+03 0.  0.
          5    1    3    3  502    0 -0.12709346149E+02  0.41686651277E+02 -0.20558029756E+03  0.21019047437E+03  0.41800000000E+01 0. -1.
         -5    1    3    3    0  502  0.42119595383E+02 -0.38211616020E+02 -0.49745330010E+02  0.75672043530E+02  0.41800000000E+01 0. -1.
        -11    1    1    2    0    0  0.21898764604E+02 -0.19076938117E+02 -0.35084089543E+01  0.29253963706E+02  0.00000000000E+00 0.  1.
         11    1    1    2    0    0 -0.51309013838E+02  0.15601902861E+02 -0.99714593621E+02  0.11322117494E+03  0.00000000000E+00 0. -1.
</event>
<event>
 7    1  0.2648915E-009  0.1030225E+03  0.7561462E-02  0.1274065E+00
          2   -1    0    0  501    0  0.00000000000E+00  0.00000000000E+00  0.24825272150E+02  0.24825272150E+02  0.00000000000E+00 0. -1.
         -2   -1    0    0    0  501 -0.00000000000E+00 -0.00000000000E+00 -0.62005250870E+03  0.62005250870E+03  0.00000000000E+00 0.  1.
         25    2    1    2    0    0 -0.49233748619E+02 -0.22843243515E+02 -0.39917902854E+03  0.42182603654E+03  0.12509009751E+03 0.  0.
          5    1    3    3  502    0 -0.68076026616E+02  0.33939916240E+02 -0.21190050316E+03  0.22517894873E+03  0.41800000000E+01 0. -1.
         -5    1    3    3    0  502  0.18842277997E+02 -0.56783159755E+02 -0.18727852539E+03  0.19664708781E+03  0.41800000000E+01 0. -1.
        -11    1    1    2    0    0  0.10233890365E+02  0.28683495036E+02 -0.17636971295E+03  0.17897975038E+03  0.00000000000E+00 0.  1.
         11    1    1    2    0    0  0.38999858255E+02 -0.58402515208E+01 -0.19678495060E+02  0.44071993936E+02  0.00000000000E+00 0. -1.
</event>
<event>
 7    1  0.2648915E-009  0.7482190E+02  0.7561462E-02  0.1344423E+00
          1   -1    0    0  501    0  0.00000000000E+00  0.00000000000E+00  0.36574224162E+03  0.36574224162E+03  0.00000000000E+00 0. -1.
         -1   -1    0    0    0  501 -0.00000000000E+00 -0.00000000000E+00 -0.41617500722E+02  0.41617500722E+02  0.00000000000E+00 0.  1.
         25    2    1    2    0    0  0.45191572966E+01  0.38997218279E+02  0.25883545878E+03  0.29014573885E+03  0.12509016443E+03 0.  0.
          5    1    3    3  502    0 -0.27739901174E+02  0.12204442666E+02  0.24332362623E+03  0.24523929135E+03  0.41800000000E+01 0.  1.
         -5    1    3    3    0  502  0.32259058470E+02  0.26792775614E+02  0.15511832544E+02  0.44906447503E+02  0.41800000000E+01 0.  1.
        -11    1    1    2    0    0  0.29114339958E+02 -0.30610906477E+02 -0.11662570043E+01  0.42261478227E+02  0.00000000000E+00 0.  1.
         11    1    1    2    0    0 -0.33633497254E+02 -0.83863118024E+01  0.66455539128E+02  0.74952525267E+02  0.00000000000E+00 0. -1.
</event>
<event>
 7    1  0.2648915E-009  0.1190130E+03  0.7561462E-02  0.1244734E+00
          2   -1    0    0  501    0  0.00000000000E+00  0.00000000000E+00  0.74849291228E+03  0.74849291228E+03  0.00000000000E+00 0. -1.
         -2   -1    0    0    0  501 -0.00000000000E+00 -0.00000000000E+00 -0.28573634158E+02  0.28573634158E+02  0.00000000000E+00 0.  1.
         25    2    1    2    0    0 -0.33307602085E+02  0.89269939682E+02  0.40896567584E+03  0.43815512062E+03  0.12509383370E+03 0.  0.
          5    1    3    3  502    0 -0.31264338312E+02  0.29189896457E+02  0.25476505353E+02  0.49960320558E+02  0.41800000000E+01 0. -1.
         -5    1    3    3    0  502 -0.20432637733E+01  0.60080043225E+02  0.38348917048E+03  0.38819480007E+03  0.41800000000E+01 0. -1.
        -11    1    1    2    0    0 -0.33713161279E+02 -0.34484006110E+02  0.11032090960E+03  0.12040110886E+03  0.00000000000E+00 0.  1.
         11    1    1    2    0    0  0.67020763363E+02 -0.54785933572E+02  0.20063269269E+03  0.21851031695E+03  0.00000000000E+00 0. -1.
</event>
<event>
 7    1  0.2757307E-009  0.1786655E+03  0.7561462E-02  0.1169101E+00
         -1   -1    0    0    0  501 -0.00000000000E+00  0.00000000000E+00  0.11813109084E+03  0.11813109084E+03  0.00000000000E+00 0.  1.
          1   -1    0    0  501    0  0.00000000000E+00 -0.00000000000E+00 -0.31023537365E+03  0.31023537365E+03  0.00000000000E+00 0. -1.
         25    2    1    2    0    0 -0.23598019323E+02 -0.15450237199E+03 -0.83467261439E+02  0.21689166815E+03  0.12508941807E+03 0.  0.
          5    1    3    3  502    0 -0.71762786285E+02 -0.12044133081E+03 -0.67357720263E+02  0.15559738604E+03  0.41800000000E+01 0. -1.
         -5    1    3    3    0  502  0.48164766962E+02 -0.34061041184E+02 -0.16109541177E+02  0.61294282115E+02  0.41800000000E+01 0. -1.
        -11    1    1    2    0    0 -0.39108524269E+01  0.39028867528E+02  0.13186160666E+02  0.41381422164E+02  0.00000000000E+00 0.  1.
         11    1    1    2    0    0  0.27508871750E+02  0.11547350446E+03 -0.12182318204E+03  0.17009337418E+03  0.00000000000E+00 0. -1.
</event>
<event>
 7    1  0.2648915E-009  0.1096160E+03  0.7561462E-02  0.1261283E+00
         -1   -1    0    0    0  501 -0.00000000000E+00  0.00000000000E+00  0.47460483153E+02  0.47460483153E+02  0.00000000000E+00 0.  1.
          1   -1    0    0  501    0  0.00000000000E+00 -0.00000000000E+00 -0.31568202658E+03  0.31568202658E+03  0.00000000000E+00 0. -1.
         25    2    1    2    0    0  0.47984667485E+02  0.20858048730E+02 -0.19611959086E+03  0.23842783470E+03  0.12508937577E+03 0.  0.
          5    1    3    3  502    0  0.87312225800E+02  0.27042873480E+02 -0.16096014655E+03  0.18514962316E+03  0.41800000000E+01 0.  1.
         -5    1    3    3    0  502 -0.39327558315E+02 -0.61848247505E+01 -0.35159444306E+02  0.53278211532E+02  0.41800000000E+01 0.  1.
        -11    1    1    2    0    0 -0.65543575513E+02 -0.24124529412E+02 -0.24735982984E+02  0.74093333469E+02  0.00000000000E+00 0.  1.
         11    1    1    2    0    0  0.17558908028E+02  0.32664806823E+01 -0.47365969587E+02  0.50621341567E+02  0.00000000000E+00 0. -1.
</event>
<event>
 7    1  0.2648915E-009  0.1113194E+03  0.7561462E-02  0.1258146E+00
          3   -1    0    0  501    0  0.00000000000E+00  0.00000000000E+00  0.75138600258E+03  0.75138600258E+03  0.00000000000E+00 0. -1.
         -3   -1    0    0    0  501 -0.00000000000E+00 -0.00000000000E+00 -0.19640522843E+02  0.19640522843E+02  0.00000000000E+00 0.  1.
         25    2    1    2    0    0  0.15825905833E+02  0.38541482566E+02  0.50520591606E+03  0.52212716670E+03  0.12509138825E+03 0.  0.
          5    1    3    3  502    0  0.14670715829E+02  0.84292333645E+02  0.34323970546E+03  0.35376743097E+03  0.41800000000E+01 0.  1.
         -5    1    3    3    0  502  0.11551900042E+01 -0.45750851080E+02  0.16196621060E+03  0.16835973573E+03  0.41800000000E+01 0.  1.
        -11    1    1    2    0    0 -0.33447354782E+02 -0.56629102904E+02  0.98807044827E+02  0.11869462054E+03  0.00000000000E+00 0.  1.
         11    1    1    2    0    0  0.17621448949E+02  0.18087620338E+02  0.12773251885E+03  0.13020473818E+03  0.00000000000E+00 0. -1.
</event>
<event>
 7    1  0.2648915E-009  0.8884746E+02  0.7561462E-02  0.1305667E+00
          4   -1    0    0  501    0  0.00000000000E+00  0.00000000000E+00  0.84022566423E+02  0.84022566423E+02  0.00000000000E+00 0. -1.
         -4   -1    0    0    0  501 -0.00000000000E+00 -0.00000000000E+00 -0.12190839402E+03  0.12190839402E+03  0.00000000000E+00 0.  1.
         25    2    1    2    0    0 -0.97685551634E+01  0.32260683208E+02 -0.29339593094E+02  0.13283497393E+03  0.12509253465E+03 0.  0.
          5    1    3    3  502    0  0.36232734519E+02  0.47881578994E+02 -0.51555256464E+02  0.79251962289E+02  0.41800000000E+01 0.  1.
         -5    1    3    3    0  502 -0.46001289683E+02 -0.15620895786E+02  0.22215663370E+02  0.53583011642E+02  0.41800000000E+01 0.  1.
        -11    1    1    2    0    0  0.35108582581E+02 -0.15609777631E+02  0.69478490903E+01  0.39045490591E+02  0.00000000000E+00 0.  1.
         11    1    1    2    0    0 -0.25340027417E+02 -0.16650905578E+02 -0.15494083592E+02  0.34050495920E+02  0.00000000000E+00 0. -1.
</event>
<event>
 7    1  0.2648915E-009  0.1996913E+03  0.7561462E-02  0.1150000E+00
          1   -1    0    0  501    0  0.00000000000E+00  0.00000000000E+00  0.16771659947E+03  0.16771659947E+03  0.00000000000E+00 0. -1.
         -1   -1    0    0    0  501 -0.00000000000E+00 -0.00000000000E+00 -0.29369170911E+03  0.29369170911E+03  0.00000000000E+00 0.  1.
         25    2    1    2    0    0  0.16803187211E+03  0.95009541961E+02 -0.67565954269E+02  0.23973587630E+03  0.12508640654E+03 0.  0.
          5    1    3    3  502    0  0.15110687771E+03  0.78875218523E+02 -0.25584958118E+01  0.17052450525E+03  0.41800000000E+01 0. -1.
         -5    1    3    3    0  502  0.16924994398E+02  0.16134323438E+02 -0.65007458457E+02  0.69211371055E+02  0.41800000000E+01 0. -1.
        -11    1    1    2    0    0 -0.12260232941E+02 -0.36871024214E+02  0.12640758857E+02  0.40860427345E+02  0.00000000000E+00 0.  1.
         11    1    1    2    0    0 -0.15577163917E+03 -0.58138517747E+02 -0.71049914233E+02  0.18081200493E+03  0.00000000000E+00 0. -1.
</event>
<event>
 7    1  0.2648915E-009  0.8139129E+02  0.7561462E-02  0.1325149E+00
          4   -1    0    0  501    0  0.00000000000E+00  0.00000000000E+00  0.57657627288E+02  0.57657627288E+02  0.00000000000E+00 0. -1.
         -4   -1    0    0    0  501 -0.00000000000E+00 -0.00000000000E+00 -0.24553690180E+03  0.24553690180E+03  0.00000000000E+00 0.  1.
         25    2    1    2    0    0  0.48736438056E+02  0.11197399566E+02 -0.98007948570E+02  0.16659349263E+03  0.12508881505E+03 0.  0.
          5    1    3    3  502    0  0.39400684986E+02 -0.26640452775E+02 -0.11451015920E+03  0.12406521132E+03  0.41800000000E+01 0.  1.
         -5    1    3    3    0  502  0.93357530696E+01  0.37837852342E+02  0.16502210626E+02  0.42528281305E+02  0.41800000000E+01 0.  1.
        -11    1    1    2    0    0 -0.61783332661E+02 -0.72320729373E+01 -0.10125601362E+03  0.11883712959E+03  0.00000000000E+00 0.  1.
         11    1    1    2    0    0  0.13046894605E+02 -0.39653266291E+01  0.11384687675E+02  0.17763906878E+02  0.00000000000E+00 0. -1.
</event>
<event>
 7    1  0.2648915E-009  0.9263693E+02  0.7561462E-02  0.1296589E+00
          2   -1    0    0  501    0  0.00000000000E+00  0.00000000000E+00  0.67015100593E+03  0.67015100593E+03  0.00000000000E+00 0. -1.
         -2   -1    0    0    0  501 -0.00000000000E+00 -0.00000000000E+00 -0.21700432381E+02  0.21700432381E+02  0.00000000000E+00 0.  1.
         25    2    1    2    0    0 -0.26651193309E+02  0.29289625401E+02  0.48042650091E+03  0.49802128953E+03  0.12508962301E+03 0.  0.
          5    1    3    3  502    0 -0.25486532949E+02 -0.38998038112E+02  0.32297141612E+03  0.32634095417E+03  0.41800000000E+01 0. -1.
         -5    1    3    3    0  502 -0.11646603594E+01  0.68287663514E+02  0.15745508479E+03  0.17168033535E+03  0.41800000000E+01 0. -1.
        -11    1    1    2    0    0 -0.18158848888E+02 -0.13251715851E+02  0.37375874690E+01  0.22788622732E+02  0.00000000000E+00 0.  1.
         11    1    1    2    0    0  0.44810042197E+02 -0.16037909551E+02  0.16428648517E+03  0.17104152605E+03  0.00000000000E+00 0. -1.
</event>
<event>
 7    1  0.2648915E-009  0.1084761E+03  0.7561462E-02  0.1263418E+00
         -2   -1    0    0    0  501 -0.00000000000E+00  0.00000000000E+00  0.13986070714E+03  0.13986070714E+03  0.00000000000E+00 0.  1.
          2   -1    0    0  501    0  0.00000000000E+00 -0.00000000000E+00 -0.96260025506E+02  0.96260025506E+02  0.00000000000E+00 0. -1.
         25    2    1    2    0    0 -0.10736557190E+02  0.35868809132E+02  0.45615869475E+01  0.13064957973E+03  0.12508660792E+03 0.  0.
          5    1    3    3  502    0 -0.63164340059E+02  0.33237175270E+02 -0.17414713386E+02  0.73587963128E+02  0.41800000000E+01 0.  1.
         -5    1    3    3    0  502  0.52427782869E+02  0.26316338624E+01  0.21976300334E+02  0.57061616606E+02  0.41800000000E+01 0.  1.
        -11    1    1    2    0    0  0.12800636753E+02 -0.63656316472E+02  0.42183599781E+02  0.77430220318E+02  0.00000000000E+00 0.  1.
         11    1    1    2    0    0 -0.20640795626E+01  0.27787507340E+02 -0.31445050923E+01  0.28040932597E+02  0.00000000000E+00 0. -1.
</event>
<event>
 7    1  0.2648915E-009  0.1623011E+03  0.7561462E-02  0.1186123E+00
          3   -1    0    0  501    0  0.00000000000E+00  0.00000000000E+00  0.12272313839E+03  0.12272313839E+03  0.00000000000E+00 0. -1.
         -3   -1    0    0    0  501 -0.00000000000E+00 -0.00000000000E+00 -0.29557571566E+03  0.29557571566E+03  0.00000000000E+00 0.  1.
         25    2    1    2    0    0  0.10090462609E+03 -0.10744218292E+03 -0.15524083776E+03  0.24793497535E+03  0.12508584274E+03 0.  0.
          5    1    3    3  502    0  0.55891222581E+02 -0.25072326272E+02 -0.13983402715E+03  0.15272026013E+03  0.41800000000E+01 0.  1.
         -5    1    3    3    0  502  0.45013403511E+02 -0.82369856652E+02 -0.15406810616E+02  0.95214715218E+02  0.41800000000E+01 0.  1.
        -11    1    1    2    0    0 -0.58552562189E+01 -0.13913097192E+02 -0.40029040601E+01  0.15616707072E+02  0.00000000000E+00 0.  1.
         11    1    1    2    0    0 -0.95049369873E+02  0.12135528012E+03 -0.13608835455E+02  0.15474717163E+03  0.00000000000E+00 0. -1.
</event>
<event>
 7    1  0.2648915E-009  0.6801068E+02  0.7561462E-02  0.1366992E+00
         -1   -1    0    0    0  501 -0.00000000000E+00  0.00000000000E+00  0.26638767558E+03  0.26638767558E+03  0.00000000000E+00 0.  1.
          1   -1    0    0  501    0  0.00000000000E+00 -0.00000000000E+00 -0.56179140047E+02  0.56179140047E+02  0.00000000000E+00 0. -1.
         25    2    1    2    0    0 -0.38169745097E+02 -0.36978328375E+02  0.14382689412E+03  0.19788325471E+03  0.12508909150E+03 0.  0.
          5    1    3    3  502    0 -0.17659318598E+02 -0.25321978814E+02  0.16377224133E+03  0.16670894870E+03  0.41800000000E+01 0.  1.
         -5    1    3    3    0  502 -0.20510426499E+02 -0.11656349561E+02 -0.19945347211E+02  0.31174306016E+02  0.41800000000E+01 0.  1.
        -11    1    1    2    0    0 -0.16878051995E+02  0.98156113337E+01 -0.13648938252E+02  0.23822434393E+02  0.00000000000E+00 0. -1.
         11    1    1    2    0    0  0.55047797092E+02  0.27162717041E+02  0.80030579665E+02  0.10086112652E+03  0.00000000000E+00 0.  1.
</event>
<event>
 7    1  0.2648915E-009  0.1572758E+03  0.7561462E-02  0.1191807E+00
          2   -1    0    0  501    0  0.00000000000E+00  0.00000000000E+00  0.48562897689E+02  0.48562897689E+02  0.00000000000E+00 0.  1.
         -2   -1    0    0    0  501 -0.00000000000E+00 -0.00000000000E+00 -0.61802001158E+03  0.61802001158E+03  0.00000000000E+00 0. -1.
         25    2    1    2    0    0  0.83554726361E+02 -0.84237052659E+02 -0.42103076008E+03  0.45496411200E+03  0.12509264140E+03 0.  0.
          5    1    3    3  502    0  0.81302489583E+02  0.38222286766E+01 -0.24272527202E+03  0.25604244633E+03  0.41800000000E+01 0.  1.
         -5    1    3    3    0  502  0.22522367782E+01 -0.88059281335E+02 -0.17830548806E+03  0.19892166567E+03  0.41800000000E+01 0.  1.
        -11    1    1    2    0    0 -0.66871541442E+02  0.86148635604E+01 -0.98896644644E+02  0.11969363079E+03  0.00000000000E+00 0.  1.
         11    1    1    2    0    0 -0.16683184919E+02  0.75622189098E+02 -0.49529709163E+02  0.91925166483E+02  0.00000000000E+00 0. -1.
</event>
<event>
 7    1  0.2648915E-009  0.1068993E+03  0.7561462E-02  0.1266422E+00
         -2   -1    0    0    0  501 -0.00000000000E+00  0.00000000000E+00  0.88870767230E+02  0.88870767230E+02  0.00000000000E+00 0.  1.
          2   -1    0    0  501    0  0.00000000000E+00 -0.00000000000E+00 -0.17206866984E+03  0.17206866984E+03  0.00000000000E+00 0. -1.
         25    2    1    2    0    0 -0.39166897437E+02 -0.29294204944E+02 -0.80445919995E+02  0.15655872716E+03  0.12508754018E+03 0.  0.
          5    1    3    3  502    0 -0.38205966753E+02  0.35816186335E+02 -0.74329606691E+02  0.91021194949E+02  0.41800000000E+01 0.  1.
         -5    1    3    3    0  502 -0.96093068369E+00 -0.65110391279E+02 -0.61163133039E+01  0.65537532214E+02  0.41800000000E+01 0.  1.
        -11    1    1    2    0    0  0.18481732748E+02 -0.28869833067E+02  0.18674090869E+02  0.39035411827E+02  0.00000000000E+00 0.  1.
         11    1    1    2    0    0  0.20685164689E+02  0.58164038011E+02 -0.21426073481E+02  0.65345298077E+02  0.00000000000E+00 0. -1.
</event>
<event>
 7    1  0.2648915E-009  0.1420365E+03  0.7561462E-02  0.1210615E+00
         -2   -1    0    0    0  501 -0.00000000000E+00  0.00000000000E+00  0.13473489254E+03  0.13473489254E+03  0.00000000000E+00 0.  1.
          2   -1    0    0  501    0  0.00000000000E+00 -0.00000000000E+00 -0.21948354050E+03  0.21948354050E+03  0.00000000000E+00 0. -1.
         25    2    1    2    0    0  0.35386319338E+02 -0.97911421488E+02  0.41080564799E+02  0.16784956048E+03  0.12508806536E+03 0.  0.
          5    1    3    3  502    0 -0.32504042714E+02  0.37804452733E+01  0.30704916660E+02  0.45067381401E+02  0.41800000000E+01 0.  1.
         -5    1    3    3    0  502  0.67890362052E+02 -0.10169186676E+03  0.10375648139E+02  0.12278217908E+03  0.41800000000E+01 0.  1.
        -11    1    1    2    0    0 -0.59145839405E+02  0.76968113490E+02 -0.62184641967E+02  0.11527901158E+03  0.00000000000E+00 0.  1.
         11    1    1    2    0    0  0.23759520066E+02  0.20943307998E+02 -0.63644570794E+02  0.71089860988E+02  0.00000000000E+00 0. -1.
</event>
<event>
 7    1  0.2648915E-009  0.1003644E+03  0.7561462E-02  0.1279532E+00
         -1   -1    0    0    0  501 -0.00000000000E+00  0.00000000000E+00  0.18426012941E+02  0.18426012941E+02  0.00000000000E+00 0.  1.
          1   -1    0    0  501    0  0.00000000000E+00 -0.00000000000E+00 -0.72772691512E+03  0.72772691512E+03  0.00000000000E+00 0. -1.
         25    2    1    2    0    0  0.25755073205E+02  0.59830296682E+02 -0.50214007127E+03  0.52157101002E+03  0.12509468061E+03 0.  0.
          5    1    3    3  502    0 -0.18120517602E+02  0.70937527761E+02 -0.43069213778E+03  0.43689091997E+03  0.41800000000E+01 0. -1.
         -5    1    3    3    0  502  0.43875590807E+02 -0.11107231080E+02 -0.71447933489E+02  0.84680090049E+02  0.41800000000E+01 0. -1.
        -11    1    1    2    0    0 -0.10294657629E+02  0.75781902513E+01 -0.12013647576E+02  0.17542424897E+02  0.00000000000E+00 0.  1.
         11    1    1    2    0    0 -0.15460415576E+02 -0.67408486933E+02 -0.19514718333E+03  0.20703949315E+03  0.00000000000E+00 0. -1.
</event>
<event>
 7    1  0.2648915E-009  0.1675592E+03  0.7561462E-02  0.1180417E+00
          3   -1    0    0  501    0  0.00000000000E+00  0.00000000000E+00  0.59623044856E+02  0.59623044856E+02  0.00000000000E+00 0. -1.
         -3   -1    0    0    0  501 -0.00000000000E+00 -0.00000000000E+00 -0.60832509257E+03  0.60832509257E+03  0.00000000000E+00 0.  1.
         25    2    1    2    0    0  0.89045958476E+02 -0.11666109077E+03 -0.38184375786E+03  0.42777483314E+03  0.12509060567E+03 0.  0.
          5    1    3    3  502    0  0.73911309308E+02 -0.12630078378E+03 -0.38227159973E+03  0.40934559725E+03  0.41800000000E+01 0.  1.
         -5    1    3    3    0  502  0.15134649168E+02  0.96396930073E+01  0.42784187077E+00  0.18429235887E+02  0.41800000000E+01 0.  1.
        -11    1    1    2    0    0 -0.82178995959E+02  0.36632651562E+02 -0.67901087178E+02  0.11272043372E+03  0.00000000000E+00 0. -1.
         11    1    1    2    0    0 -0.68669625168E+01  0.80028439206E+02 -0.98957202674E+02  0.12745287057E+03  0.00000000000E+00 0.  1.
</event>
<event>
 7    1  0.2648915E-009  0.8307446E+02  0.7561462E-02  0.1320546E+00
         -1   -1    0    0    0  501 -0.00000000000E+00  0.00000000000E+00  0.45114330754E+02  0.45114330754E+02  0.00000000000E+00 0.  1.
          1   -1    0    0  501    0  0.00000000000E+00 -0.00000000000E+00 -0.31338584103E+03  0.31338584103E+03  0.00000000000E+00 0. -1.
         25    2    1    2    0    0  0.40081553512E+02  0.25878078462E+02 -0.18808427181E+03  0.23086557600E+03  0.12508802901E+03 0.  0.
          5    1    3    3  502    0  0.51024678282E+02 -0.14793118873E+02 -0.19017880541E+02  0.56581855219E+02  0.41800000000E+01 0.  1.
         -5    1    3    3    0  502 -0.10943124770E+02  0.40671197335E+02 -0.16906639127E+03  0.17428372078E+03  0.41800000000E+01 0.  1.
        -11    1    1    2    0    0  0.81564707421E+01  0.81278218838E+01  0.12977006168E+02  0.17349126567E+02  0.00000000000E+00 0.  1.
         11    1    1    2    0    0 -0.48238024254E+02 -0.34005900346E+02 -0.93164244629E+02  0.11028546921E+03  0.00000000000E+00 0. -1.
</event>
<event>
 7    1  0.2648915E-009  0.9968357E+02  0.7561462E-02  0.1280963E+00
          2   -1    0    0  501    0  0.00000000000E+00  0.00000000000E+00  0.22755257875E+03  0.22755257875E+03  0.00000000000E+00 0. -1.
         -2   -1    0    0    0  501 -0.00000000000E+00 -0.00000000000E+00 -0.65532941490E+02  0.65532941490E+02  0.00000000000E+00 0.  1.
         25    2    1    2    0    0  0.39478104898E+02  0.30503017976E+02  0.57331181500E+02  0.14636566095E+03  0.12508831865E+03 0.  0.
          5    1    3    3  502    0  0.38194956942E+02  0.64212383239E+02  0.76771557628E+02  0.10720741279E+03  0.41800000000E+01 0.  1.
         -5    1    3    3    0  502  0.12831479564E+01 -0.33709365263E+02 -0.19440376128E+02  0.39158248162E+02  0.41800000000E+01 0.  1.
        -11    1    1    2    0    0  0.12133609689E+02  0.16673426239E+02 -0.24559671182E+00  0.20622510623E+02  0.00000000000E+00 0.  1.
         11    1    1    2    0    0 -0.51611714587E+02 -0.47176444215E+02  0.10493405247E+03  0.12609734866E+03  0.00000000000E+00 0. -1.
</event>
<event>
 7    1  0.2648915E-009  0.1034457E+03  0.7561462E-02  0.1273213E+00
          1   -1    0    0  501    0  0.00000000000E+00  0.00000000000E+00  0.13812247931E+03  0.13812247931E+03  0.00000000000E+00 0. -1.
         -1   -1    0    0    0  501 -0.00000000000E+00 -0.00000000000E+00 -0.11740617462E+03  0.11740617462E+03  0.00000000000E+00 0.  1.
         25    2    1    2    0    0 -0.48334890905E+02  0.36033454046E+02  0.39828947554E+02  0.14446696898E+03  0.12509871532E+03 0.  0.
          5    1    3    3  502    0  0.41515301070E+02  0.28645126467E+01  0.20872926065E+02  0.46742668924E+02  0.41800000000E+01 0. -1.
         -5    1    3    3    0  502 -0.89850191974E+02  0.33168941400E+02  0.18956021490E+02  0.97724300060E+02  0.41800000000E+01 0. -1.
        -11    1    1    2    0    0  0.93232455064E+01  0.65911189480E+01 -0.45952901022E+02  0.47350130602E+02  0.00000000000E+00 0.  1.
         11    1    1    2    0    0  0.39011645398E+02 -0.42624572994E+02  0.26840258156E+02  0.63711554349E+02  0.00000000000E+00 0. -1.
</event>
<event>
 7    1  0.2648915E-009  0.1943013E+03  0.7561462E-02  0.1154638E+00
          1   -1    0    0  501    0  0.00000000000E+00  0.00000000000E+00  0.30936367186E+02  0.30936367186E+02  0.00000000000E+00 0. -1.
         -1   -1    0    0    0  501 -0.00000000000E+00 -0.00000000000E+00 -0.14901491330E+04  0.14901491330E+04  0.00000000000E+00 0.  1.
         25    2    1    2    0    0  0.53710065839E+02  0.17711169360E+03 -0.77947246117E+03  0.81085042845E+03  0.12509107248E+03 0.  0.
          5    1    3    3  502    0  0.14804198188E+02  0.49996266637E+02 -0.61837527715E+02  0.80994710910E+02  0.41800000000E+01 0.  1.
         -5    1    3    3    0  502  0.38905867651E+02  0.12711542696E+03 -0.71763493346E+03  0.72985571754E+03  0.41800000000E+01 0.  1.
        -11    1    1    2    0    0 -0.16862111820E+02 -0.16294346282E+03 -0.49779341244E+03  0.52405456239E+03  0.00000000000E+00 0. -1.
         11    1    1    2    0    0 -0.36847954019E+02 -0.14168230773E+02 -0.18194689223E+03  0.18618050938E+03  0.00000000000E+00 0.  1.
</event>
<event>
 7    1  0.2648915E-009  0.2082426E+03  0.7561462E-02  0.1142965E+00
          1   -1    0    0  501    0  0.00000000000E+00  0.00000000000E+00  0.38279521364E+03  0.38279521364E+03  0.00000000000E+00 0. -1.
         -1   -1    0    0    0  501 -0.00000000000E+00 -0.00000000000E+00 -0.15310547461E+03  0.15310547461E+03  0.00000000000E+00 0.  1.
         25    2    1    2    0    0  0.19589027739E+03 -0.14777521665E+02  0.17717309919E+02  0.23357016928E+03  0.12509894077E+03 0.  0.
          5    1    3    3  502    0  0.17684562592E+03  0.21480673387E+02 -0.17955131897E+02  0.17909677244E+03  0.41800000000E+01 0.  1.
         -5    1    3    3    0  502  0.19044651476E+02 -0.36258195052E+02  0.35672441816E+02  0.54473396841E+02  0.41800000000E+01 0.  1.
        -11    1    1    2    0    0 -0.20986487207E+02 -0.34626259336E+01  0.79138292507E+02  0.81946883800E+02  0.00000000000E+00 0. -1.
         11    1    1    2    0    0 -0.17490379019E+03  0.18240147599E+02  0.13283413660E+03  0.22038363517E+03  0.00000000000E+00 0.  1.
</event>
<event>
 7    1  0.2648915E-009  0.7482104E+02  0.7561462E-02  0.1344426E+00
          2   -1    0    0  501    0  0.00000000000E+00  0.00000000000E+00  0.27588950043E+03  0.27588950043E+03  0.00000000000E+00 0. -1.
         -2   -1    0    0    0  501 -0.00000000000E+00 -0.00000000000E+00 -0.58720475775E+02  0.58720475775E+02  0.00000000000E+00 0.  1.
         25    2    1    2    0    0 -0.45086773372E+02 -0.54697451133E+01  0.16817722827E+03  0.21446930396E+03  0.12510302548E+03 0.  0.
          5    1    3    3  502    0  0.30554150419E+01 -0.32025699936E+02  0.15421391722E+03  0.15758929431E+03  0.41800000000E+01 0. -1.
         -5    1    3    3    0  502 -0.48142188414E+02  0.26555954823E+02  0.13963311056E+02  0.56880009647E+02  0.41800000000E+01 0. -1.
        -11    1    1    2    0    0  0.58700383907E+01  0.19535345791E+02 -0.26783736883E+02  0.33666833045E+02  0.00000000000E+00 0.  1.
         11    1    1    2    0    0  0.39216734981E+02 -0.14065600678E+02  0.75775533264E+02  0.86473839203E+02  0.00000000000E+00 0. -1.
</event>
<event>
 7    1  0.2648915E-009  0.1990505E+03  0.7561462E-02  0.1150543E+00
          2   -1    0    0  501    0  0.00000000000E+00  0.00000000000E+00  0.13391648403E+03  0.13391648403E+03  0.00000000000E+00 0. -1.
         -2   -1    0    0    0  501 -0.00000000000E+00 -0.00000000000E+00 -0.35238332632E+03  0.35238332632E+03  0.00000000000E+00 0.  1.
         25    2    1    2    0    0  0.27606323243E+02 -0.17434287306E+03 -0.42028870675E+02  0.22039013563E+03  0.12509132442E+03 0.  0.
          5    1    3    3  502    0  0.46292856522E+02 -0.17391738749E+03 -0.66320069402E+01  0.18014367087E+03  0.41800000000E+01 0. -1.
         -5    1    3    3    0  502 -0.18686533278E+02 -0.42548556675E+00 -0.35396863734E+02  0.40246464766E+02  0.41800000000E+01 0. -1.
        -11    1    1    2    0    0 -0.61699234117E+02  0.11195932486E+03 -0.11493681084E+03  0.17190740647E+03  0.00000000000E+00 0. -1.
         11    1    1    2    0    0  0.34092910873E+02  0.62383548199E+02 -0.61501160785E+02  0.94002268247E+02  0.00000000000E+00 0.  1.
</event>
<event>
 7    1  0.2648915E-009  0.1238021E+03  0.7561462E-02  0.1236953E+00
          2   -1    0    0  501    0  0.00000000000E+00  0.00000000000E+00  0.55268427794E+03  0.55268427794E+03  0.00000000000E+00 0. -1.
         -2   -1    0    0    0  501 -0.00000000000E+00 -0.00000000000E+00 -0.36826335671E+02  0.36826335671E+02  0.00000000000E+00 0.  1.
         25    2    1    2    0    0 -0.60318275873E+02 -0.68227265939E+02  0.28125070848E+03  0.32100198328E+03  0.12508820098E+03 0.  0.
          5    1    3    3  502    0 -0.70196545220E+02  0.24529043745E+01  0.20378169861E+03  0.21558762671E+03  0.41800000000E+01 0. -1.
         -5    1    3    3    0  502  0.98782693474E+01 -0.70680170314E+02  0.77469009872E+02  0.10541435657E+03  0.41800000000E+01 0. -1.
        -11    1    1    2    0    0  0.93662837752E+01  0.51169364555E+02  0.37285052463E+02  0.64001611526E+02  0.00000000000E+00 0.  1.
         11    1    1    2    0    0  0.50951992098E+02  0.17057901384E+02  0.19732218133E+03  0.20450701881E+03  0.00000000000E+00 0. -1.
</event>
<event>
 7    1  0.2648915E-009  0.2735242E+03  0.7561462E-02  0.1099279E+00
          1   -1    0    0  501    0  0.00000000000E+00  0.00000000000E+00  0.12545335575E+04  0.12545335575E+04  0.00000000000E+00 0. -1.
         -1   -1    0    0    0  501 -0.00000000000E+00 -0.00000000000E+00 -0.66797264577E+02  0.66797264577E+02  0.00000000000E+00 0.  1.
         25    2    1    2    0    0 -0.21870597236E+03  0.15146027803E+03  0.53609928047E+03  0.61140989201E+03  0.12508836619E+03 0.  0.
          5    1    3    3  502    0 -0.14178950233E+03  0.13728608164E+03  0.27296677893E+03  0.33686802458E+03  0.41800000000E+01 0.  1.
         -5    1    3    3    0  502 -0.76916470030E+02  0.14174196394E+02  0.26313250154E+03  0.27454186743E+03  0.41800000000E+01 0.  1.
        -11    1    1    2    0    0  0.55657900501E+02 -0.68862566642E+02  0.13085779302E+03  0.15799878786E+03  0.00000000000E+00 0. -1.
         11    1    1    2    0    0  0.16304807186E+03 -0.82597711390E+02  0.52077921948E+03  0.55192214225E+03  0.00000000000E+00 0.  1.
</event>
<event>
 7    1  0.2648915E-009  0.1595537E+03  0.7561462E-02  0.1189202E+00
          2   -1    0    0  501    0  0.00000000000E+00  0.00000000000E+00  0.56763600604E+03  0.56763600604E+03  0.00000000000E+00 0. -1.
         -2   -1    0    0    0  501 -0.00000000000E+00 -0.00000000000E+00 -0.52157952849E+02  0.52157952849E+02  0.00000000000E+00 0.  1.
         25    2    1    2    0    0  0.11062385411E+03 -0.69613584359E+02  0.32162291714E+03  0.36901699846E+03  0.12509418891E+03 0.  0.
          5    1    3    3  502    0  0.12664699128E+03 -0.46464330648E+02  0.18234287818E+03  0.22685852870E+03  0.41800000000E+01 0. -1.
         -5    1    3    3    0  502 -0.16023137162E+02 -0.23149253711E+02  0.13928003896E+03  0.14215846976E+03  0.41800000000E+01 0. -1.
        -11    1    1    2    0    0  0.84131240928E+01  0.28541179530E+02  0.19021332405E+02  0.35315586820E+02  0.00000000000E+00 0.  1.
         11    1    1    2    0    0 -0.11903697821E+03  0.41072404829E+02  0.17483380365E+03  0.21546137361E+03  0.00000000000E+00 0. -1.
</event>
<event>
 7    1  0.2648915E-009  0.1117496E+03  0.7561462E-02  0.1257364E+00
          1   -1    0    0  501    0  0.00000000000E+00  0.00000000000E+00  0.96235759726E+03  0.96235759726E+03  0.00000000000E+00 0.  1.
         -1   -1    0    0    0  501 -0.00000000000E+00 -0.00000000000E+00 -0.27079007309E+02  0.27079007309E+02  0.00000000000E+00 0. -1.
         25    2    1    2    0    0  0.94496018215E+02 -0.34969106680E+02  0.69787040203E+03  0.71611657619E+03  0.12509003474E+03 0.  0.
          5    1    3    3  502    0  0.34707763610E+02 -0.48816291322E+02  0.58056202036E+03  0.58365862543E+03  0.41800000000E+01 0. -1.
         -5    1    3    3    0  502  0.59788254605E+02  0.13847184642E+02  0.11730838167E+03  0.13245795076E+03  0.41800000000E+01 0. -1.
        -11    1    1    2    0    0 -0.33500437866E+02  0.46290074768E+01  0.18310100511E+03  0.18619797292E+03  0.00000000000E+00 0.  1.
         11    1    1    2    0    0 -0.60995580350E+02  0.30340099203E+02  0.54307182816E+02  0.87122055458E+02  0.00000000000E+00 0. -1.
</event>
<event>
 7    1  0.2648915E-009  0.1848738E+03  0.7561462E-02  0.1163168E+00
         -3   -1    0    0    0  501 -0.00000000000E+00  0.00000000000E+00  0.19630843662E+03  0.19630843662E+03  0.00000000000E+00 0.  1.
          3   -1    0    0  501    0  0.00000000000E+00 -0.00000000000E+00 -0.29265802393E+03  0.29265802393E+03  0.00000000000E+00 0. -1.
         25    2    1    2    0    0  0.15515493333E+03  0.77557020954E+02  0.77781347785E+02  0.22756690567E+03  0.12509441897E+03 0.  0.
          5    1    3    3  502    0  0.34767711760E+02  0.64162589683E+02  0.77266552085E+02  0.10636364119E+03  0.41800000000E+01 0. -1.
         -5    1    3    3    0  502  0.12038722157E+03  0.13394431271E+02  0.51479570008E+00  0.12120326448E+03  0.41800000000E+01 0. -1.
        -11    1    1    2    0    0 -0.11092068087E+03 -0.68281007023E+02 -0.17252775323E+03  0.21617474181E+03  0.00000000000E+00 0.  1.
         11    1    1    2    0    0 -0.44234252462E+02 -0.92760139309E+01 -0.16031818661E+01  0.45224813072E+02  0.00000000000E+00 0. -1.
</event>
<event>
 7    1  0.2648915E-009  0.1519600E+03  0.7561462E-02  0.1198085E+00
         -4   -1    0    0    0  501 -0.00000000000E+00  0.00000000000E+00  0.68456632171E+03  0.68456632171E+03  0.00000000000E+00 0. -1.
          4   -1    0    0  501    0  0.00000000000E+00 -0.00000000000E+00 -0.88976477315E+02  0.88976477315E+02  0.00000000000E+00 0.  1.
         25    2    1    2    0    0  0.40270820069E+02  0.10486575129E+03  0.60490093900E+03  0.62783034711E+03  0.12508890441E+03 0.  0.
          5    1    3    3  502    0  0.91756637149E+01 -0.27882669425E+02  0.74835903776E+02  0.80495471629E+02  0.41800000000E+01 0.  1.
         -5    1    3    3    0  502  0.31095156355E+02  0.13274842072E+03  0.53006503523E+03  0.54733487548E+03  0.41800000000E+01 0.  1.
        -11    1    1    2    0    0 -0.64820912096E+02 -0.72721552527E+02 -0.27703446681E+02  0.10128008592E+03  0.00000000000E+00 0.  1.
         11    1    1    2    0    0  0.24550092026E+02 -0.32144198765E+02  0.18392352079E+02  0.44432365993E+02  0.00000000000E+00 0. -1.
</event>
<event>
 7    1  0.2648915E-009  0.1021527E+03  0.7561462E-02  0.1275833E+00
          1   -1    0    0  501    0  0.00000000000E+00  0.00000000000E+00  0.19686505734E+03  0.19686505734E+03  0.00000000000E+00 0. -1.
         -1   -1    0    0    0  501 -0.00000000000E+00 -0.00000000000E+00 -0.95487038442E+02  0.95487038442E+02  0.00000000000E+00 0.  1.
         25    2    1    2    0    0  0.21565830732E+02  0.80487618592E+02  0.49867633977E+02  0.15836054702E+03  0.12509172688E+03 0.  0.
          5    1    3    3  502    0  0.42718675332E+02  0.73951833028E+02 -0.17540858314E+02  0.87286384624E+02  0.41800000000E+01 0.  1.
         -5    1    3    3    0  502 -0.21152844599E+02  0.65357855634E+01  0.67408492291E+02  0.71074162397E+02  0.41800000000E+01 0.  1.
        -11    1    1    2    0    0 -0.12415125760E+02  0.25954516709E+01 -0.20205568468E+02  0.23856586389E+02  0.00000000000E+00 0.  1.
         11    1    1    2    0    0 -0.91507049723E+01 -0.83083070263E+02  0.71715953384E+02  0.11013496237E+03  0.00000000000E+00 0. -1.
</event>
<event>
 7    1  0.2648915E-009  0.1065221E+03  0.7561462E-02  0.1267149E+00
          1   -1    0    0  501    0  0.00000000000E+00  0.00000000000E+00  0.12370401486E+03  0.12370401486E+03  0.00000000000E+00 0. -1.
         -1   -1    0    0    0  501 -0.00000000000E+00 -0.00000000000E+00 -0.18325413656E+03  0.18325413656E+03  0.00000000000E+00 0.  1.
         25    2    1    2    0    0  0.93076693629E+02  0.48731735623E+02 -0.33131783133E+02  0.16668386469E+03  0.12509093788E+03 0.  0.
          5    1    3    3  502    0  0.47784908126E+01  0.13626438250E+01  0.41290347734E+02  0.41797798849E+02  0.41800000000E+01 0. -1.
         -5    1    3    3    0  502  0.88298202816E+02  0.47369091798E+02 -0.74422130867E+02  0.12488606584E+03  0.41800000000E+01 0. -1.
        -11    1    1    2    0    0 -0.58676506221E+02 -0.21882530689E+02  0.29598303988E+02  0.69266421379E+02  0.00000000000E+00 0. -1.
         11    1    1    2    0    0 -0.34400187408E+02 -0.26849204934E+02 -0.56016642549E+02  0.71007865351E+02  0.00000000000E+00 0.  1.
</event>
<event>
 7    1  0.2648915E-009  0.1544615E+03  0.7561462E-02  0.1195095E+00
          1   -1    0    0  501    0  0.00000000000E+00  0.00000000000E+00  0.37745096927E+03  0.37745096927E+03  0.00000000000E+00 0. -1.
         -1   -1    0    0    0  501 -0.00000000000E+00 -0.00000000000E+00 -0.78266169559E+02  0.78266169559E+02  0.00000000000E+00 0.  1.
         25    2    1    2    0    0  0.13234140803E+02 -0.12902751404E+03  0.12236619412E+03  0.21781512420E+03  0.12508677390E+03 0.  0.
          5    1    3    3  502    0 -0.52082318178E+02 -0.38639313128E+02  0.24713192576E+02  0.69525381503E+02  0.41800000000E+01 0. -1.
         -5    1    3    3    0  502  0.65316458981E+02 -0.90388200917E+02  0.97653001541E+02  0.14828974270E+03  0.41800000000E+01 0. -1.
        -11    1    1    2    0    0 -0.20605745599E+02  0.11044192448E+03  0.18488389127E+03  0.21634248008E+03  0.00000000000E+00 0. -1.
         11    1    1    2    0    0  0.73716047961E+01  0.18585589569E+02 -0.80652856806E+01  0.21559534550E+02  0.00000000000E+00 0.  1.
</event>
<event>
 7    1  0.2648915E-009  0.9734331E+02  0.7561462E-02  0.1285984E+00
         -2   -1    0    0    0  501 -0.00000000000E+00  0.00000000000E+00  0.10927460348E+03  0.10927460348E+03  0.00000000000E+00 0.  1.
          2   -1    0    0  501    0  0.00000000000E+00 -0.00000000000E+00 -0.15576300101E+03  0.15576300101E+03  0.00000000000E+00 0. -1.
         25    2    1    2    0    0  0.68274874014E+02  0.25264998441E+02 -0.34786361392E+02  0.14885408262E+03  0.12509064076E+03 0.  0.
          5    1    3    3  502    0  0.55412309069E+02  0.32920618844E+02  0.37655255988E+02  0.74764174876E+02  0.41800000000E+01 0.  1.
         -5    1    3    3    0  502  0.12862564945E+02 -0.76556204027E+01 -0.72441617380E+02  0.74089907743E+02  0.41800000000E+01 0.  1.
        -11    1    1    2    0    0 -0.81613998372E+02  0.47073973225E+01 -0.12746201466E+01  0.81759580334E+02  0.00000000000E+00 0.  1.
         11    1    1    2    0    0  0.13339124358E+02 -0.29972395763E+02 -0.10427415996E+02  0.34423941535E+02  0.00000000000E+00 0. -1.
</event>
<event>
 7    1  0.2648915E-009  0.1276940E+03  0.7561462E-02  0.1230918E+00
         -1   -1    0    0    0  501 -0.00000000000E+00  0.00000000000E+00  0.24961611062E+02  0.24961611062E+02  0.00000000000E+00 0.  1.
          1   -1    0    0  501    0  0.00000000000E+00 -0.00000000000E+00 -0.79544104434E+03  0.79544104434E+03  0.00000000000E+00 0. -1.
         25    2    1    2    0    0 -0.57073003120E+02  0.28308937883E+02 -0.52412869626E+03  0.54260192106E+03  0.12508889175E+03 0.  0.
          5    1    3    3  502    0 -0.37831539649E+01  0.64340465114E+02 -0.36904342999E+03  0.37465255013E+03  0.41800000000E+01 0. -1.
         -5    1    3    3    0  502 -0.53289849155E+02 -0.36031527231E+02 -0.15508526628E+03  0.16794937092E+03  0.41800000000E+01 0. -1.
        -11    1    1    2    0    0 -0.30274375423E+02  0.86603382111E+01 -0.84889186268E+02  0.90541223817E+02  0.00000000000E+00 0. -1.
         11    1    1    2    0    0  0.87347378543E+02 -0.36969276094E+02 -0.16146155075E+03  0.18725951053E+03  0.00000000000E+00 0.  1.
</event>
<event>
 7    1  0.2648915E-009  0.1629915E+03  0.7561462E-02  0.1185360E+00
          2   -1    0    0  501    0  0.00000000000E+00  0.00000000000E+00  0.88412503357E+03  0.88412503357E+03  0.00000000000E+00 0. -1.
         -2   -1    0    0    0  501 -0.00000000000E+00 -0.00000000000E+00 -0.39651024365E+02  0.39651024365E+02  0.00000000000E+00 0.  1.
         25    2    1    2    0    0  0.13578043593E+03  0.66435557958E+02  0.45079227750E+03  0.49164152411E+03  0.12509076960E+03 0.  0.
          5    1    3    3  502    0  0.10812838970E+03  0.30326402775E+02  0.15013575907E+03  0.18753575103E+03  0.41800000000E+01 0. -1.
         -5    1    3    3    0  502  0.27652046230E+02  0.36109155183E+02  0.30065651842E+03  0.30410577308E+03  0.41800000000E+01 0. -1.
        -11    1    1    2    0    0 -0.77964002676E+02  0.24456665434E+01  0.11230544490E+03  0.13673653481E+03  0.00000000000E+00 0.  1.
         11    1    1    2    0    0 -0.57816433250E+02 -0.68881224501E+02  0.28137628680E+03  0.29539799901E+03  0.00000000000E+00 0. -1.
</event>
<event>
 7    1  0.2648915E-009  0.1422195E+03  0.7561462E-02  0.1210373E+00
          1   -1    0    0  501    0  0.00000000000E+00  0.00000000000E+00  0.33240617307E+03  0.33240617307E+03  0.00000000000E+00 0. -1.
         -1   -1    0    0    0  501 -0.00000000000E+00 -0.00000000000E+00 -0.91436321364E+02  0.91436321364E+02  0.00000000000E+00 0.  1.
         25    2    1    2    0    0  0.10865197395E+03 -0.77507625145E+02  0.95638059048E+02  0.20641970592E+03  0.12509905378E+03 0.  0.
          5    1    3    3  502    0  0.38290361579E+02 -0.28453353307E+02  0.10942506881E+03  0.11944481231E+03  0.41800000000E+01 0.  1.
         -5    1    3    3    0  502  0.70361612367E+02 -0.49054271838E+02 -0.13787009762E+02  0.86974893611E+02  0.41800000000E+01 0.  1.
        -11    1    1    2    0    0 -0.96077802908E+02  0.28696936304E+02  0.55993999303E+02  0.11484679500E+03  0.00000000000E+00 0.  1.
         11    1    1    2    0    0 -0.12574171038E+02  0.48810688841E+02  0.89337793355E+02  0.10257599351E+03  0.00000000000E+00 0. -1.
</event>
<event>
 7    1  0.2648915E-009  0.1041622E+03  0.7561462E-02  0.1271779E+00
          2   -1    0    0  501    0  0.00000000000E+00  0.00000000000E+00  0.19825636395E+04  0.19825636395E+04  0.00000000000E+00 0. -1.
         -2   -1    0    0    0  501 -0.00000000000E+00 -0.00000000000E+00 -0.80722944150E+01  0.80722944150E+01  0.00000000000E+00 0.  1.
         25    2    1    2    0    0 -0.14449239434E+02 -0.55673608685E+02  0.14148064839E+04  0.14214901218E+04  0.12509375836E+03 0.  0.
          5    1    3    3  502    0 -0.22866461832E+02 -0.78036029708E+02  0.51841589702E+03  0.52477138993E+03  0.41800000000E+01 0. -1.
         -5    1    3    3    0  502  0.84172223976E+01  0.22362421023E+02  0.89639058685E+03  0.89671873188E+03  0.41800000000E+01 0. -1.
        -11    1    1    2    0    0  0.49635032994E+02  0.41541832269E+02  0.38388288254E+03  0.38930120451E+03  0.00000000000E+00 0.  1.
         11    1    1    2    0    0 -0.35185793559E+02  0.14131776416E+02  0.17580197864E+03  0.17984460756E+03  0.00000000000E+00 0. -1.
</event>
<event>
 7    1  0.2648915E-009  0.1369851E+03  0.7561462E-02  0.1217444E+00
          1   -1    0    0  501    0  0.00000000000E+00  0.00000000000E+00  0.49781425479E+03  0.49781425479E+03  0.00000000000E+00 0. -1.
         -1   -1    0    0    0  501 -0.00000000000E+00 -0.00000000000E+00 -0.69579041400E+02  0.69579041400E+02  0.00000000000E+00 0.  1.
         25    2    1    2    0    0 -0.84034789329E+02  0.63729677955E+02  0.38880411202E+03  0.42182936859E+03  0.12509221001E+03 0.  0.
          5    1    3    3  502    0 -0.94425533392E+02  0.82139506192E+02  0.23277672920E+03  0.26432093729E+03  0.41800000000E+01 0. -1.
         -5    1    3    3    0  502  0.10390744063E+02 -0.18409828237E+02  0.15602738282E+03  0.15750843130E+03  0.41800000000E+01 0. -1.
        -11    1    1    2    0    0  0.63588803019E+02 -0.79193736440E+02  0.37555970133E+01  0.10163310617E+03  0.00000000000E+00 0.  1.
         11    1    1    2    0    0  0.20445986310E+02  0.15464058484E+02  0.35675504348E+02  0.43930821429E+02  0.00000000000E+00 0. -1.
</event>
<event>
 7    1  0.2648915E-009  0.7679798E+02  0.7561462E-02  0.1338392E+00
          2   -1    0    0  501    0  0.00000000000E+00  0.00000000000E+00  0.24591066305E+03  0.24591066305E+03  0.00000000000E+00 0. -1.
         -2   -1    0    0    0  501 -0.00000000000E+00 -0.00000000000E+00 -0.53572291575E+02  0.53572291575E+02  0.00000000000E+00 0.  1.
         25    2    1    2    0    0  0.19684232235E+02  0.10828658670E+02  0.71801637049E+02  0.14597270954E+03  0.12509127867E+03 0.  0.
          5    1    3    3  502    0 -0.16309305018E+02 -0.69093550548E+01  0.96810352910E+02  0.98506088380E+02  0.41800000000E+01 0.  1.
         -5    1    3    3    0  502  0.35993537253E+02  0.17738013724E+02 -0.25008715861E+02  0.47466621155E+02  0.41800000000E+01 0.  1.
        -11    1    1    2    0    0  0.27508092297E+02 -0.32958335965E+02  0.55336767423E+02  0.70036453938E+02  0.00000000000E+00 0. -1.
         11    1    1    2    0    0 -0.47192324532E+02  0.22129677295E+02  0.65199967001E+02  0.83473791149E+02  0.00000000000E+00 0.  1.
</event>
<event>
 7    1  0.2648915E-009  0.1588232E+03  0.7561462E-02  0.1190032E+00
          4   -1    0    0  501    0  0.00000000000E+00  0.00000000000E+00  0.66555129845E+03  0.66555129845E+03  0.00000000000E+00 0.  1.
         -4   -1    0    0    0  501 -0.00000000000E+00 -0.00000000000E+00 -0.49127632748E+02  0.49127632748E+02  0.00000000000E+00 0. -1.
         25    2    1    2    0    0  0.68881164797E+02 -0.11956070959E+03  0.43942813557E+03  0.47726563112E+03  0.12508404446E+03 0.  0.
          5    1    3    3  502    0 -0.21997873876E+02 -0.19081014324E+02  0.17798336557E+02  0.34383786105E+02  0.41800000000E+01 0.  1.
         -5    1    3    3    0  502  0.90879038673E+02 -0.10047969527E+03  0.42162979901E+03  0.44288184501E+03  0.41800000000E+01 0.  1.
        -11    1    1    2    0    0 -0.30128592606E+02  0.10817362951E+03  0.99536962698E+02  0.15005623331E+03  0.00000000000E+00 0. -1.
         11    1    1    2    0    0 -0.38752572191E+02  0.11387080081E+02  0.77458567443E+02  0.87357066769E+02  0.00000000000E+00 0.  1.
</event>
<event>
 7    1  0.2648915E-009  0.1089181E+03  0.7561462E-02  0.1262587E+00
         -2   -1    0    0    0  501 -0.00000000000E+00  0.00000000000E+00  0.23834371855E+03  0.23834371855E+03  0.00000000000E+00 0.  1.
          2   -1    0    0  501    0  0.00000000000E+00 -0.00000000000E+00 -0.60920397891E+02  0.60920397891E+02  0.00000000000E+00 0. -1.
         25    2    1    2    0    0  0.44868427685E+02 -0.36142471465E+00  0.64223121217E+02  0.14759899604E+03  0.12509015909E+03 0.  0.
          5    1    3    3  502    0  0.75013563631E+02 -0.35070333786E+02  0.23853902399E+02  0.86275396842E+02  0.41800000000E+01 0.  1.
         -5    1    3    3    0  502 -0.30145135946E+02  0.34708909071E+02  0.40369218818E+02  0.61323599194E+02  0.41800000000E+01 0.  1.
        -11    1    1    2    0    0 -0.66205141204E+02 -0.60555433275E+01  0.11085424483E+03  0.12926118491E+03  0.00000000000E+00 0.  1.
         11    1    1    2    0    0  0.21336713519E+02  0.64169680421E+01  0.23459546097E+01  0.22403935495E+02  0.00000000000E+00 0. -1.
</event>
<event>
 7    1  0.2648915E-009  0.1084454E+03  0.7561462E-02  0.1263476E+00
          1   -1    0    0  501    0  0.00000000000E+00  0.00000000000E+00  0.33828249239E+03  0.33828249239E+03  0.00000000000E+00 0. -1.
         -1   -1    0    0    0  501 -0.00000000000E+00 -0.00000000000E+00 -0.44572059053E+02  0.44572059053E+02  0.00000000000E+00 0.  1.
         25    2    1    2    0    0  0.41159010145E+02  0.33578360097E+02  0.19629070704E+03  0.23874491594E+03  0.12509005890E+03 0.  0.
          5    1    3    3  502    0  0.28854354137E+02  0.71534520111E+02  0.17919330314E+03  0.19513450133E+03  0.41800000000E+01 0.  1.
         -5    1    3    3    0  502  0.12304656007E+02 -0.37956160014E+02  0.17097403898E+02  0.43610414611E+02  0.41800000000E+01 0.  1.
        -11    1    1    2    0    0 -0.61646705239E+02 -0.17500891495E+01  0.34456678201E+02  0.70644474316E+02  0.00000000000E+00 0.  1.
         11    1    1    2    0    0  0.20487695094E+02 -0.31828270948E+02  0.62963048099E+02  0.73465161183E+02  0.00000000000E+00 0. -1.
</event>
<event>
 7    1  0.2648915E-009  0.1284799E+03  0.7561462E-02  0.1229729E+00
          2   -1    0    0  501    0  0.00000000000E+00  0.00000000000E+00  0.23916197020E+03  0.23916197020E+03  0.00000000000E+00 0. -1.
         -2   -1    0    0    0  501 -0.00000000000E+00 -0.00000000000E+00 -0.79328052871E+02  0.79328052871E+02  0.00000000000E+00 0.  1.
         25    2    1    2    0    0  0.72386340418E+02  0.22201111872E+02  0.43551641511E+02  0.15256759809E+03  0.12508978720E+03 0.  0.
          5    1    3    3  502    0  0.40578222963E+02 -0.50274809327E+02  0.64764958773E+01  0.65065859178E+02  0.41800000000E+01 0.  1.
         -5    1    3    3    0  502  0.31808117455E+02  0.72475921199E+02  0.37075145633E+02  0.87501738917E+02  0.41800000000E+01 0.  1.
        -11    1    1    2    0    0  0.15351589398E+02  0.11278587933E+02  0.42234820172E+02  0.46332039430E+02  0.00000000000E+00 0.  1.
         11    1    1    2    0    0 -0.87737929817E+02 -0.33479699805E+02  0.74047455650E+02  0.11959038555E+03  0.00000000000E+00 0. -1.
</event>
<event>
 7    1  0.2648915E-009  0.1526497E+03  0.7561462E-02  0.1197254E+00
          2   -1    0    0  501    0  0.00000000000E+00  0.00000000000E+00  0.10624114342E+04  0.10624114342E+04  0.00000000000E+00 0. -1.
         -2   -1    0    0    0  501 -0.00000000000E+00 -0.00000000000E+00 -0.28465440492E+02  0.28465440492E+02  0.00000000000E+00 0.  1.
         25    2    1    2    0    0  0.99495637529E+02 -0.46782588962E+02  0.79772237098E+03  0.81492124168E+03  0.12509059301E+03 0.  0.
          5    1    3    3  502    0  0.72415438382E+02  0.34526762558E+02  0.41414317056E+03  0.42186269232E+03  0.41800000000E+01 0.  1.
         -5    1    3    3    0  502  0.27080199148E+02 -0.81309351520E+02  0.38357920042E+03  0.39305854936E+03  0.41800000000E+01 0.  1.
        -11    1    1    2    0    0 -0.51723326544E+02 -0.21345488451E+02  0.66323818965E+02  0.86774312720E+02  0.00000000000E+00 0.  1.
         11    1    1    2    0    0 -0.47772310985E+02  0.68128077413E+02  0.16989980375E+03  0.18918132028E+03  0.00000000000E+00 0. -1.
</event>
<event>
 7    1  0.2648915E-009  0.1129913E+03  0.7561462E-02  0.1255129E+00
         -3   -1    0    0    0  501 -0.00000000000E+00  0.00000000000E+00  0.49673514037E+02  0.49673514037E+02  0.00000000000E+00 0.  1.
          3   -1    0    0  501    0  0.00000000000E+00 -0.00000000000E+00 -0.34203223868E+03  0.34203223868E+03  0.00000000000E+00 0. -1.
         25    2    1    2    0    0 -0.57351532188E+02 -0.47013078583E+02 -0.16101527012E+03  0.21696238623E+03  0.12508929620E+03 0.  0.
          5    1    3    3  502    0  0.17881877852E+02  0.52120357281E+01  0.11006845078E+02  0.22035197084E+02  0.41800000000E+01 0. -1.
         -5    1    3    3    0  502 -0.75233410040E+02 -0.52225114311E+02 -0.17202211519E+03  0.19492718914E+03  0.41800000000E+01 0. -1.
        -11    1    1    2    0    0  0.62284642933E+02  0.68841322224E+02 -0.10767374900E+03  0.14216940816E+03  0.00000000000E+00 0. -1.
         11    1    1    2    0    0 -0.49331107449E+01 -0.21828243642E+02 -0.23669705525E+02  0.32573958337E+02  0.00000000000E+00 0.  1.
</event>
<event>
 7    1  0.2648915E-009  0.1151934E+03  0.7561462E-02  0.1251244E+00
          1   -1    0    0  501    0  0.00000000000E+00  0.00000000000E+00  0.12059060003E+03  0.12059060003E+03  0.00000000000E+00 0. -1.
         -1   -1    0    0    0  501 -0.00000000000E+00 -0.00000000000E+00 -0.17048918763E+03  0.17048918763E+03  0.00000000000E+00 0.  1.
         25    2    1    2    0    0 -0.61708594769E+02 -0.49966847558E+02  0.13463639273E+02  0.14877611339E+03  0.12509366815E+03 0.  0.
          5    1    3    3  502    0 -0.71600308212E+02 -0.79038502147E+00  0.49257663459E+02  0.87011600686E+02  0.41800000000E+01 0.  1.
         -5    1    3    3    0  502  0.98917134433E+01 -0.49176462536E+02 -0.35794024186E+02  0.61764512706E+02  0.41800000000E+01 0.  1.
        -11    1    1    2    0    0  0.70227591915E+02  0.14317870894E+02 -0.75105213652E+02  0.10381574645E+03  0.00000000000E+00 0.  1.
         11    1    1    2    0    0 -0.85189971462E+01  0.35648976664E+02  0.11742986771E+02  0.38487927820E+02  0.00000000000E+00 0. -1.
</event>
<event>
 7    1  0.2648915E-009  0.1174117E+03  0.7561462E-02  0.1247429E+00
         -2   -1    0    0    0  501 -0.00000000000E+00  0.00000000000E+00  0.14704220066E+04  0.14704220066E+04  0.00000000000E+00 0.  1.
          2   -1    0    0  501    0  0.00000000000E+00 -0.00000000000E+00 -0.18004535870E+02  0.18004535870E+02  0.00000000000E+00 0. -1.
         25    2    1    2    0    0  0.98263458345E+02 -0.60458455174E+01  0.11087066790E+04  0.11200761811E+04  0.12509153378E+03 0.  0.
          5    1    3    3  502    0  0.10226464981E+03  0.23535260977E+02  0.10368306417E+04  0.10421358928E+04  0.41800000000E+01 0. -1.
         -5    1    3    3    0  502 -0.40011914645E+01 -0.29581106494E+02  0.71876037280E+02  0.77940288231E+02  0.41800000000E+01 0. -1.
        -11    1    1    2    0    0 -0.10411740109E+02 -0.41723749469E+01 -0.20974339862E+01  0.11411059290E+02  0.00000000000E+00 0. -1.
         11    1    1    2    0    0 -0.87851718236E+02  0.10218220464E+02  0.34580822573E+03  0.35693930213E+03  0.00000000000E+00 0.  1.
</event>
<event>
 7    1  0.2648915E-009  0.1129851E+03  0.7561462E-02  0.1255140E+00
         -2   -1    0    0    0  501 -0.00000000000E+00  0.00000000000E+00  0.15112499622E+02  0.15112499622E+02  0.00000000000E+00 0. -1.
          2   -1    0    0  501    0  0.00000000000E+00 -0.00000000000E+00 -0.13227749150E+04  0.13227749150E+04  0.00000000000E+00 0.  1.
         25    2    1    2    0    0  0.11963025002E+02  0.89661999818E+02 -0.72664972060E+03  0.74286590520E+03  0.12509016140E+03 0.  0.
          5    1    3    3  502    0  0.19656322914E+02  0.88200105154E+02 -0.24552612780E+03  0.26166043150E+03  0.41800000000E+01 0. -1.
         -5    1    3    3    0  502 -0.76932979124E+01  0.14618946641E+01 -0.48112359281E+03  0.48120547370E+03  0.41800000000E+01 0. -1.
        -11    1    1    2    0    0  0.24833044220E+02  0.47684959373E+01 -0.81551680864E+02  0.85382054850E+02  0.00000000000E+00 0. -1.
         11    1    1    2    0    0 -0.36796069222E+02 -0.94430495755E+02 -0.49946101388E+03  0.50963945454E+03  0.00000000000E+00 0.  1.
</event>
<event>
 7    1  0.2648915E-009  0.1222092E+03  0.7561462E-02  0.1239496E+00
          1   -1    0    0  501    0  0.00000000000E+00  0.00000000000E+00  0.67096095077E+03  0.67096095077E+03  0.00000000000E+00 0. -1.
         -1   -1    0    0    0  501 -0.00000000000E+00 -0.00000000000E+00 -0.41870127287E+02  0.41870127287E+02  0.00000000000E+00 0.  1.
         25    2    1    2    0    0 -0.81269316542E+02 -0.48297662995E+02  0.50744229256E+03  0.53111368683E+03  0.12508677788E+03 0.  0.
          5    1    3    3  502    0  0.12548355139E+02  0.14567244674E+02  0.23959850492E+03  0.24040503696E+03  0.41800000000E+01 0.  1.
         -5    1    3    3    0  502 -0.93817671681E+02 -0.62864907669E+02  0.26784378763E+03  0.29070864987E+03  0.41800000000E+01 0.  1.
        -11    1    1    2    0    0  0.18501745339E+02  0.45255582018E+02  0.10633622643E+03  0.11703749543E+03  0.00000000000E+00 0. -1.
         11    1    1    2    0    0  0.62767571203E+02  0.30420809769E+01  0.15312304492E+02  0.64679895797E+02  0.00000000000E+00 0.  1.
</event>
<event>
 7    1  0.2648915E-009  0.1009247E+03  0.7561462E-02  0.1278363E+00
         -2   -1    0    0    0  501 -0.00000000000E+00  0.00000000000E+00  0.12644920760E+03  0.12644920760E+03  0.00000000000E+00 0. -1.
          2   -1    0    0  501    0  0.00000000000E+00 -0.00000000000E+00 -0.13187786031E+03  0.13187786031E+03  0.00000000000E+00 0.  1.
         25    2    1    2    0    0  0.39626594094E+02 -0.34784231223E+02 -0.50355085278E+02  0.14479496463E+03  0.12509891074E+03 0.  0.
          5    1    3    3  502    0  0.16410167766E+02 -0.79221989788E+02 -0.12808215315E+02  0.82017925184E+02  0.41800000000E+01 0.  1.
         -5    1    3    3    0  502  0.23216426328E+02  0.44437758565E+02 -0.37546869962E+02  0.62777039446E+02  0.41800000000E+01 0.  1.
        -11    1    1    2    0    0 -0.37870277480E+02  0.45767518142E+02  0.66555771653E+02  0.89210393865E+02  0.00000000000E+00 0. -1.
         11    1    1    2    0    0 -0.17563166143E+01 -0.10983286919E+02 -0.21629339080E+02  0.24321709410E+02  0.00000000000E+00 0.  1.
</event>
<event>
 7    1  0.2648915E-009  0.1043984E+03  0.7561462E-02  0.1271310E+00
          2   -1    0    0  501    0  0.00000000000E+00  0.00000000000E+00  0.17567508236E+03  0.17567508236E+03  0.00000000000E+00 0. -1.
         -2   -1    0    0    0  501 -0.00000000000E+00 -0.00000000000E+00 -0.11540822240E+03  0.11540822240E+03  0.00000000000E+00 0.  1.
         25    2    1    2    0    0 -0.84216703772E+02  0.27247513632E+02  0.59770386951E+02  0.16448659640E+03  0.12509380899E+03 0.  0.
          5    1    3    3  502    0  0.11873458871E+01  0.86978993031E+01 -0.34515185045E+02  0.35858522575E+02  0.41800000000E+01 0. -1.
         -5    1    3    3    0  502 -0.85404049659E+02  0.18549614329E+02  0.94285571997E+02  0.12862807383E+03  0.41800000000E+01 0. -1.
        -11    1    1    2    0    0  0.54828029771E+02 -0.50161950859E+02 -0.28281730995E+02  0.79512203281E+02  0.00000000000E+00 0.  1.
         11    1    1    2    0    0  0.29388674001E+02  0.22914437227E+02  0.28778203996E+02  0.47084505075E+02  0.00000000000E+00 0. -1.
</event>
<event>
 7    1  0.2648915E-009  0.1828605E+03  0.7561462E-02  0.1165063E+00
          1   -1    0    0  501    0  0.00000000000E+00  0.00000000000E+00  0.11341633454E+03  0.11341633454E+03  0.00000000000E+00 0. -1.
         -1   -1    0    0    0  501 -0.00000000000E+00 -0.00000000000E+00 -0.33580233726E+03  0.33580233726E+03  0.00000000000E+00 0.  1.
         25    2    1    2    0    0  0.13840902265E+03  0.53609462026E+02 -0.19098512755E+03  0.27231297113E+03  0.12509197948E+03 0.  0.
          5    1    3    3  502    0  0.11540989958E+02 -0.36422464944E+02 -0.40371181968E+02  0.55741323408E+02  0.41800000000E+01 0.  1.
         -5    1    3    3    0  502  0.12686803269E+03  0.90031926970E+02 -0.15061394558E+03  0.21657164773E+03  0.41800000000E+01 0.  1.
        -11    1    1    2    0    0 -0.11804810474E+03 -0.76776840310E+02 -0.14052963870E+02  0.14151863494E+03  0.00000000000E+00 0. -1.
         11    1    1    2    0    0 -0.20360917912E+02  0.23167378284E+02 -0.17347911297E+02  0.35387065732E+02  0.00000000000E+00 0.  1.
</event>
<event>
 7    1  0.2648915E-009  0.1393704E+03  0.7561462E-02  0.1214179E+00
         -2   -1    0    0    0  501 -0.00000000000E+00  0.00000000000E+00  0.13922286961E+03  0.13922286961E+03  0.00000000000E+00 0.  1.
          2   -1    0    0  501    0  0.00000000000E+00 -0.00000000000E+00 -0.18571517161E+03  0.18571517161E+03  0.00000000000E+00 0. -1.
         25    2    1    2    0    0  0.70382237352E+02  0.70225567805E+02 -0.88351357170E+02  0.18258780675E+03  0.12508818949E+03 0.  0.
          5    1    3    3  502    0 -0.32547717468E+02  0.20790595488E+02 -0.47224923203E+02  0.61149558826E+02  0.41800000000E+01 0.  1.
         -5    1    3    3    0  502  0.10292995482E+03  0.49434972317E+02 -0.41126433967E+02  0.12143824792E+03  0.41800000000E+01 0.  1.
        -11    1    1    2    0    0 -0.42630652615E+02  0.73339142218E+01 -0.10796676228E+02  0.44583932731E+02  0.00000000000E+00 0. -1.
         11    1    1    2    0    0 -0.27751584738E+02 -0.77559482026E+02  0.52655731399E+02  0.97766301745E+02  0.00000000000E+00 0.  1.
</event>
<event>
 7    1  0.2648915E-009  0.1200063E+03  0.7561462E-02  0.1243087E+00
         -2   -1    0    0    0  501 -0.00000000000E+00  0.00000000000E+00  0.27068993427E+02  0.27068993427E+02  0.00000000000E+00 0. -1.
          2   -1    0    0  501    0  0.00000000000E+00 -0.00000000000E+00 -0.10663351186E+04  0.10663351186E+04  0.00000000000E+00 0.  1.
         25    2    1    2    0    0  0.59901344710E+02  0.92691018505E+02 -0.72791080912E+03  0.74678104202E+03  0.12509189695E+03 0.  0.
          5    1    3    3  502    0  0.38383913802E+02  0.48240760950E+01 -0.50037905774E+03  0.50188969941E+03  0.41800000000E+01 0. -1.
         -5    1    3    3    0  502  0.21517430908E+02  0.87866942410E+02 -0.22753175138E+03  0.24489134261E+03  0.41800000000E+01 0. -1.
        -11    1    1    2    0    0 -0.42063842036E+02 -0.59591390966E+02 -0.29788107256E+03  0.30668164939E+03  0.00000000000E+00 0.  1.
         11    1    1    2    0    0 -0.17837502675E+02 -0.33099627539E+02 -0.13474243533E+02  0.39941420651E+02  0.00000000000E+00 0. -1.
</event>
<event>
 7    1  0.2648915E-009  0.1516233E+03  0.7561462E-02  0.1198492E+00
          2   -1    0    0  501    0  0.00000000000E+00  0.00000000000E+00  0.17861992731E+03  0.17861992731E+03  0.00000000000E+00 0. -1.
         -2   -1    0    0    0  501 -0.00000000000E+00 -0.00000000000E+00 -0.17293121410E+03  0.17293121410E+03  0.00000000000E+00 0.  1.
         25    2    1    2    0    0 -0.10391729204E+03 -0.73928962982E+02  0.65116277888E+02  0.19013247808E+03  0.12508370966E+03 0.  0.
          5    1    3    3  502    0 -0.56166789499E+01 -0.69871380558E+02 -0.31807521685E+01  0.70293289067E+02  0.41800000000E+01 0.  1.
         -5    1    3    3    0  502 -0.98300613088E+02 -0.40575824236E+01  0.68297030056E+02  0.11983918901E+03  0.41800000000E+01 0.  1.
        -11    1    1    2    0    0  0.16553907922E+02 -0.44941146617E+01  0.14687519350E+02  0.22582120333E+02  0.00000000000E+00 0. -1.
         11    1    1    2    0    0  0.87363384116E+02  0.78423077643E+02 -0.74115084021E+02  0.13883654299E+03  0.00000000000E+00 0.  1.
</event>
<event>
 7    1  0.2648915E-009  0.8913266E+02  0.7561462E-02  0.1304966E+00
         -1   -1    0    0    0  501 -0.00000000000E+00  0.00000000000E+00  0.31129940130E+03  0.31129940130E+03  0.00000000000E+00 0.  1.
          1   -1    0    0  501    0  0.00000000000E+00 -0.00000000000E+00 -0.46757189890E+02  0.46757189890E+02  0.00000000000E+00 0. -1.
         25    2    1    2    0    0 -0.23424005141E+02  0.33116827891E+02  0.98952862460E+02  0.16456103780E+03  0.12507301015E+03 0.  0.
          5    1    3    3  502    0 -0.45363278435E+02  0.36983263330E+02  0.12003291455E+03  0.13360749145E+03  0.41800000000E+01 0.  1.
         -5    1    3    3    0  502  0.21939273295E+02 -0.38664354387E+01 -0.21080052088E+02  0.30953546351E+02  0.41800000000E+01 0.  1.
        -11    1    1    2    0    0  0.38327699959E+02 -0.57048824806E+02  0.93129186616E+02  0.11574379636E+03  0.00000000000E+00 0.  1.
         11    1    1    2    0    0 -0.14903694818E+02  0.23931996915E+02  0.72460162331E+02  0.77751757026E+02  0.00000000000E+00 0. -1.
</event>
<event>
 7    1  0.2648915E-009  0.8953196E+02  0.7561462E-02  0.1303989E+00
         -1   -1    0    0    0  501 -0.00000000000E+00  0.00000000000E+00  0.29180664615E+02  0.29180664615E+02  0.00000000000E+00 0.  1.
          1   -1    0    0  501    0  0.00000000000E+00 -0.00000000000E+00 -0.52119460289E+03  0.52119460289E+03  0.00000000000E+00 0. -1.
         25    2    1    2    0    0 -0.32563507982E+02 -0.45724352164E+02 -0.23639892303E+03  0.27328175212E+03  0.12508943521E+03 0.  0.
          5    1    3    3  502    0 -0.46870362759E+02 -0.34594577274E+02 -0.24565628446E+03  0.25250365973E+03  0.41800000000E+01 0. -1.
         -5    1    3    3    0  502  0.14306854777E+02 -0.11129774891E+02  0.92573614344E+01  0.20778092392E+02  0.41800000000E+01 0. -1.
        -11    1    1    2    0    0  0.55391915033E+02  0.53157428739E+01 -0.17966983315E+03  0.18808979323E+03  0.00000000000E+00 0. -1.
         11    1    1    2    0    0 -0.22828407051E+02  0.40408609290E+02 -0.75945182103E+02  0.89003722158E+02  0.00000000000E+00 0.  1.
</event>
<event>
 7    1  0.2648915E-009  0.8373310E+02  0.7561462E-02  0.1318779E+00
         -2   -1    0    0    0  501 -0.00000000000E+00  0.00000000000E+00  0.13762688852E+02  0.13762688852E+02  0.00000000000E+00 0.  1.
          2   -1    0    0  501    0  0.00000000000E+00 -0.00000000000E+00 -0.15706746293E+04  0.15706746293E+04  0.00000000000E+00 0. -1.
         25    2    1    2    0    0  0.48167357109E+02 -0.86839943533E+01 -0.13131055969E+04  0.13199582210E+04  0.12509152878E+03 0.  0.
          5    1    3    3  502    0 -0.47103935942E+01  0.72901347712E+01 -0.53297644841E+01  0.11009662222E+02  0.41800000000E+01 0. -1.
         -5    1    3    3    0  502  0.52877750703E+02 -0.15974129124E+02 -0.13077758324E+04  0.13089485587E+04  0.41800000000E+01 0. -1.
        -11    1    1    2    0    0  0.26930933350E+02  0.35380455172E+01 -0.69045465102E+02  0.74196153461E+02  0.00000000000E+00 0.  1.
         11    1    1    2    0    0 -0.75098290459E+02  0.51459488361E+01 -0.17476087848E+03  0.19028294370E+03  0.00000000000E+00 0. -1.
</event>
<event>
 7    1  0.2648915E-009  0.2667704E+03  0.7561462E-02  0.1103142E+00
          2   -1    0    0  501    0  0.00000000000E+00  0.00000000000E+00  0.23823931470E+04  0.23823931470E+04  0.00000000000E+00 0. -1.
         -2   -1    0    0    0  501 -0.00000000000E+00 -0.00000000000E+00 -0.33735820797E+02  0.33735820797E+02  0.00000000000E+00 0.  1.
         25    2    1    2    0    0  0.18418271166E+03 -0.17556969558E+03  0.14570624899E+04  0.14843936660E+04  0.12508184077E+03 0.  0.
          5    1    3    3  502    0 -0.14139620607E+02 -0.22653278157E+02  0.72828025852E+02  0.77682003267E+02  0.41800000000E+01 0.  1.
         -5    1    3    3    0  502  0.19832233227E+03 -0.15291641742E+03  0.13842344640E+04  0.14067116627E+04  0.41800000000E+01 0.  1.
        -11    1    1    2    0    0 -0.95193862017E+02  0.71110442869E+02  0.26703157429E+03  0.29227457659E+03  0.00000000000E+00 0.  1.
         11    1    1    2    0    0 -0.88988849647E+02  0.10445925271E+03  0.62456326204E+03  0.63946072525E+03  0.00000000000E+00 0. -1.
</event>
<event>
 7    1  0.2648915E-009  0.1253727E+03  0.7561462E-02  0.1234488E+00
         -3   -1    0    0    0  501 -0.00000000000E+00  0.00000000000E+00  0.15766539497E+03  0.15766539497E+03  0.00000000000E+00 0.  1.
          3   -1    0    0  501    0  0.00000000000E+00 -0.00000000000E+00 -0.11775486058E+03  0.11775486058E+03  0.00000000000E+00 0. -1.
         25    2    1    2    0    0  0.11171116431E+02 -0.77550878092E+02 -0.78164965034E+01  0.14780757228E+03  0.12508816200E+03 0.  0.
          5    1    3    3  502    0  0.64984014629E+02 -0.64159727551E+02 -0.11166717440E+02  0.92095389543E+02  0.41800000000E+01 0.  1.
         -5    1    3    3    0  502 -0.53812898198E+02 -0.13391150541E+02  0.33502209361E+01  0.55712182740E+02  0.41800000000E+01 0.  1.
        -11    1    1    2    0    0 -0.34555833183E+02  0.71730297203E+02  0.65327898585E+01  0.79887536494E+02  0.00000000000E+00 0. -1.
         11    1    1    2    0    0  0.23384716752E+02  0.58205808890E+01  0.41194241033E+02  0.47725146765E+02  0.00000000000E+00 0.  1.
</event>
<event>
 7    1  0.2648915E-009  0.1750241E+03  0.7561462E-02  0.1172707E+00
         -1   -1    0    0    0  501 -0.00000000000E+00  0.00000000000E+00  0.50762982527E+02  0.50762982527E+02  0.00000000000E+00 0.  1.
          1   -1    0    0  501    0  0.00000000000E+00 -0.00000000000E+00 -0.73866292756E+03  0.73866292756E+03  0.00000000000E+00 0. -1.
         25    2    1    2    0    0  0.11614001723E+03 -0.10893753352E+03 -0.33639307058E+03  0.39263668418E+03  0.12508948004E+03 0.  0.
          5    1    3    3  502    0  0.12432455317E+03 -0.66363872994E+02 -0.17112084572E+03  0.22172184015E+03  0.41800000000E+01 0.  1.
         -5    1    3    3    0  502 -0.81845359395E+01 -0.42573660525E+02 -0.16527222486E+03  0.17091484403E+03  0.41800000000E+01 0.  1.
        -11    1    1    2    0    0 -0.92159553954E+02  0.10733258012E+03 -0.20968693734E+03  0.25294718388E+03  0.00000000000E+00 0.  1.
         11    1    1    2    0    0 -0.23980463273E+02  0.16049534009E+01 -0.14181993711E+03  0.14384204203E+03  0.00000000000E+00 0. -1.
</event>
<event>
 7    1  0.2648915E-009  0.1364844E+03  0.7561462E-02  0.1218139E+00
          1   -1    0    0  501    0  0.00000000000E+00  0.00000000000E+00  0.19437355657E+03  0.19437355657E+03  0.00000000000E+00 0. -1.
         -1   -1    0    0    0  501 -0.00000000000E+00 -0.00000000000E+00 -0.11933722753E+03  0.11933722753E+03  0.00000000000E+00 0.  1.
         25    2    1    2    0    0 -0.90522130603E+02 -0.52295377081E+02  0.13810261393E+02  0.16360800980E+03  0.12509114661E+03 0.  0.
          5    1    3    3  502    0 -0.11368645475E+03 -0.54418295983E+02 -0.14260873862E+02  0.12691259139E+03  0.41800000000E+01 0. -1.
         -5    1    3    3    0  502  0.23164324145E+02  0.21229189017E+01  0.28071135255E+02  0.36695418410E+02  0.41800000000E+01 0. -1.
        -11    1    1    2    0    0  0.12038225845E+02  0.42453754025E+02 -0.81698059195E+01  0.44877453594E+02  0.00000000000E+00 0.  1.
         11    1    1    2    0    0  0.78483904758E+02  0.98416230560E+01  0.69395873560E+02  0.10522532071E+03  0.00000000000E+00 0. -1.
</event>
<event>
 7    1  0.2648915E-009  0.1380789E+03  0.7561462E-02  0.1215938E+00
         -1   -1    0    0    0  501 -0.00000000000E+00  0.00000000000E+00  0.26972425423E+02  0.26972425423E+02  0.00000000000E+00 0.  1.
          1   -1    0    0  501    0  0.00000000000E+00 -0.00000000000E+00 -0.93648132557E+03  0.93648132557E+03  0.00000000000E+00 0. -1.
         25    2    1    2    0    0 -0.33178737580E+02  0.10271534321E+03 -0.62147377615E+03  0.64306215993E+03  0.12509203302E+03 0.  0.
          5    1    3    3  502    0  0.21538277955E+02  0.67105901517E+02 -0.50120625951E+03  0.50615440965E+03  0.41800000000E+01 0. -1.
         -5    1    3    3    0  502 -0.54717015535E+02  0.35609441691E+02 -0.12026751665E+03  0.13690775028E+03  0.41800000000E+01 0. -1.
        -11    1    1    2    0    0  0.62022413081E+02 -0.48521519643E+02 -0.15398843623E+03  0.17295535865E+03  0.00000000000E+00 0.  1.
         11    1    1    2    0    0 -0.28843675501E+02 -0.54193823565E+02 -0.13404668776E+03  0.14743623241E+03  0.00000000000E+00 0. -1.
</event>
<event>
 7    1  0.2648915E-009  0.1084953E+03  0.7561462E-02  0.1263382E+00
          1   -1    0    0  501    0  0.00000000000E+00  0.00000000000E+00  0.56620395321E+03  0.56620395321E+03  0.00000000000E+00 0. -1.
         -1   -1    0    0    0  501 -0.00000000000E+00 -0.00000000000E+00 -0.31137236853E+02  0.31137236853E+02  0.00000000000E+00 0.  1.
         25    2    1    2    0    0 -0.29829481073E+02  0.52320492773E+02  0.40246945053E+03  0.42574208348E+03  0.12508969237E+03 0.  0.
          5    1    3    3  502    0  0.15262091599E+02 -0.18305869053E+02  0.25446085380E+03  0.25560875337E+03  0.41800000000E+01 0.  1.
         -5    1    3    3    0  502 -0.45091572672E+02  0.70626361827E+02  0.14800859673E+03  0.17013333011E+03  0.41800000000E+01 0.  1.
        -11    1    1    2    0    0  0.41138494168E+02  0.12578706183E+02  0.50512643450E+02  0.66348524474E+02  0.00000000000E+00 0.  1.
         11    1    1    2    0    0 -0.11309013095E+02 -0.64899198956E+02  0.82084622381E+02  0.10525058211E+03  0.00000000000E+00 0. -1.
</event>
<event>
 7    1  0.2648915E-009  0.1089478E+03  0.7561462E-02  0.1262531E+00
         -2   -1    0    0    0  501 -0.00000000000E+00  0.00000000000E+00  0.13740156591E+03  0.13740156591E+03  0.00000000000E+00 0.  1.
          2   -1    0    0  501    0  0.00000000000E+00 -0.00000000000E+00 -0.10124210611E+03  0.10124210611E+03  0.00000000000E+00 0. -1.
         25    2    1    2    0    0 -0.40590037268E+02  0.33146616913E+01  0.38640811364E+02  0.13712124036E+03  0.12510229473E+03 0.  0.
          5    1    3    3  502    0  0.29048555080E+02 -0.29956137461E+02 -0.13304466790E+02  0.43996249390E+02  0.41800000000E+01 0. -1.
         -5    1    3    3    0  502 -0.69638592348E+02  0.33270799152E+02  0.51945278154E+02  0.93124990969E+02  0.41800000000E+01 0. -1.
        -11    1    1    2    0    0  0.25191543639E+02  0.43013589848E+02  0.10638034039E+02  0.50970094671E+02  0.00000000000E+00 0.  1.
         11    1    1    2    0    0  0.15398493630E+02 -0.46328251540E+02 -0.13119385595E+02  0.50552336990E+02  0.00000000000E+00 0. -1.
</event>
<event>
 7    1  0.2648915E-009  0.1012465E+03  0.7561462E-02  0.1277696E+00
         -2   -1    0    0    0  501 -0.00000000000E+00  0.00000000000E+00  0.52218285715E+02  0.52218285715E+02  0.00000000000E+00 0.  1.
          2   -1    0    0  501    0  0.00000000000E+00 -0.00000000000E+00 -0.39769520639E+03  0.39769520639E+03  0.00000000000E+00 0. -1.
         25    2    1    2    0    0 -0.21475215932E+02 -0.11276279092E+02 -0.33072822321E+03  0.35442205312E+03  0.12508195209E+03 0.  0.
          5    1    3    3  502    0 -0.31034955814E+02 -0.56974114807E+02 -0.10212586563E+03  0.12106354972E+03  0.41800000000E+01 0. -1.
         -5    1    3    3    0  502  0.95597398822E+01  0.45697835714E+02 -0.22860235759E+03  0.23335850340E+03  0.41800000000E+01 0. -1.
        -11    1    1    2    0    0  0.37007504815E+02  0.42122452488E+02 -0.21948497415E+02  0.60212896916E+02  0.00000000000E+00 0.  1.
         11    1    1    2    0    0 -0.15532288883E+02 -0.30846173395E+02  0.71997999559E+01  0.35278542068E+02  0.00000000000E+00 0. -1.
</event>
<event>
 7    1  0.2648915E-009  0.6320388E+02  0.7561462E-02  0.1384858E+00
          2   -1    0    0  501    0  0.00000000000E+00  0.00000000000E+00  0.63258812208E+03  0.63258812208E+03  0.00000000000E+00 0. -1.
         -2   -1    0    0    0  501 -0.00000000000E+00 -0.00000000000E+00 -0.26170113567E+02  0.26170113567E+02  0.00000000000E+00 0.  1.
         25    2    1    2    0    0  0.21036460610E+02  0.28429101682E+02  0.47435457012E+03  0.49184141041E+03  0.12507984771E+03 0.  0.
          5    1    3    3  502    0  0.45074198541E+01  0.38605282420E+02  0.46986038117E+03  0.47148375885E+03  0.41800000000E+01 0. -1.
         -5    1    3    3    0  502  0.16529040756E+02 -0.10176180738E+02  0.44941889474E+01  0.20357651559E+02  0.41800000000E+01 0. -1.
        -11    1    1    2    0    0 -0.33656759837E+02 -0.38628550034E+02  0.13983488118E+03  0.14892527105E+03  0.00000000000E+00 0. -1.
         11    1    1    2    0    0  0.12620299228E+02  0.10199448353E+02 -0.77714427873E+01  0.17991554193E+02  0.00000000000E+00 0.  1.
</event>
<event>
 7    1  0.2648915E-009  0.1341610E+03  0.7561462E-02  0.1221409E+00
         -4   -1    0    0    0  501 -0.00000000000E+00  0.00000000000E+00  0.71032976625E+02  0.71032976625E+02  0.00000000000E+00 0.  1.
          4   -1    0    0  501    0  0.00000000000E+00 -0.00000000000E+00 -0.36854937537E+03  0.36854937537E+03  0.00000000000E+00 0. -1.
         25    2    1    2    0    0 -0.94802979798E+02  0.37694626881E+01 -0.25792583256E+03  0.30195211305E+03  0.12509008612E+03 0.  0.
          5    1    3    3  502    0 -0.11178276713E+03 -0.17440213799E+02 -0.13594647593E+03  0.17691372135E+03  0.41800000000E+01 0. -1.
         -5    1    3    3    0  502  0.16979787331E+02  0.21209676487E+02 -0.12197935663E+03  0.12503839170E+03  0.41800000000E+01 0. -1.
        -11    1    1    2    0    0  0.33068467425E+02  0.40033633977E+02 -0.33273553451E+02  0.61671263539E+02  0.00000000000E+00 0. -1.
         11    1    1    2    0    0  0.61734512373E+02 -0.43803096665E+02 -0.63170127364E+01  0.75958975409E+02  0.00000000000E+00 0.  1.
</event>
<event>
 7    1  0.2648915E-009  0.1151749E+03  0.7561462E-02  0.1251276E+00
          1   -1    0    0  501    0  0.00000000000E+00  0.00000000000E+00  0.10742527814E+03  0.10742527814E+03  0.00000000000E+00 0. -1.
         -1   -1    0    0    0  501 -0.00000000000E+00 -0.00000000000E+00 -0.14060612420E+03  0.14060612420E+03  0.00000000000E+00 0.  1.
         25    2    1    2    0    0  0.19121458014E+02 -0.52999421581E+02 -0.14064907202E+02  0.13791260065E+03  0.12508994747E+03 0.  0.
          5    1    3    3  502    0  0.20985589979E+02 -0.93304125204E+02 -0.17075343153E+02  0.97237310280E+02  0.41800000000E+01 0.  1.
         -5    1    3    3    0  502 -0.18641319643E+01  0.40304703622E+02  0.30104359503E+01  0.40675290370E+02  0.41800000000E+01 0.  1.
        -11    1    1    2    0    0 -0.18857352279E+02  0.72319595124E+02 -0.37350593213E+02  0.83551124393E+02  0.00000000000E+00 0.  1.
         11    1    1    2    0    0 -0.26410573556E+00 -0.19320173543E+02  0.18234654354E+02  0.26567677297E+02  0.00000000000E+00 0. -1.
</event>
<event>
 7    1  0.2648915E-009  0.3601573E+03  0.7561462E-02  0.1058522E+00
         -1   -1    0    0    0  501 -0.00000000000E+00  0.00000000000E+00  0.16228310653E+03  0.16228310653E+03  0.00000000000E+00 0.  1.
          1   -1    0    0  501    0  0.00000000000E+00 -0.00000000000E+00 -0.86834233176E+03  0.86834233176E+03  0.00000000000E+00 0. -1.
         25    2    1    2    0    0 -0.98713346904E+02  0.34522640355E+03 -0.34649040318E+03  0.51441620478E+03  0.12507133037E+03 0.  0.
          5    1    3    3  502    0 -0.72702501685E+02  0.30175575019E+03 -0.22699791831E+03  0.38456171656E+03  0.41800000000E+01 0. -1.
         -5    1    3    3    0  502 -0.26010845219E+02  0.43470653365E+02 -0.11949248486E+03  0.12985448822E+03  0.41800000000E+01 0. -1.
        -11    1    1    2    0    0  0.95958404355E+02 -0.33459156877E+03 -0.31218031676E+03  0.46756398859E+03  0.00000000000E+00 0.  1.
         11    1    1    2    0    0  0.27549425486E+01 -0.10634834786E+02 -0.47388505292E+02  0.48645244919E+02  0.00000000000E+00 0. -1.
</event>
<event>
 7    1  0.2648915E-009  0.9758842E+02  0.7561462E-02  0.1285450E+00
          2   -1    0    0  501    0  0.00000000000E+00  0.00000000000E+00  0.35724005573E+03  0.35724005573E+03  0.00000000000E+00 0. -1.
         -2   -1    0    0    0  501 -0.00000000000E+00 -0.00000000000E+00 -0.42296535786E+02  0.42296535786E+02  0.00000000000E+00 0.  1.
         25    2    1    2    0    0 -0.93366062606E+01 -0.48834055690E+02  0.21811152638E+03  0.25630454440E+03  0.12508974511E+03 0.  0.
          5    1    3    3  502    0  0.22031900955E+02 -0.75352789053E+02  0.80045319635E+02  0.11219702792E+03  0.41800000000E+01 0. -1.
         -5    1    3    3    0  502 -0.31368507216E+02  0.26518733363E+02  0.13806620674E+03  0.14410751649E+03  0.41800000000E+01 0. -1.
        -11    1    1    2    0    0  0.28329592130E+00 -0.12886197504E+02 -0.12115535054E+02  0.17689559981E+02  0.00000000000E+00 0.  1.
         11    1    1    2    0    0  0.90533103393E+01  0.61720253194E+02  0.10894752863E+03  0.12554248713E+03  0.00000000000E+00 0. -1.
</event>
<event>
 7    1  0.2648915E-009  0.8557079E+02  0.7561462E-02  0.1313947E+00
         -2   -1    0    0    0  501 -0.00000000000E+00  0.00000000000E+00  0.40128181708E+02  0.40128181708E+02  0.00000000000E+00 0.  1.
          2   -1    0    0  501    0  0.00000000000E+00 -0.00000000000E+00 -0.42741179091E+03  0.42741179091E+03  0.00000000000E+00 0. -1.
         25    2    1    2    0    0 -0.10393217852E+02 -0.31609087852E+02 -0.98588260979E+02  0.16270763894E+03  0.12508787773E+03 0.  0.
          5    1    3    3  502    0  0.23078772168E+02  0.51163420445E+01 -0.10913046124E+03  0.11173959304E+03  0.41800000000E+01 0. -1.
         -5    1    3    3    0  502 -0.33471990020E+02 -0.36725429896E+02  0.10542200264E+02  0.50968045905E+02  0.41800000000E+01 0. -1.
        -11    1    1    2    0    0  0.62222163519E+00  0.63710930684E+02 -0.17257947339E+03  0.18396506322E+03  0.00000000000E+00 0. -1.
         11    1    1    2    0    0  0.97709962169E+01 -0.32101842833E+02 -0.11611587483E+03  0.12086727046E+03  0.00000000000E+00 0.  1.
</event>
<event>
 7    1  0.2648915E-009  0.8598450E+02  0.7561462E-02  0.1312878E+00
         -1   -1    0    0    0  501 -0.00000000000E+00  0.00000000000E+00  0.30652037045E+02  0.30652037045E+02  0.00000000000E+00 0.  1.
          1   -1    0    0  501    0  0.00000000000E+00 -0.00000000000E+00 -0.60088367730E+03  0.60088367730E+03  0.00000000000E+00 0. -1.
         25    2    1    2    0    0  0.57801566052E+02 -0.39011249441E+02 -0.21806300946E+03  0.26088784371E+03  0.12509233501E+03 0.  0.
          5    1    3    3  502    0 -0.43339170766E+01 -0.13466057740E+02 -0.18554979096E+03  0.18613520590E+03  0.41800000000E+01 0.  1.
         -5    1    3    3    0  502  0.62135483129E+02 -0.25545191701E+02 -0.32513218499E+02  0.74752637812E+02  0.41800000000E+01 0.  1.
        -11    1    1    2    0    0 -0.19533029895E+02 -0.14352708884E+02 -0.18270779600E+02  0.30353927199E+02  0.00000000000E+00 0.  1.
         11    1    1    2    0    0 -0.38268536157E+02  0.53363958325E+02 -0.33389785119E+03  0.34029394343E+03  0.00000000000E+00 0. -1.
</event>
<event>
 7    1  0.2648915E-009  0.6576571E+02  0.7561462E-02  0.1375114E+00
          4   -1    0    0  501    0  0.00000000000E+00  0.00000000000E+00  0.83736122568E+02  0.83736122568E+02  0.00000000000E+00 0. -1.
         -4   -1    0    0    0  501 -0.00000000000E+00 -0.00000000000E+00 -0.18425871764E+03  0.18425871764E+03  0.00000000000E+00 0.  1.
         25    2    1    2    0    0 -0.49791452977E+02 -0.54388449837E+01 -0.18872847934E+02  0.13606017060E+03  0.12508963110E+03 0.  0.
          5    1    3    3  502    0 -0.26952088301E+02  0.14393765544E+02 -0.70009026990E+02  0.76500534706E+02  0.41800000000E+01 0. -1.
         -5    1    3    3    0  502 -0.22839364676E+02 -0.19832610527E+02  0.51136179056E+02  0.59559635892E+02  0.41800000000E+01 0. -1.
        -11    1    1    2    0    0  0.47525237445E+02  0.22755276515E+02 -0.45571747777E+01  0.52888738361E+02  0.00000000000E+00 0. -1.
         11    1    1    2    0    0  0.22662155314E+01 -0.17316431531E+02 -0.77092572356E+02  0.79045931245E+02  0.00000000000E+00 0.  1.
</event>
<event>
 7    1  0.2648915E-009  0.1006699E+03  0.7561462E-02  0.1278894E+00
         -2   -1    0    0    0  501 -0.00000000000E+00  0.00000000000E+00  0.21779959362E+03  0.21779959362E+03  0.00000000000E+00 0.  1.
          2   -1    0    0  501    0  0.00000000000E+00 -0.00000000000E+00 -0.73098311813E+02  0.73098311813E+02  0.00000000000E+00 0. -1.
         25    2    1    2    0    0 -0.47816070998E+02  0.45121091849E+01  0.13338543677E+03  0.18906586724E+03  0.12508993420E+03 0.  0.
          5    1    3    3  502    0 -0.77528976009E+02 -0.57645544559E+01  0.13655633644E+03  0.15719121360E+03  0.41800000000E+01 0.  1.
         -5    1    3    3    0  502  0.29712905012E+02  0.10276663641E+02 -0.31708996785E+01  0.31874653639E+02  0.41800000000E+01 0.  1.
        -11    1    1    2    0    0  0.60747162130E+02  0.20082885850E+02  0.27538824667E+02  0.69655774168E+02  0.00000000000E+00 0. -1.
         11    1    1    2    0    0 -0.12931091133E+02 -0.24594995035E+02 -0.16222979628E+02  0.32176264026E+02  0.00000000000E+00 0.  1.
</event>
<event>
 7    1  0.2648915E-009  0.1358184E+03  0.7561462E-02  0.1219069E+00
         -2   -1    0    0    0  501 -0.00000000000E+00  0.00000000000E+00  0.62826814057E+02  0.62826814057E+02  0.00000000000E+00 0.  1.
          2   -1    0    0  501    0  0.00000000000E+00 -0.00000000000E+00 -0.42554608375E+03  0.42554608375E+03  0.00000000000E+00 0. -1.
         25    2    1    2    0    0 -0.99907102375E+02 -0.26474392944E+02 -0.96328020934E+02  0.18870156288E+03  0.12508744794E+03 0.  0.
          5    1    3    3  502    0 -0.55564127506E+02 -0.68988930082E+02 -0.90735479799E+02  0.12687491649E+03  0.41800000000E+01 0. -1.
         -5    1    3    3    0  502 -0.44342974869E+02  0.42514537138E+02 -0.55925411355E+01  0.61826646397E+02  0.41800000000E+01 0. -1.
        -11    1    1    2    0    0  0.39476594777E+02 -0.20833842606E+02 -0.37637650715E+02  0.58387012976E+02  0.00000000000E+00 0.  1.
         11    1    1    2    0    0  0.60430507598E+02  0.47308235550E+02 -0.22875359804E+03  0.24128432194E+03  0.00000000000E+00 0. -1.
</event>
<event>
 7    1  0.2648915E-009  0.1203680E+03  0.7561462E-02  0.1242491E+00
          2   -1    0    0  501    0  0.00000000000E+00  0.00000000000E+00  0.10692269240E+03  0.10692269240E+03  0.00000000000E+00 0. -1.
         -2   -1    0    0    0  501 -0.00000000000E+00 -0.00000000000E+00 -0.19092057312E+03  0.19092057312E+03  0.00000000000E+00 0.  1.
         25    2    1    2    0    0  0.57407637485E+02 -0.54967126538E+02 -0.10233586743E+03  0.18009887570E+03  0.12508378561E+03 0.  0.
          5    1    3    3  502    0 -0.38229369577E+02 -0.28732110590E+02 -0.24103544844E+02  0.53716591024E+02  0.41800000000E+01 0.  1.
         -5    1    3    3    0  502  0.95637007062E+02 -0.26235015949E+02 -0.78232322589E+02  0.12638228467E+03  0.41800000000E+01 0.  1.
        -11    1    1    2    0    0 -0.54669492241E+02  0.19716999118E+02 -0.23745227817E+02  0.62780166297E+02  0.00000000000E+00 0.  1.
         11    1    1    2    0    0 -0.27381452437E+01  0.35250127420E+02  0.42083214529E+02  0.54964223524E+02  0.00000000000E+00 0. -1.
</event>
<event>
 7    1  0.2648915E-009  0.1320783E+03  0.7561462E-02  0.1224404E+00
          2   -1    0    0  501    0  0.00000000000E+00  0.00000000000E+00  0.51615838265E+03  0.51615838265E+03  0.00000000000E+00 0. -1.
         -2   -1    0    0    0  501 -0.00000000000E+00 -0.00000000000E+00 -0.46507068203E+02  0.46507068203E+02  0.00000000000E+00 0.  1.
         25    2    1    2    0    0  0.42849084614E+02  0.68885721239E+02  0.39018660828E+03  0.41770004344E+03  0.12508577204E+03 0.  0.
          5    1    3    3  502    0 -0.28522753671E+02 -0.19838046664E+02  0.99871240268E+02  0.10582453688E+03  0.41800000000E+01 0. -1.
         -5    1    3    3    0  502  0.71371838285E+02  0.88723767903E+02  0.29031536801E+03  0.31187550657E+03  0.41800000000E+01 0. -1.
        -11    1    1    2    0    0 -0.47701787895E+02 -0.15695107265E+01  0.11312143656E+02  0.49049857557E+02  0.00000000000E+00 0.  1.
         11    1    1    2    0    0  0.48527032810E+01 -0.67316210512E+02  0.68152562505E+02  0.95915549849E+02  0.00000000000E+00 0. -1.
</event>
<event>
 7    1  0.2648915E-009  0.1191231E+03  0.7561462E-02  0.1244551E+00
         -2   -1    0    0    0  501 -0.00000000000E+00  0.00000000000E+00  0.32574516533E+02  0.32574516533E+02  0.00000000000E+00 0.  1.
          2   -1    0    0  501    0  0.00000000000E+00 -0.00000000000E+00 -0.45591825582E+03  0.45591825582E+03  0.00000000000E+00 0. -1.
         25    2    1    2    0    0  0.43901957824E+02 -0.31439511744E+02 -0.20434732446E+03  0.24560678962E+03  0.12509612821E+03 0.  0.
          5    1    3    3  502    0  0.49205734168E+02  0.40523002500E+02 -0.10041387450E+03  0.11901149776E+03  0.41800000000E+01 0. -1.
         -5    1    3    3    0  502 -0.53037763443E+01 -0.71962514244E+02 -0.10393344996E+03  0.12659529186E+03  0.41800000000E+01 0. -1.
        -11    1    1    2    0    0 -0.70237995679E+02  0.17944003333E+02 -0.12684160084E+03  0.14609638940E+03  0.00000000000E+00 0.  1.
         11    1    1    2    0    0  0.26336037855E+02  0.13495508410E+02 -0.92154813988E+02  0.96789593337E+02  0.00000000000E+00 0. -1.
</event>
<event>
 7    1  0.2648915E-009  0.1590947E+03  0.7561462E-02  0.1189723E+00
         -1   -1    0    0    0  501 -0.00000000000E+00  0.00000000000E+00  0.86969318172E+02  0.86969318172E+02  0.00000000000E+00 0.  1.
          1   -1    0    0  501    0  0.00000000000E+00 -0.00000000000E+00 -0.36715145036E+03  0.36715145036E+03  0.00000000000E+00 0. -1.
         25    2    1    2    0    0 -0.13319354984E+03  0.34986567731E+01 -0.89073741467E+02  0.20332042814E+03  0.12510916337E+03 0.  0.
          5    1    3    3  502    0 -0.74948648264E+02 -0.59876215574E+02 -0.54966874262E+02  0.11064036666E+03  0.41800000000E+01 0.  1.
         -5    1    3    3    0  502 -0.58244901577E+02  0.63374872347E+02 -0.34106867205E+02  0.92680061477E+02  0.41800000000E+01 0.  1.
        -11    1    1    2    0    0  0.37219023271E+02 -0.13288944600E+02 -0.32934868699E+01  0.39657266643E+02  0.00000000000E+00 0.  1.
         11    1    1    2    0    0  0.95974526571E+02  0.97902878268E+01 -0.18781490385E+03  0.21114307376E+03  0.00000000000E+00 0. -1.
</event>
<event>
 7    1  0.2648915E-009  0.1062783E+03  0.7561462E-02  0.1267621E+00
          1   -1    0    0  501    0  0.00000000000E+00  0.00000000000E+00  0.52165363279E+02  0.52165363279E+02  0.00000000000E+00 0. -1.
         -1   -1    0    0    0  501 -0.00000000000E+00 -0.00000000000E+00 -0.39778752583E+03  0.39778752583E+03  0.00000000000E+00 0.  1.
         25    2    1    2    0    0 -0.20828555105E+02  0.88558982997E+02 -0.14153577118E+03  0.20965762486E+03  0.12508965969E+03 0.  0.
          5    1    3    3  502    0 -0.50249552758E+02  0.70928496517E+02 -0.28677257904E+02  0.91628198124E+02  0.41800000000E+01 0.  1.
         -5    1    3    3    0  502  0.29420997653E+02  0.17630486480E+02 -0.11285851328E+03  0.11802942674E+03  0.41800000000E+01 0.  1.
        -11    1    1    2    0    0  0.12384888187E+02 -0.54342184126E+02 -0.19649093573E+03  0.20424286096E+03  0.00000000000E+00 0.  1.
         11    1    1    2    0    0  0.84436669180E+01 -0.34216798872E+02 -0.75954556373E+01  0.36052403282E+02  0.00000000000E+00 0. -1.
</event>
<event>
 7    1  0.2648915E-009  0.1971267E+03  0.7561462E-02  0.1152186E+00
          1   -1    0    0  501    0  0.00000000000E+00  0.00000000000E+00  0.21601589872E+03  0.21601589872E+03  0.00000000000E+00 0. -1.
         -1   -1    0    0    0  501 -0.00000000000E+00 -0.00000000000E+00 -0.19458869737E+03  0.19458869737E+03  0.00000000000E+00 0.  1.
         25    2    1    2    0    0 -0.16556052350E+03  0.15267330945E+02  0.62178681626E+02  0.21715873195E+03  0.12509335745E+03 0.  0.
          5    1    3    3  502    0 -0.87421415918E+02  0.68243765373E+02  0.50536419264E+02  0.12194719163E+03  0.41800000000E+01 0. -1.
         -5    1    3    3    0  502 -0.78139107578E+02 -0.52976434428E+02  0.11642262362E+02  0.95211540323E+02  0.41800000000E+01 0. -1.
        -11    1    1    2    0    0  0.59434587883E+02 -0.49410175388E+02 -0.11069974775E+02  0.78079318710E+02  0.00000000000E+00 0.  1.
         11    1    1    2    0    0  0.10612593561E+03  0.34142844443E+02 -0.29681505495E+02  0.11536654543E+03  0.00000000000E+00 0. -1.
</event>
<event>
 7    1  0.2648915E-009  0.1447775E+03  0.7561462E-02  0.1207041E+00
         -2   -1    0    0    0  501 -0.00000000000E+00  0.00000000000E+00  0.13097994409E+03  0.13097994409E+03  0.00000000000E+00 0.  1.
          2   -1    0    0  501    0  0.00000000000E+00 -0.00000000000E+00 -0.21725606454E+03  0.21725606454E+03  0.00000000000E+00 0. -1.
         25    2    1    2    0    0 -0.11927322381E+03 -0.31778739332E+02 -0.79613243308E+01  0.17591585964E+03  0.12508803617E+03 0.  0.
          5    1    3    3  502    0 -0.52474746464E+02  0.37947593829E+02 -0.37378160889E+02  0.74888037798E+02  0.41800000000E+01 0. -1.
         -5    1    3    3    0  502 -0.66798477349E+02 -0.69726333161E+02  0.29416836558E+02  0.10102782184E+03  0.41800000000E+01 0. -1.
        -11    1    1    2    0    0  0.33069240657E+02  0.25163148222E+02  0.15859332222E+02  0.44477827337E+02  0.00000000000E+00 0.  1.
         11    1    1    2    0    0  0.86203983155E+02  0.66155911100E+01 -0.94174128336E+02  0.12784232165E+03  0.00000000000E+00 0. -1.
</event>
<event>
 7    1  0.2648915E-009  0.1453225E+03  0.7561462E-02  0.1206341E+00
          2   -1    0    0  501    0  0.00000000000E+00  0.00000000000E+00  0.12920099110E+04  0.12920099110E+04  0.00000000000E+00 0. -1.
         -2   -1    0    0    0  501 -0.00000000000E+00 -0.00000000000E+00 -0.26434227052E+02  0.26434227052E+02  0.00000000000E+00 0.  1.
         25    2    1    2    0    0  0.10938333145E+03  0.10216924110E+02  0.10223083540E+04  0.10357750333E+04  0.12508577134E+03 0.  0.
          5    1    3    3  502    0  0.47267022604E+02 -0.53936382831E+02  0.58720898242E+03  0.59158698959E+03  0.41800000000E+01 0. -1.
         -5    1    3    3    0  502  0.62116308846E+02  0.64153306941E+02  0.43509937162E+03  0.44418804373E+03  0.41800000000E+01 0. -1.
        -11    1    1    2    0    0 -0.54930456793E+02  0.29180683659E+02  0.17969534342E+03  0.19015594608E+03  0.00000000000E+00 0. -1.
         11    1    1    2    0    0 -0.54452874657E+02 -0.39397607769E+02  0.63571986491E+02  0.92513158647E+02  0.00000000000E+00 0.  1.
</event>
<event>
 7    1  0.2648915E-009  0.1000323E+03  0.7561462E-02  0.1280228E+00
         -2   -1    0    0    0  501 -0.00000000000E+00  0.00000000000E+00  0.51275100680E+02  0.51275100680E+02  0.00000000000E+00 0. -1.
          2   -1    0    0  501    0  0.00000000000E+00 -0.00000000000E+00 -0.40169155616E+03  0.40169155616E+03  0.00000000000E+00 0.  1.
         25    2    1    2    0    0  0.85585894769E+02 -0.83186061808E+01 -0.25003082242E+03  0.29250184250E+03  0.12509105129E+03 0.  0.
          5    1    3    3  502    0  0.11717182515E+02 -0.67582025544E+01  0.13023256676E+02  0.19236509099E+02  0.41800000000E+01 0. -1.
         -5    1    3    3    0  502  0.73868712254E+02 -0.15604036264E+01 -0.26305407909E+03  0.27326533340E+03  0.41800000000E+01 0. -1.
        -11    1    1    2    0    0 -0.75771317542E+02  0.35007439535E+02 -0.10222089960E+03  0.13196941199E+03  0.00000000000E+00 0.  1.
         11    1    1    2    0    0 -0.98145772266E+01 -0.26688833355E+02  0.18352665414E+01  0.28495402353E+02  0.00000000000E+00 0. -1.
</event>
<event>
 7    1  0.3149374E-009  0.2048176E+03  0.7561462E-02  0.1145737E+00
          2   -1    0    0  501    0  0.00000000000E+00  0.00000000000E+00  0.24959986351E+03  0.24959986351E+03  0.00000000000E+00 0. -1.
         -2   -1    0    0    0  501 -0.00000000000E+00 -0.00000000000E+00 -0.18966870455E+03  0.18966870455E+03  0.00000000000E+00 0.  1.
         25    2    1    2    0    0  0.17108236331E+03  0.75665657537E+02  0.49718922335E+02  0.23046422838E+03  0.12508925836E+03 0.  0.
          5    1    3    3  502    0  0.10595055817E+03 -0.10051997813E+02  0.59987273519E+02  0.12223955505E+03  0.41800000000E+01 0. -1.
         -5    1    3    3    0  502  0.65131805146E+02  0.85717655350E+02 -0.10268351184E+02  0.10822467333E+03  0.41800000000E+01 0. -1.
        -11    1    1    2    0    0 -0.11097827730E+03 -0.18629059817E+02 -0.30346479805E+02  0.11655097056E+03  0.00000000000E+00 0.  1.
         11    1    1    2    0    0 -0.60104086008E+02 -0.57036597720E+02  0.40558716431E+02  0.92253369114E+02  0.00000000000E+00 0. -1.
</event>
<event>
 7    1  0.2648915E-009  0.8597571E+02  0.7561462E-02  0.1312900E+00
          3   -1    0    0  501    0  0.00000000000E+00  0.00000000000E+00  0.31039269959E+03  0.31039269959E+03  0.00000000000E+00 0. -1.
         -3   -1    0    0    0  501 -0.00000000000E+00 -0.00000000000E+00 -0.57031293448E+02  0.57031293448E+02  0.00000000000E+00 0.  1.
         25    2    1    2    0    0 -0.88095316052E+01  0.15354858613E+02  0.31445065600E+02  0.13018921560E+03  0.12508820959E+03 0.  0.
          5    1    3    3  502    0  0.38000162402E+02 -0.20583478586E+02 -0.23567246917E+02  0.49402221210E+02  0.41800000000E+01 0. -1.
         -5    1    3    3    0  502 -0.46809694007E+02  0.35938337199E+02  0.55012312516E+02  0.80786994387E+02  0.41800000000E+01 0. -1.
        -11    1    1    2    0    0 -0.29289701817E+02 -0.96992177446E+01  0.16895205236E+03  0.17174620070E+03  0.00000000000E+00 0. -1.
         11    1    1    2    0    0  0.38099233422E+02 -0.56556408687E+01  0.52964288176E+02  0.65488576737E+02  0.00000000000E+00 0.  1.
</event>
<event>
 7    1  0.2648915E-009  0.1074734E+03  0.7561462E-02  0.1265322E+00
         -2   -1    0    0    0  501 -0.00000000000E+00  0.00000000000E+00  0.82622678984E+02  0.82622678984E+02  0.00000000000E+00 0.  1.
          2   -1    0    0  501    0  0.00000000000E+00 -0.00000000000E+00 -0.26366187071E+03  0.26366187071E+03  0.00000000000E+00 0. -1.
         25    2    1    2    0    0  0.29002895179E+02 -0.97267820440E+02 -0.87221667523E+02  0.18318590486E+03  0.12508900684E+03 0.  0.
          5    1    3    3  502    0  0.18695098425E+02 -0.44226466289E+02  0.28081661428E+02  0.55781171860E+02  0.41800000000E+01 0.  1.
         -5    1    3    3    0  502  0.10307796754E+02 -0.53041354151E+02 -0.11530332895E+03  0.12740473300E+03  0.41800000000E+01 0.  1.
        -11    1    1    2    0    0 -0.75969503409E+01  0.89440287163E+02 -0.28905877077E+02  0.94301794001E+02  0.00000000000E+00 0.  1.
         11    1    1    2    0    0 -0.21405944838E+02  0.78275332772E+01 -0.64911647126E+02  0.68796850830E+02  0.00000000000E+00 0. -1.
</event>
<event>
 7    1  0.2648915E-009  0.1356047E+03  0.7561462E-02  0.1219369E+00
          1   -1    0    0  501    0  0.00000000000E+00  0.00000000000E+00  0.83355888563E+03  0.83355888563E+03  0.00000000000E+00 0. -1.
         -1   -1    0    0    0  501 -0.00000000000E+00 -0.00000000000E+00 -0.36791784856E+02  0.36791784856E+02  0.00000000000E+00 0.  1.
         25    2    1    2    0    0  0.98322424494E+02  0.67213042559E+02  0.25538314938E+03  0.30830536690E+03  0.12508698583E+03 0.  0.
          5    1    3    3  502    0  0.23325057335E+02  0.23231106807E+02 -0.51814166752E+01  0.33586635764E+02  0.41800000000E+01 0. -1.
         -5    1    3    3    0  502  0.74997367159E+02  0.43981935752E+02  0.26056456605E+03  0.27471873113E+03  0.41800000000E+01 0. -1.
        -11    1    1    2    0    0 -0.49916638702E+02 -0.85690630409E+02  0.35262334137E+03  0.36630284716E+03  0.00000000000E+00 0.  1.
         11    1    1    2    0    0 -0.48405785793E+02  0.18477587850E+02  0.18876061002E+03  0.19574245642E+03  0.00000000000E+00 0. -1.
</event>
<event>
 7    1  0.2648915E-009  0.1730134E+03  0.7561462E-02  0.1174741E+00
         -1   -1    0    0    0  501 -0.00000000000E+00  0.00000000000E+00  0.20212596264E+03  0.20212596264E+03  0.00000000000E+00 0.  1.
          1   -1    0    0  501    0  0.00000000000E+00 -0.00000000000E+00 -0.18565934585E+03  0.18565934585E+03  0.00000000000E+00 0. -1.
         25    2    1    2    0    0 -0.51577367210E+02  0.12531465916E+03  0.94537331144E+02  0.20724038820E+03  0.12508909989E+03 0.  0.
          5    1    3    3  502    0  0.24466705664E+02 -0.11002908341E+02  0.22560163801E+02  0.35300383408E+02  0.41800000000E+01 0. -1.
         -5    1    3    3    0  502 -0.76044072874E+02  0.13631756750E+03  0.71977167343E+02  0.17194000479E+03  0.41800000000E+01 0. -1.
        -11    1    1    2    0    0  0.76431131877E+02 -0.77556390968E+02 -0.54645150316E+02  0.12183104757E+03  0.00000000000E+00 0.  1.
         11    1    1    2    0    0 -0.24853764667E+02 -0.47758268190E+02 -0.23425564047E+02  0.58713872718E+02  0.00000000000E+00 0. -1.
</event>
<event>
 7    1  0.2648915E-009  0.1162616E+03  0.7561462E-02  0.1249395E+00
          2   -1    0    0  501    0  0.00000000000E+00  0.00000000000E+00  0.74727690415E+03  0.74727690415E+03  0.00000000000E+00 0. -1.
         -2   -1    0    0    0  501 -0.00000000000E+00 -0.00000000000E+00 -0.25584861871E+02  0.25584861871E+02  0.00000000000E+00 0.  1.
         25    2    1    2    0    0  0.59562686256E+02  0.36630279921E+02  0.25301873693E+03  0.29078393366E+03  0.12508926348E+03 0.  0.
          5    1    3    3  502    0 -0.11935766195E+02 -0.27470294880E+02  0.13614626298E+03  0.13946453650E+03  0.41800000000E+01 0.  1.
         -5    1    3    3    0  502  0.71498452451E+02  0.64100574801E+02  0.11687247394E+03  0.15131939716E+03  0.41800000000E+01 0.  1.
        -11    1    1    2    0    0 -0.31272954059E+02  0.23893563358E+02  0.10124992136E+03  0.10862986054E+03  0.00000000000E+00 0.  1.
         11    1    1    2    0    0 -0.28289732197E+02 -0.60523843279E+02  0.36742338399E+03  0.37344797182E+03  0.00000000000E+00 0. -1.
</event>
<event>
 7    1  0.2648915E-009  0.4903609E+03  0.7561462E-02  0.1016326E+00
         -1   -1    0    0    0  501 -0.00000000000E+00  0.00000000000E+00  0.46147237524E+04  0.46147237524E+04  0.00000000000E+00 0.  1.
          1   -1    0    0  501    0  0.00000000000E+00 -0.00000000000E+00 -0.66496515449E+02  0.66496515449E+02  0.00000000000E+00 0. -1.
         25    2    1    2    0    0 -0.30031711831E+03 -0.37708995036E+03  0.33427268013E+04  0.33796237703E+04  0.12508860276E+03 0.  0.
          5    1    3    3  502    0 -0.86541800126E+02 -0.17696806898E+03  0.10566098640E+04  0.10748251289E+04  0.41800000000E+01 0.  1.
         -5    1    3    3    0  502 -0.21377531819E+03 -0.20012188138E+03  0.22861169373E+04  0.23047986414E+04  0.41800000000E+01 0.  1.
        -11    1    1    2    0    0  0.33269340115E+02  0.10261338653E+03  0.26913306240E+03  0.28994648017E+03  0.00000000000E+00 0. -1.
         11    1    1    2    0    0  0.26704777820E+03  0.27447656383E+03  0.93636737323E+03  0.10116500173E+04  0.00000000000E+00 0.  1.
</event>
<event>
 7    1  0.2648915E-009  0.1627720E+03  0.7561462E-02  0.1185602E+00
          3   -1    0    0  501    0  0.00000000000E+00  0.00000000000E+00  0.14509522717E+03  0.14509522717E+03  0.00000000000E+00 0. -1.
         -3   -1    0    0    0  501 -0.00000000000E+00 -0.00000000000E+00 -0.22571071948E+03  0.22571071948E+03  0.00000000000E+00 0.  1.
         25    2    1    2    0    0 -0.10817706659E+03  0.89759577031E+02 -0.12633664609E+01  0.18817031782E+03  0.12508961991E+03 0.  0.
          5    1    3    3  502    0 -0.12322263856E+03  0.62113812747E+02 -0.34400224714E+02  0.14227716699E+03  0.41800000000E+01 0. -1.
         -5    1    3    3    0  502  0.15045571962E+02  0.27645764284E+02  0.33136858253E+02  0.45893150833E+02  0.41800000000E+01 0. -1.
        -11    1    1    2    0    0  0.98933720459E+02 -0.42660246449E+02 -0.80711770473E+02  0.13461860036E+03  0.00000000000E+00 0.  1.
         11    1    1    2    0    0  0.92433461361E+01 -0.47099330582E+02  0.13596446272E+01  0.48017028465E+02  0.00000000000E+00 0. -1.
</event>
<event>
 7    1  0.2648915E-009  0.1775928E+03  0.7561462E-02  0.1170153E+00
          1   -1    0    0  501    0  0.00000000000E+00  0.00000000000E+00  0.21835756884E+03  0.21835756884E+03  0.00000000000E+00 0. -1.
         -1   -1    0    0    0  501 -0.00000000000E+00 -0.00000000000E+00 -0.17374520915E+03  0.17374520915E+03  0.00000000000E+00 0.  1.
         25    2    1    2    0    0  0.14177568810E+03 -0.70141072915E+02 -0.51230972308E+01  0.20172516326E+03  0.12508668803E+03 0.  0.
          5    1    3    3  502    0  0.14318774216E+03 -0.23935119432E+02  0.23601530086E+02  0.14713981130E+03  0.41800000000E+01 0. -1.
         -5    1    3    3    0  502 -0.14120540640E+01 -0.46205953484E+02 -0.28724627317E+02  0.54585351959E+02  0.41800000000E+01 0. -1.
        -11    1    1    2    0    0 -0.12486859414E+03  0.43982733712E+02  0.82368306291E+00  0.13239080452E+03  0.00000000000E+00 0.  1.
         11    1    1    2    0    0 -0.16907093957E+02  0.26158339203E+02  0.48911773863E+02  0.57986810210E+02  0.00000000000E+00 0. -1.
</event>
<event>
 7    1  0.2648915E-009  0.1315323E+03  0.7561462E-02  0.1225200E+00
         -1   -1    0    0    0  501 -0.00000000000E+00  0.00000000000E+00  0.18845430584E+02  0.18845430584E+02  0.00000000000E+00 0.  1.
          1   -1    0    0  501    0  0.00000000000E+00 -0.00000000000E+00 -0.98234259328E+03  0.98234259328E+03  0.00000000000E+00 0. -1.
         25    2    1    2    0    0 -0.74741400992E+02 -0.81322080126E+01 -0.40418695886E+03  0.42973132901E+03  0.12509799196E+03 0.  0.
          5    1    3    3  502    0  0.35328813470E+02 -0.19163099787E+01 -0.98927476328E+02  0.10514711255E+03  0.41800000000E+01 0. -1.
         -5    1    3    3    0  502 -0.11007021446E+03 -0.62158980340E+01 -0.30525948253E+03  0.32458421646E+03  0.41800000000E+01 0. -1.
        -11    1    1    2    0    0  0.48046900049E+02 -0.39706307310E+02 -0.30836777938E+03  0.31460416845E+03  0.00000000000E+00 0.  1.
         11    1    1    2    0    0  0.26694500943E+02  0.47838515323E+02 -0.25094242446E+03  0.25685252641E+03  0.00000000000E+00 0. -1.
</event>
<event>
 7    1  0.2648915E-009  0.1371642E+03  0.7561462E-02  0.1217197E+00
         -2   -1    0    0    0  501 -0.00000000000E+00  0.00000000000E+00  0.22863264693E+02  0.22863264693E+02  0.00000000000E+00 0.  1.
          2   -1    0    0  501    0  0.00000000000E+00 -0.00000000000E+00 -0.11983099292E+04  0.11983099292E+04  0.00000000000E+00 0. -1.
         25    2    1    2    0    0  0.20314598748E+02  0.10782029914E+03 -0.67209910098E+03  0.69238978753E+03  0.12509403071E+03 0.  0.
          5    1    3    3  502    0  0.16356197265E+00  0.86158090179E+02 -0.64877581802E+03  0.65448512412E+03  0.41800000000E+01 0.  1.
         -5    1    3    3    0  502  0.20151036775E+02  0.21662208964E+02 -0.23323282959E+02  0.37904663411E+02  0.41800000000E+01 0.  1.
        -11    1    1    2    0    0 -0.67796305955E+02 -0.70374432350E+02 -0.36383870421E+03  0.37673266717E+03  0.00000000000E+00 0. -1.
         11    1    1    2    0    0  0.47481707207E+02 -0.37445866792E+02 -0.13950885929E+03  0.15205073917E+03  0.00000000000E+00 0.  1.
</event>
<event>
 7    1  0.2648915E-009  0.9156614E+02  0.7561462E-02  0.1299103E+00
         -2   -1    0    0    0  501 -0.00000000000E+00  0.00000000000E+00  0.91199427053E+01  0.91199427053E+01  0.00000000000E+00 0.  1.
          2   -1    0    0  501    0  0.00000000000E+00 -0.00000000000E+00 -0.13553315177E+04  0.13553315177E+04  0.00000000000E+00 0. -1.
         25    2    1    2    0    0  0.28673658951E+01 -0.11873302582E+02 -0.90889209745E+03  0.91754103330E+03  0.12508999111E+03 0.  0.
          5    1    3    3  502    0  0.45408781014E+02 -0.15781981095E+02 -0.15295461569E+03  0.16038583223E+03  0.41800000000E+01 0. -1.
         -5    1    3    3    0  502 -0.42541415119E+02  0.39086785134E+01 -0.75593748176E+03  0.75715520106E+03  0.41800000000E+01 0. -1.
        -11    1    1    2    0    0  0.33914177773E+02 -0.23231429250E+02 -0.18345582355E+03  0.18800507960E+03  0.00000000000E+00 0.  1.
         11    1    1    2    0    0 -0.36781543668E+02  0.35104731832E+02 -0.25386365403E+03  0.25890534754E+03  0.00000000000E+00 0. -1.
</event>
<event>
 7    1  0.2648915E-009  0.1156194E+03  0.7561462E-02  0.1250504E+00
          1   -1    0    0  501    0  0.00000000000E+00  0.00000000000E+00  0.26920871858E+03  0.26920871858E+03  0.00000000000E+00 0. -1.
         -1   -1    0    0    0  501 -0.00000000000E+00 -0.00000000000E+00 -0.57165576921E+02  0.57165576921E+02  0.00000000000E+00 0.  1.
         25    2    1    2    0    0 -0.23936908960E+02 -0.50539953382E+02  0.12372920692E+03  0.18461702315E+03  0.12508903267E+03 0.  0.
          5    1    3    3  502    0  0.10700677853E+02 -0.86028457562E+02  0.85816920239E+02  0.12205497211E+03  0.41800000000E+01 0. -1.
         -5    1    3    3    0  502 -0.34637586813E+02  0.35488504180E+02  0.37912286683E+02  0.62562051043E+02  0.41800000000E+01 0. -1.
        -11    1    1    2    0    0  0.36508822574E+01  0.67889300791E+02  0.92437575811E+02  0.11474751206E+03  0.00000000000E+00 0. -1.
         11    1    1    2    0    0  0.20286026702E+02 -0.17349347409E+02 -0.41236410762E+01  0.27009760284E+02  0.00000000000E+00 0.  1.
</event>
<event>
 7    1  0.2648915E-009  0.1609844E+03  0.7561462E-02  0.1187590E+00
         -1   -1    0    0    0  501 -0.00000000000E+00  0.00000000000E+00  0.15847037000E+03  0.15847037000E+03  0.00000000000E+00 0.  1.
          1   -1    0    0  501    0  0.00000000000E+00 -0.00000000000E+00 -0.19981508433E+03  0.19981508433E+03  0.00000000000E+00 0. -1.
         25    2    1    2    0    0 -0.83671233940E+02 -0.86359980635E+02 -0.95415331921E+02  0.19801893139E+03  0.12509392463E+03 0.  0.
          5    1    3    3  502    0 -0.26126488042E+01 -0.90707959245E+02 -0.37824849543E+02  0.98401989040E+02  0.41800000000E+01 0. -1.
         -5    1    3    3    0  502 -0.81058585136E+02  0.43479786100E+01 -0.57590482377E+02  0.99616942348E+02  0.41800000000E+01 0. -1.
        -11    1    1    2    0    0 -0.18379073301E+02  0.42544507126E+01  0.13322896074E+02  0.23095242931E+02  0.00000000000E+00 0.  1.
         11    1    1    2    0    0  0.10205030724E+03  0.82105529922E+02  0.40747721522E+02  0.13717128002E+03  0.00000000000E+00 0. -1.
</event>
<event>
 7    1  0.2648915E-009  0.1254331E+03  0.7561462E-02  0.1234394E+00
          2   -1    0    0  501    0  0.00000000000E+00  0.00000000000E+00  0.72612279569E+03  0.72612279569E+03  0.00000000000E+00 0. -1.
         -2   -1    0    0    0  501 -0.00000000000E+00 -0.00000000000E+00 -0.27137756086E+02  0.27137756086E+02  0.00000000000E+00 0.  1.
         25    2    1    2    0    0  0.74126642561E+02 -0.29627806489E+02  0.27436642975E+03  0.31192644931E+03  0.12509438817E+03 0.  0.
          5    1    3    3  502    0 -0.55530336911E+01  0.41111772267E+02  0.72934131295E+02  0.84011153485E+02  0.41800000000E+01 0. -1.
         -5    1    3    3    0  502  0.79679676252E+02 -0.70739578756E+02  0.20143229846E+03  0.22791529583E+03  0.41800000000E+01 0. -1.
        -11    1    1    2    0    0 -0.70178447555E+02  0.47170022939E+02  0.40858411228E+03  0.41724213878E+03  0.00000000000E+00 0. -1.
         11    1    1    2    0    0 -0.39481950060E+01 -0.17542216449E+02  0.16034497569E+02  0.24091963682E+02  0.00000000000E+00 0.  1.
</event>
<event>
 7    1  0.2648915E-009  0.1283594E+03  0.7561462E-02  0.1229911E+00
         -1   -1    0    0    0  501 -0.00000000000E+00  0.00000000000E+00  0.25946765065E+02  0.25946765065E+02  0.00000000000E+00 0.  1.
          1   -1    0    0  501    0  0.00000000000E+00 -0.00000000000E+00 -0.73664510947E+03  0.73664510947E+03  0.00000000000E+00 0. -1.
         25    2    1    2    0    0  0.79821736984E+02 -0.12682606623E+02 -0.46058322325E+03  0.48406190672E+03  0.12508663313E+03 0.  0.
          5    1    3    3  502    0 -0.47172617941E-01 -0.51474199302E+02 -0.98383534658E+02  0.11111430021E+03  0.41800000000E+01 0. -1.
         -5    1    3    3    0  502  0.79868909602E+02  0.38791592679E+02 -0.36219968859E+03  0.37294760651E+03  0.41800000000E+01 0. -1.
        -11    1    1    2    0    0 -0.96194271009E+02  0.12243266816E+01 -0.23349991653E+03  0.25254118034E+03  0.00000000000E+00 0. -1.
         11    1    1    2    0    0  0.16372534025E+02  0.11458279941E+02 -0.16615204624E+02  0.25988787473E+02  0.00000000000E+00 0.  1.
</event>
<event>
 7    1  0.2648915E-009  0.1012761E+03  0.7561462E-02  0.1277635E+00
         -1   -1    0    0    0  501 -0.00000000000E+00  0.00000000000E+00  0.62261773205E+02  0.62261773205E+02  0.00000000000E+00 0.  1.
          1   -1    0    0  501    0  0.00000000000E+00 -0.00000000000E+00 -0.33475211327E+03  0.33475211327E+03  0.00000000000E+00 0. -1.
         25    2    1    2    0    0 -0.24476999347E+02 -0.82772170769E+02 -0.22108428378E+03  0.26828220954E+03  0.12508688050E+03 0.  0.
          5    1    3    3  502    0 -0.31179607582E+02 -0.94573947873E+02 -0.83660742388E+02  0.13012682952E+03  0.41800000000E+01 0.  1.
         -5    1    3    3    0  502  0.67026082351E+01  0.11801777104E+02 -0.13742354139E+03  0.13815538002E+03  0.41800000000E+01 0.  1.
        -11    1    1    2    0    0  0.25940060446E+02  0.54358147989E+02  0.99996662032E+01  0.61054797624E+02  0.00000000000E+00 0.  1.
         11    1    1    2    0    0 -0.14630610997E+01  0.28414022780E+02 -0.61405722496E+02  0.67676879313E+02  0.00000000000E+00 0. -1.
</event>
<event>
 7    1  0.2648915E-009  0.8356646E+02  0.7561462E-02  0.1319225E+00
         -1   -1    0    0    0  501 -0.00000000000E+00  0.00000000000E+00  0.11468047107E+03  0.11468047107E+03  0.00000000000E+00 0.  1.
          1   -1    0    0  501    0  0.00000000000E+00 -0.00000000000E+00 -0.20540788273E+03  0.20540788273E+03  0.00000000000E+00 0. -1.
         25    2    1    2    0    0  0.35349065156E+01  0.10034303876E+02 -0.16100123822E+03  0.20416200880E+03  0.12509014474E+03 0.  0.
          5    1    3    3  502    0 -0.52880778582E+02 -0.16607306236E+01 -0.12574632890E+03  0.13648716570E+03  0.41800000000E+01 0.  1.
         -5    1    3    3    0  502  0.56415685098E+02  0.11695034500E+02 -0.35254909322E+02  0.67674843097E+02  0.41800000000E+01 0.  1.
        -11    1    1    2    0    0 -0.13155922212E+02 -0.30754227308E+02 -0.79946636901E+01  0.34392083887E+02  0.00000000000E+00 0. -1.
         11    1    1    2    0    0  0.96210156963E+01  0.20719923431E+02  0.78268490252E+02  0.81534261119E+02  0.00000000000E+00 0.  1.
</event>
<event>
 7    1  0.2648915E-009  0.7617405E+02  0.7561462E-02  0.1340273E+00
          4   -1    0    0  501    0  0.00000000000E+00  0.00000000000E+00  0.13030830914E+03  0.13030830914E+03  0.00000000000E+00 0. -1.
         -4   -1    0    0    0  501 -0.00000000000E+00 -0.00000000000E+00 -0.15499577687E+03  0.15499577687E+03  0.00000000000E+00 0.  1.
         25    2    1    2    0    0 -0.54672227555E+02  0.16165334959E+02  0.46947849481E+02  0.14526478180E+03  0.12508951092E+03 0.  0.
          5    1    3    3  502    0  0.92079309189E+01  0.86121693237E+01  0.74127513970E+02  0.75308141523E+02  0.41800000000E+01 0. -1.
         -5    1    3    3    0  502 -0.63880158474E+02  0.75531656355E+01 -0.27179664489E+02  0.69956640282E+02  0.41800000000E+01 0. -1.
        -11    1    1    2    0    0  0.10723069162E+02 -0.27246002340E+02 -0.87303752933E+02  0.92082974170E+02  0.00000000000E+00 0.  1.
         11    1    1    2    0    0  0.43949158393E+02  0.11080667381E+02  0.15668435725E+02  0.47956330043E+02  0.00000000000E+00 0. -1.
</event>
<event>
 7    1  0.2648915E-009  0.9832954E+02  0.7561462E-02  0.1283848E+00
         -1   -1    0    0    0  501 -0.00000000000E+00  0.00000000000E+00  0.40988014698E+02  0.40988014698E+02  0.00000000000E+00 0.  1.
          1   -1    0    0  501    0  0.00000000000E+00 -0.00000000000E+00 -0.32493613172E+03  0.32493613172E+03  0.00000000000E+00 0. -1.
         25    2    1    2    0    0  0.37968185840E+02 -0.51023306547E+01 -0.15673363093E+03  0.20415732438E+03  0.12508862906E+03 0.  0.
          5    1    3    3  502    0 -0.24943595118E+02  0.16396222706E+02 -0.12818786798E+03  0.13168379154E+03  0.41800000000E+01 0. -1.
         -5    1    3    3    0  502  0.62911780958E+02 -0.21498553361E+02 -0.28545762944E+02  0.72473532838E+02  0.41800000000E+01 0. -1.
        -11    1    1    2    0    0 -0.34108934749E+02  0.46864443048E+02 -0.72131525015E+02  0.92534600842E+02  0.00000000000E+00 0.  1.
         11    1    1    2    0    0 -0.38592510909E+01 -0.41762112394E+02 -0.55082961074E+02  0.69232221192E+02  0.00000000000E+00 0. -1.
</event>
<event>
 7    1  0.2648915E-009  0.8492568E+02  0.7561462E-02  0.1315627E+00
          2   -1    0    0  501    0  0.00000000000E+00  0.00000000000E+00  0.40005536373E+02  0.40005536373E+02  0.00000000000E+00 0. -1.
         -2   -1    0    0    0  501 -0.00000000000E+00 -0.00000000000E+00 -0.39761231111E+03  0.39761231111E+03  0.00000000000E+00 0.  1.
         25    2    1    2    0    0  0.37647237816E+02 -0.13403607591E+01 -0.11127038354E+03  0.17159920944E+03  0.12508428896E+03 0.  0.
          5    1    3    3  502    0  0.51980406020E+02  0.65269672253E+01  0.62029270745E+01  0.52919869760E+02  0.41800000000E+01 0. -1.
         -5    1    3    3    0  502 -0.14333168203E+02 -0.78673279844E+01 -0.11747331061E+03  0.11867933968E+03  0.41800000000E+01 0. -1.
        -11    1    1    2    0    0  0.27657801154E+01  0.42585965674E+02 -0.10424901960E+03  0.11264578154E+03  0.00000000000E+00 0. -1.
         11    1    1    2    0    0 -0.40413017932E+02 -0.41245604915E+02 -0.14208737160E+03  0.15337285650E+03  0.00000000000E+00 0.  1.
</event>
<event>
 7    1  0.2648915E-009  0.9960274E+02  0.7561462E-02  0.1281134E+00
          1   -1    0    0  501    0  0.00000000000E+00  0.00000000000E+00  0.15484428324E+03  0.15484428324E+03  0.00000000000E+00 0. -1.
         -1   -1    0    0    0  501 -0.00000000000E+00 -0.00000000000E+00 -0.10882170296E+03  0.10882170296E+03  0.00000000000E+00 0.  1.
         25    2    1    2    0    0  0.13844727767E+02  0.62573313888E+02  0.49824317353E+02  0.14912026034E+03  0.12508914161E+03 0.  0.
          5    1    3    3  502    0 -0.40703174577E+02  0.63962616573E+01 -0.18271176277E+02  0.45265537293E+02  0.41800000000E+01 0. -1.
         -5    1    3    3    0  502  0.54547902345E+02  0.56177052231E+02  0.68095493629E+02  0.10385472305E+03  0.41800000000E+01 0. -1.
        -11    1    1    2    0    0 -0.30812570562E+02 -0.47846157965E+02  0.37061325294E+02  0.67913262101E+02  0.00000000000E+00 0. -1.
         11    1    1    2    0    0  0.16967842795E+02 -0.14727155922E+02 -0.40863062362E+02  0.46632463760E+02  0.00000000000E+00 0.  1.
</event>
<event>
 7    1  0.2648915E-009  0.1134571E+03  0.7561462E-02  0.1254299E+00
          1   -1    0    0  501    0  0.00000000000E+00  0.00000000000E+00  0.63125346715E+03  0.63125346715E+03  0.00000000000E+00 0. -1.
         -1   -1    0    0    0  501 -0.00000000000E+00 -0.00000000000E+00 -0.29249741226E+02  0.29249741226E+02  0.00000000000E+00 0.  1.
         25    2    1    2    0    0 -0.26745809423E+02  0.30977985437E+02  0.50226329858E+03  0.51922141826E+03  0.12508991238E+03 0.  0.
          5    1    3    3  502    0 -0.72949556879E+02  0.36863383923E+02  0.36973120228E+03  0.37868084354E+03  0.41800000000E+01 0. -1.
         -5    1    3    3    0  502  0.46203747456E+02 -0.58853984868E+01  0.13253209630E+03  0.14054057472E+03  0.41800000000E+01 0. -1.
        -11    1    1    2    0    0  0.55590763293E+02 -0.39541404867E+02  0.80714210615E+02  0.10568178394E+03  0.00000000000E+00 0.  1.
         11    1    1    2    0    0 -0.28844953871E+02  0.85634194306E+01  0.19026216727E+02  0.35600006167E+02  0.00000000000E+00 0. -1.
</event>
<event>
 7    1  0.2648915E-009  0.6616848E+02  0.7561462E-02  0.1373629E+00
         -2   -1    0    0    0  501 -0.00000000000E+00  0.00000000000E+00  0.62627889355E+02  0.62627889355E+02  0.00000000000E+00 0. -1.
          2   -1    0    0  501    0  0.00000000000E+00 -0.00000000000E+00 -0.23913990237E+03  0.23913990237E+03  0.00000000000E+00 0.  1.
         25    2    1    2    0    0 -0.23587254865E+02  0.51842469018E+02 -0.10596625402E+03  0.17355510111E+03  0.12509406838E+03 0.  0.
          5    1    3    3  502    0 -0.31885519625E+02  0.11770556429E+02 -0.12399918159E+03  0.12864098024E+03  0.41800000000E+01 0. -1.
         -5    1    3    3    0  502  0.82982647604E+01  0.40071912588E+02  0.18032927573E+02  0.44914120868E+02  0.41800000000E+01 0. -1.
        -11    1    1    2    0    0  0.64490622990E+01 -0.14541827062E+02  0.21897181128E+02  0.27065507203E+02  0.00000000000E+00 0. -1.
         11    1    1    2    0    0  0.17138192566E+02 -0.37300641955E+02 -0.92442940118E+02  0.10114718341E+03  0.00000000000E+00 0.  1.
</event>
<event>
 7    1  0.2648915E-009  0.1097842E+03  0.7561462E-02  0.1260970E+00
          1   -1    0    0  501    0  0.00000000000E+00  0.00000000000E+00  0.19635305168E+03  0.19635305168E+03  0.00000000000E+00 0. -1.
         -1   -1    0    0    0  501 -0.00000000000E+00 -0.00000000000E+00 -0.79277364969E+02  0.79277364969E+02  0.00000000000E+00 0.  1.
         25    2    1    2    0    0 -0.56368641901E+02  0.31598811951E+01  0.37850074061E+02  0.14236320792E+03  0.12508895325E+03 0.  0.
          5    1    3    3  502    0 -0.45116777348E+02 -0.49389235243E+02 -0.12984945777E+02  0.68270794436E+02  0.41800000000E+01 0.  1.
         -5    1    3    3    0  502 -0.11251864554E+02  0.52549116438E+02  0.50835019838E+02  0.74092413487E+02  0.41800000000E+01 0.  1.
        -11    1    1    2    0    0 -0.20316822974E+02 -0.79251992052E+01 -0.14530370228E+01  0.21856198087E+02  0.00000000000E+00 0.  1.
         11    1    1    2    0    0  0.76685464875E+02  0.47653180101E+01  0.80678649677E+02  0.11141101064E+03  0.00000000000E+00 0. -1.
</event>
<event>
 7    1  0.2648915E-009  0.1123942E+03  0.7561462E-02  0.1256199E+00
         -2   -1    0    0    0  501 -0.00000000000E+00  0.00000000000E+00  0.16806158324E+02  0.16806158324E+02  0.00000000000E+00 0.  1.
          2   -1    0    0  501    0  0.00000000000E+00 -0.00000000000E+00 -0.79944748580E+03  0.79944748580E+03  0.00000000000E+00 0. -1.
         25    2    1    2    0    0 -0.25357385617E+01 -0.35477995792E+02 -0.36765345367E+03  0.38997641610E+03  0.12508966769E+03 0.  0.
          5    1    3    3  502    0  0.43986733080E+02  0.26623439360E+02 -0.12656379561E+03  0.13667299283E+03  0.41800000000E+01 0.  1.
         -5    1    3    3    0  502 -0.46522471641E+02 -0.62101435151E+02 -0.24108965806E+03  0.25330342327E+03  0.41800000000E+01 0.  1.
        -11    1    1    2    0    0 -0.28005388346E+02  0.53245964079E+02 -0.21817647122E+03  0.22631925915E+03  0.00000000000E+00 0.  1.
         11    1    1    2    0    0  0.30541126908E+02 -0.17767968287E+02 -0.19681140258E+03  0.19995796887E+03  0.00000000000E+00 0. -1.
</event>
<event>
 7    1  0.2648915E-009  0.1934224E+03  0.7561462E-02  0.1155410E+00
          1   -1    0    0  501    0  0.00000000000E+00  0.00000000000E+00  0.13610183764E+04  0.13610183764E+04  0.00000000000E+00 0.  1.
         -1   -1    0    0    0  501 -0.00000000000E+00 -0.00000000000E+00 -0.44938189748E+02  0.44938189748E+02  0.00000000000E+00 0. -1.
         25    2    1    2    0    0 -0.76993759259E+02 -0.16698173332E+03  0.10304228783E+04  0.10541487725E+04  0.12508952076E+03 0.  0.
          5    1    3    3  502    0 -0.46151301721E+01 -0.46592098587E+01 -0.70408166493E+00  0.78086998920E+01  0.41800000000E+01 0. -1.
         -5    1    3    3    0  502 -0.72378629087E+02 -0.16232252346E+03  0.10311269600E+04  0.10463400726E+04  0.41800000000E+01 0. -1.
        -11    1    1    2    0    0  0.34387904742E+02  0.15244143285E+03  0.24793266086E+03  0.29307255546E+03  0.00000000000E+00 0.  1.
         11    1    1    2    0    0  0.42605854518E+02  0.14540300466E+02  0.37724647487E+02  0.58735238186E+02  0.00000000000E+00 0. -1.
</event>
<event>
 7    1  0.2648915E-009  0.1312193E+03  0.7561462E-02  0.1225658E+00
         -1   -1    0    0    0  501 -0.00000000000E+00  0.00000000000E+00  0.33258596153E+03  0.33258596153E+03  0.00000000000E+00 0.  1.
          1   -1    0    0  501    0  0.00000000000E+00 -0.00000000000E+00 -0.60481861751E+02  0.60481861751E+02  0.00000000000E+00 0. -1.
         25    2    1    2    0    0 -0.76329283476E+02  0.49615505703E+02  0.14636202312E+03  0.21297289719E+03  0.12509098771E+03 0.  0.
          5    1    3    3  502    0 -0.79972197391E+02  0.76988168603E+02  0.69115411438E+02  0.13083249963E+03  0.41800000000E+01 0. -1.
         -5    1    3    3    0  502  0.36429139152E+01 -0.27372662900E+02  0.77246611683E+02  0.82140397568E+02  0.41800000000E+01 0. -1.
        -11    1    1    2    0    0  0.78761503754E+02 -0.51908821669E+01  0.10403876248E+03  0.13059243405E+03  0.00000000000E+00 0.  1.
         11    1    1    2    0    0 -0.24322202782E+01 -0.44424623536E+02  0.21703314174E+02  0.49502492038E+02  0.00000000000E+00 0. -1.
</event>
<event>
 7    1  0.2648915E-009  0.9939998E+02  0.7561462E-02  0.1281563E+00
         -2   -1    0    0    0  501 -0.00000000000E+00  0.00000000000E+00  0.21426289304E+03  0.21426289304E+03  0.00000000000E+00 0.  1.
          2   -1    0    0  501    0  0.00000000000E+00 -0.00000000000E+00 -0.65831403283E+02  0.65831403283E+02  0.00000000000E+00 0. -1.
         25    2    1    2    0    0  0.13590815129E+02 -0.40765137511E+02  0.10283106392E+03  0.16753484433E+03  0.12508872717E+03 0.  0.
          5    1    3    3  502    0  0.31338275558E+02  0.38454575946E+02  0.28387833463E+02  0.57307795411E+02  0.41800000000E+01 0.  1.
         -5    1    3    3    0  502 -0.17747460429E+02 -0.79219713457E+02  0.74443230460E+02  0.11022704892E+03  0.41800000000E+01 0.  1.
        -11    1    1    2    0    0  0.17453533236E+02  0.30296799021E+02  0.65485411472E+02  0.74235173395E+02  0.00000000000E+00 0.  1.
         11    1    1    2    0    0 -0.31044348365E+02  0.10468338489E+02 -0.19884985640E+02  0.38324278598E+02  0.00000000000E+00 0. -1.
</event>
<event>
 7    1  0.2648915E-009  0.1017772E+03  0.7561462E-02  0.1276602E+00
          2   -1    0    0  501    0  0.00000000000E+00  0.00000000000E+00  0.37934526881E+03  0.37934526881E+03  0.00000000000E+00 0.  1.
         -2   -1    0    0    0  501 -0.00000000000E+00 -0.00000000000E+00 -0.44049673582E+02  0.44049673582E+02  0.00000000000E+00 0. -1.
         25    2    1    2    0    0 -0.26975909440E+02  0.64033006749E+02  0.18401570846E+03  0.23310200708E+03  0.12508732590E+03 0.  0.
          5    1    3    3  502    0 -0.15746348309E+02  0.96185436300E+02  0.88897733716E+02  0.13198433658E+03  0.41800000000E+01 0.  1.
         -5    1    3    3    0  502 -0.11229561131E+02 -0.32152429551E+02  0.95117974744E+02  0.10111767051E+03  0.41800000000E+01 0.  1.
        -11    1    1    2    0    0  0.13981709193E+02 -0.13233315268E+02 -0.92920219067E+01  0.21376400447E+02  0.00000000000E+00 0. -1.
         11    1    1    2    0    0  0.12994200247E+02 -0.50799691481E+02  0.16057190867E+03  0.16891653486E+03  0.00000000000E+00 0.  1.
</event>
<event>
 7    1  0.2648915E-009  0.1258148E+03  0.7561462E-02  0.1233801E+00
          2   -1    0    0  501    0  0.00000000000E+00  0.00000000000E+00  0.20303649080E+03  0.20303649080E+03  0.00000000000E+00 0. -1.
         -2   -1    0    0    0  501 -0.00000000000E+00 -0.00000000000E+00 -0.10382528638E+03  0.10382528638E+03  0.00000000000E+00 0.  1.
         25    2    1    2    0    0 -0.36886243621E+02 -0.80034954000E+02  0.13025282174E+02  0.15356717316E+03  0.12508808843E+03 0.  0.
          5    1    3    3  502    0  0.75666669600E+01 -0.79933766050E+02  0.50781647051E+02  0.95094213709E+02  0.41800000000E+01 0.  1.
         -5    1    3    3    0  502 -0.44452910581E+02 -0.10118795009E+00 -0.37756364876E+02  0.58472959450E+02  0.41800000000E+01 0.  1.
        -11    1    1    2    0    0  0.83798047038E+01  0.94322537379E+02  0.68070795598E+02  0.11662159062E+03  0.00000000000E+00 0. -1.
         11    1    1    2    0    0  0.28506438918E+02 -0.14287583378E+02  0.18115126645E+02  0.36673013401E+02  0.00000000000E+00 0.  1.
</event>
<event>
 7    1  0.2648915E-009  0.1586556E+03  0.7561462E-02  0.1190223E+00
         -2   -1    0    0    0  501 -0.00000000000E+00  0.00000000000E+00  0.35679850493E+02  0.35679850493E+02  0.00000000000E+00 0.  1.
          2   -1    0    0  501    0  0.00000000000E+00 -0.00000000000E+00 -0.89335811273E+03  0.89335811273E+03  0.00000000000E+00 0. -1.
         25    2    1    2    0    0 -0.58630353750E+01  0.12542164127E+03 -0.28295126681E+03  0.33387731783E+03  0.12509068985E+03 0.  0.
          5    1    3    3  502    0 -0.55088769715E+02  0.10313485080E+03 -0.14949722108E+03  0.18983798753E+03  0.41800000000E+01 0. -1.
         -5    1    3    3    0  502  0.49225734340E+02  0.22286790467E+02 -0.13345404573E+03  0.14403933030E+03  0.41800000000E+01 0. -1.
        -11    1    1    2    0    0  0.15279897138E+02  0.44393185262E+01 -0.21087830785E+02  0.26417407381E+02  0.00000000000E+00 0.  1.
         11    1    1    2    0    0 -0.94168617628E+01 -0.12986095979E+03 -0.55363916464E+03  0.56874323802E+03  0.00000000000E+00 0. -1.
</event>
<event>
 7    1  0.2648915E-009  0.1284876E+03  0.7561462E-02  0.1229717E+00
          1   -1    0    0  501    0  0.00000000000E+00  0.00000000000E+00  0.93580598139E+02  0.93580598139E+02  0.00000000000E+00 0. -1.
         -1   -1    0    0    0  501 -0.00000000000E+00 -0.00000000000E+00 -0.19856929008E+03  0.19856929008E+03  0.00000000000E+00 0.  1.
         25    2    1    2    0    0 -0.73593450721E+02  0.36036524168E+02 -0.54133757373E+02  0.15904766869E+03  0.12510423720E+03 0.  0.
          5    1    3    3  502    0 -0.22058013888E+02 -0.43957936535E+02 -0.38333890856E+02  0.62496525898E+02  0.41800000000E+01 0.  1.
         -5    1    3    3    0  502 -0.51535436833E+02  0.79994460704E+02 -0.15799866516E+02  0.96551142794E+02  0.41800000000E+01 0.  1.
        -11    1    1    2    0    0  0.23076442840E+02  0.24409043420E+02 -0.42074518224E+02  0.53838542872E+02  0.00000000000E+00 0.  1.
         11    1    1    2    0    0  0.50517007881E+02 -0.60445567588E+02 -0.87804163490E+01  0.79263676659E+02  0.00000000000E+00 0. -1.
</event>
<event>
 7    1  0.2648915E-009  0.1554195E+03  0.7561462E-02  0.1193967E+00
          2   -1    0    0  501    0  0.00000000000E+00  0.00000000000E+00  0.20163755942E+03  0.20163755942E+03  0.00000000000E+00 0. -1.
         -2   -1    0    0    0  501 -0.00000000000E+00 -0.00000000000E+00 -0.14139873117E+03  0.14139873117E+03  0.00000000000E+00 0.  1.
         25    2    1    2    0    0 -0.11643995253E+03 -0.63530583573E+02  0.27176924486E+00  0.18232243364E+03  0.12508796247E+03 0.  0.
          5    1    3    3  502    0 -0.48962045664E+02 -0.92089097217E+02  0.20104345867E+02  0.10629835777E+03  0.41800000000E+01 0. -1.
         -5    1    3    3    0  502 -0.67477906865E+02  0.28558513643E+02 -0.19832576622E+02  0.76024075870E+02  0.41800000000E+01 0. -1.
        -11    1    1    2    0    0  0.33375182929E+02  0.12856334791E+02 -0.14083899183E+02  0.38438839680E+02  0.00000000000E+00 0.  1.
         11    1    1    2    0    0  0.83064769600E+02  0.50674248783E+02  0.74050958192E+02  0.12227501727E+03  0.00000000000E+00 0. -1.
</event>
<event>
 7    1  0.2648915E-009  0.1310102E+03  0.7561462E-02  0.1225964E+00
         -2   -1    0    0    0  501 -0.00000000000E+00  0.00000000000E+00  0.10363709698E+03  0.10363709698E+03  0.00000000000E+00 0.  1.
          2   -1    0    0  501    0  0.00000000000E+00 -0.00000000000E+00 -0.26265792046E+03  0.26265792046E+03  0.00000000000E+00 0. -1.
         25    2    1    2    0    0 -0.87993791387E+02 -0.61477409321E+02 -0.14512940274E+03  0.21962032749E+03  0.12509262779E+03 0.  0.
          5    1    3    3  502    0  0.20960492797E+01 -0.40494173721E+02  0.71627246736E+01  0.41387782650E+02  0.41800000000E+01 0. -1.
         -5    1    3    3    0  502 -0.90089840666E+02 -0.20983235600E+02 -0.15229212742E+03  0.17823254484E+03  0.41800000000E+01 0. -1.
        -11    1    1    2    0    0  0.51420448083E+02  0.73905859505E+02  0.23356020521E+02  0.93014204532E+02  0.00000000000E+00 0. -1.
         11    1    1    2    0    0  0.36573343303E+02 -0.12428450184E+02 -0.37247441256E+02  0.53660485410E+02  0.00000000000E+00 0.  1.
</event>
<event>
 7    1  0.2648915E-009  0.9987926E+02  0.7561462E-02  0.1280550E+00
         -2   -1    0    0    0  501 -0.00000000000E+00  0.00000000000E+00  0.30767267608E+02  0.30767267608E+02  0.00000000000E+00 0.  1.
          2   -1    0    0  501    0  0.00000000000E+00 -0.00000000000E+00 -0.47348036221E+03  0.47348036221E+03  0.00000000000E+00 0. -1.
         25    2    1    2    0    0  0.22376275463E+02  0.33325620481E+02 -0.17926202511E+03  0.22224720543E+03  0.12509057515E+03 0.  0.
          5    1    3    3  502    0  0.39790585316E+02 -0.21650476741E+02 -0.14676094041E+02  0.47800564424E+02  0.41800000000E+01 0.  1.
         -5    1    3    3    0  502 -0.17414309853E+02  0.54976097222E+02 -0.16458593107E+03  0.17444664101E+03  0.41800000000E+01 0.  1.
        -11    1    1    2    0    0 -0.34920321664E+00 -0.61042499327E+02 -0.20263398683E+03  0.21162901806E+03  0.00000000000E+00 0.  1.
         11    1    1    2    0    0 -0.22027072246E+02  0.27716878845E+02 -0.60817082662E+02  0.70371406325E+02  0.00000000000E+00 0. -1.
</event>
<event>
 7    1  0.2648915E-009  0.7537589E+02  0.7561462E-02  0.1342711E+00
         -3   -1    0    0    0  501 -0.00000000000E+00  0.00000000000E+00  0.58810512476E+02  0.58810512476E+02  0.00000000000E+00 0.  1.
          3   -1    0    0  501    0  0.00000000000E+00 -0.00000000000E+00 -0.36819906500E+03  0.36819906500E+03  0.00000000000E+00 0. -1.
         25    2    1    2    0    0 -0.38490919438E+02  0.53180561622E+02 -0.26023020465E+03  0.29610349486E+03  0.12509115574E+03 0.  0.
          5    1    3    3  502    0  0.17864077296E+01  0.31902023680E+02 -0.24613743963E+03  0.24823787373E+03  0.41800000000E+01 0. -1.
         -5    1    3    3    0  502 -0.40277327168E+02  0.21278537942E+02 -0.14092765023E+02  0.47865621136E+02  0.41800000000E+01 0. -1.
        -11    1    1    2    0    0 -0.54190677656E+01 -0.89198619816E+01  0.29061540045E+02  0.30878849445E+02  0.00000000000E+00 0.  1.
         11    1    1    2    0    0  0.43909987204E+02 -0.44260699640E+02 -0.78219887917E+02  0.10002723316E+03  0.00000000000E+00 0. -1.
</event>
<event>
 7    1  0.2648915E-009  0.1226904E+03  0.7561462E-02  0.1238724E+00
          3   -1    0    0  501    0  0.00000000000E+00  0.00000000000E+00  0.20246347809E+03  0.20246347809E+03  0.00000000000E+00 0. -1.
         -3   -1    0    0    0  501 -0.00000000000E+00 -0.00000000000E+00 -0.12881162242E+03  0.12881162242E+03  0.00000000000E+00 0.  1.
         25    2    1    2    0    0  0.32306526147E+02 -0.52110458077E+02  0.14486671719E+03  0.20097943239E+03  0.12508858869E+03 0.  0.
          5    1    3    3  502    0  0.74155489071E+02 -0.36217085101E+01  0.88137757816E+02  0.11531647794E+03  0.41800000000E+01 0. -1.
         -5    1    3    3    0  502 -0.41848962924E+02 -0.48488749567E+02  0.56728959377E+02  0.85662954446E+02  0.41800000000E+01 0. -1.
        -11    1    1    2    0    0  0.27098926530E+02  0.36409184683E+02 -0.43579148416E+02  0.62921560097E+02  0.00000000000E+00 0. -1.
         11    1    1    2    0    0 -0.59405452677E+02  0.15701273394E+02 -0.27635713106E+02  0.67374108030E+02  0.00000000000E+00 0.  1.
</event>
<event>
 7    1  0.2648915E-009  0.2079272E+03  0.7561462E-02  0.1143218E+00
          2   -1    0    0  501    0  0.00000000000E+00  0.00000000000E+00  0.94572863549E+03  0.94572863549E+03  0.00000000000E+00 0. -1.
         -2   -1    0    0    0  501 -0.00000000000E+00 -0.00000000000E+00 -0.59630435932E+02  0.59630435932E+02  0.00000000000E+00 0.  1.
         25    2    1    2    0    0  0.13395378309E+03 -0.15334234721E+03  0.33876101577E+03  0.41456450772E+03  0.12508882365E+03 0.  0.
          5    1    3    3  502    0  0.90102639067E+02 -0.82512079295E+02  0.88913398310E+02  0.15116148185E+03  0.41800000000E+01 0.  1.
         -5    1    3    3    0  502  0.43851144026E+02 -0.70830267910E+02  0.24984761746E+03  0.26340302586E+03  0.41800000000E+01 0.  1.
        -11    1    1    2    0    0 -0.97951804444E+02  0.14189323225E+03  0.35346299536E+03  0.39327386697E+03  0.00000000000E+00 0.  1.
         11    1    1    2    0    0 -0.36001978650E+02  0.11449114953E+02  0.19387418843E+03  0.19752069674E+03  0.00000000000E+00 0. -1.
</event>
<event>
 7    1  0.2648915E-009  0.1777681E+03  0.7561462E-02  0.1169981E+00
         -2   -1    0    0    0  501 -0.00000000000E+00  0.00000000000E+00  0.21880048818E+03  0.21880048818E+03  0.00000000000E+00 0.  1.
          2   -1    0    0  501    0  0.00000000000E+00 -0.00000000000E+00 -0.19043272087E+03  0.19043272087E+03  0.00000000000E+00 0. -1.
         25    2    1    2    0    0  0.12291955116E+03 -0.11734638542E+03  0.28354718296E+02  0.21291008946E+03  0.12508927178E+03 0.  0.
          5    1    3    3  502    0  0.65816572888E+02 -0.70711180231E+02  0.77744489557E+02  0.12407082789E+03  0.41800000000E+01 0. -1.
         -5    1    3    3    0  502  0.57102978274E+02 -0.46635205192E+02 -0.49389771261E+02  0.88839261570E+02  0.41800000000E+01 0. -1.
        -11    1    1    2    0    0 -0.11744603760E+03  0.68735919391E+02 -0.29430831234E+02  0.13922777090E+03  0.00000000000E+00 0. -1.
         11    1    1    2    0    0 -0.54735135647E+01  0.48610466031E+02  0.29443880248E+02  0.57095348695E+02  0.00000000000E+00 0.  1.
</event>
<event>
 7    1  0.2648915E-009  0.1147654E+03  0.7561462E-02  0.1251991E+00
          2   -1    0    0  501    0  0.00000000000E+00  0.00000000000E+00  0.17949099092E+02  0.17949099092E+02  0.00000000000E+00 0. -1.
         -2   -1    0    0    0  501 -0.00000000000E+00 -0.00000000000E+00 -0.12501856090E+04  0.12501856090E+04  0.00000000000E+00 0.  1.
         25    2    1    2    0    0  0.41155815072E+02 -0.69526939870E+02 -0.94428105629E+03  0.95595062068E+03  0.12508828654E+03 0.  0.
          5    1    3    3  502    0 -0.27946554921E+02  0.14622344221E+02 -0.10765319214E+03  0.11225642548E+03  0.41800000000E+01 0. -1.
         -5    1    3    3    0  502  0.69102369992E+02 -0.84149284091E+02 -0.83662786414E+03  0.84369419520E+03  0.41800000000E+01 0. -1.
        -11    1    1    2    0    0 -0.44352604066E+02  0.42155547700E+02 -0.27501402792E+03  0.28173916881E+03  0.00000000000E+00 0.  1.
         11    1    1    2    0    0  0.31967889947E+01  0.27371392170E+02 -0.12941425688E+02  0.30444918591E+02  0.00000000000E+00 0. -1.
</event>
<event>
 7    1  0.2648915E-009  0.3939459E+03  0.7561462E-02  0.1045896E+00
         -2   -1    0    0    0  501 -0.00000000000E+00  0.00000000000E+00  0.85878576280E+02  0.85878576280E+02  0.00000000000E+00 0.  1.
          2   -1    0    0  501    0  0.00000000000E+00 -0.00000000000E+00 -0.18182598666E+04  0.18182598666E+04  0.00000000000E+00 0. -1.
         25    2    1    2    0    0 -0.37895338606E+03  0.14438205884E+02 -0.82576388645E+03  0.91724954128E+03  0.12508634702E+03 0.  0.
          5    1    3    3  502    0 -0.38461413308E+03  0.24902365702E+02 -0.78403564588E+03  0.87365755625E+03  0.41800000000E+01 0. -1.
         -5    1    3    3    0  502  0.56607470188E+01 -0.10464159818E+02 -0.41728240575E+02  0.43591985032E+02  0.41800000000E+01 0. -1.
        -11    1    1    2    0    0  0.85516034368E+02  0.34752504893E+02 -0.20993487338E+03  0.22933246563E+03  0.00000000000E+00 0.  1.
         11    1    1    2    0    0  0.29343735169E+03 -0.49190710777E+02 -0.69668253045E+03  0.75755643594E+03  0.00000000000E+00 0. -1.
</event>
<event>
 7    1  0.2648915E-009  0.1108387E+03  0.7561462E-02  0.1259025E+00
         -3   -1    0    0    0  501 -0.00000000000E+00  0.00000000000E+00  0.79073403942E+03  0.79073403942E+03  0.00000000000E+00 0.  1.
          3   -1    0    0  501    0  0.00000000000E+00 -0.00000000000E+00 -0.16297263000E+02  0.16297263000E+02  0.00000000000E+00 0. -1.
         25    2    1    2    0    0  0.27015586908E+02 -0.12526834983E+02  0.49285147251E+03  0.50934938947E+03  0.12508982001E+03 0.  0.
          5    1    3    3  502    0  0.49670059469E+02 -0.56933979480E+02  0.24187436204E+03  0.25343494676E+03  0.41800000000E+01 0. -1.
         -5    1    3    3    0  502 -0.22654472561E+02  0.44407144497E+02  0.25097711047E+03  0.25591444271E+03  0.41800000000E+01 0. -1.
        -11    1    1    2    0    0  0.16211585476E+02 -0.30781677200E+02  0.86831945575E+02  0.93542043634E+02  0.00000000000E+00 0.  1.
         11    1    1    2    0    0 -0.43227172384E+02  0.43308512183E+02  0.19475335834E+03  0.20413986932E+03  0.00000000000E+00 0. -1.
</event>
<event>
 7    1  0.2648915E-009  0.1346218E+03  0.7561462E-02  0.1220755E+00
         -1   -1    0    0    0  501 -0.00000000000E+00  0.00000000000E+00  0.20778796450E+02  0.20778796450E+02  0.00000000000E+00 0.  1.
          1   -1    0    0  501    0  0.00000000000E+00 -0.00000000000E+00 -0.13730626337E+04  0.13730626337E+04  0.00000000000E+00 0. -1.
         25    2    1    2    0    0  0.95603968525E+02 -0.63721770007E+02 -0.96074608997E+03  0.97564412480E+03  0.12509127104E+03 0.  0.
          5    1    3    3  502    0  0.14838027523E+01 -0.22450447146E+02 -0.23610463246E+02  0.32880854952E+02  0.41800000000E+01 0. -1.
         -5    1    3    3    0  502  0.94120165773E+02 -0.41271322860E+02 -0.93713562672E+03  0.94276326984E+03  0.41800000000E+01 0. -1.
        -11    1    1    2    0    0  0.15788083193E+01 -0.17058043831E+02 -0.23597027312E+02  0.29159718671E+02  0.00000000000E+00 0.  1.
         11    1    1    2    0    0 -0.97182776844E+02  0.80779813837E+02 -0.36794071996E+03  0.38903758667E+03  0.00000000000E+00 0. -1.
</event>
<event>
 7    1  0.2648915E-009  0.1757669E+03  0.7561462E-02  0.1171964E+00
          1   -1    0    0  501    0  0.00000000000E+00  0.00000000000E+00  0.17775881770E+04  0.17775881770E+04  0.00000000000E+00 0. -1.
         -1   -1    0    0    0  501 -0.00000000000E+00 -0.00000000000E+00 -0.18007149153E+02  0.18007149153E+02  0.00000000000E+00 0.  1.
         25    2    1    2    0    0 -0.98093311025E+02  0.96414389795E+02  0.10856213305E+04  0.11014258716E+04  0.12508894862E+03 0.  0.
          5    1    3    3  502    0  0.30169788777E+02  0.20509097173E+02  0.22919638842E+03  0.23211914201E+03  0.41800000000E+01 0. -1.
         -5    1    3    3    0  502 -0.12826309980E+03  0.75905292621E+02  0.85642494211E+03  0.86930672958E+03  0.41800000000E+01 0. -1.
        -11    1    1    2    0    0  0.97939116695E+02 -0.34555618740E+02  0.44948985536E+03  0.46133208368E+03  0.00000000000E+00 0.  1.
         11    1    1    2    0    0  0.15419433050E+00 -0.61858771054E+02  0.22446984199E+03  0.23283737092E+03  0.00000000000E+00 0. -1.
</event>
<event>
 7    1  0.2648915E-009  0.2077725E+03  0.7561462E-02  0.1143342E+00
          2   -1    0    0  501    0  0.00000000000E+00  0.00000000000E+00  0.26734027485E+04  0.26734027485E+04  0.00000000000E+00 0. -1.
         -2   -1    0    0    0  501 -0.00000000000E+00 -0.00000000000E+00 -0.23098069749E+02  0.23098069749E+02  0.00000000000E+00 0.  1.
         25    2    1    2    0    0  0.12020478462E+03 -0.15150044733E+03  0.19660971392E+04  0.19795418757E+04  0.12508597502E+03 0.  0.
          5    1    3    3  502    0 -0.10842161093E+02 -0.53303511633E+02  0.26384696265E+03  0.26942811455E+03  0.41800000000E+01 0.  1.
         -5    1    3    3    0  502  0.13104694572E+03 -0.98196935693E+02  0.17022501765E+04  0.17101137612E+04  0.41800000000E+01 0.  1.
        -11    1    1    2    0    0 -0.64605631804E+01  0.30239159612E+02  0.34558944545E+02  0.46373120433E+02  0.00000000000E+00 0.  1.
         11    1    1    2    0    0 -0.11374422144E+03  0.12126128771E+03  0.64964859499E+03  0.67058582208E+03  0.00000000000E+00 0. -1.
</event>
<event>
 7    1  0.2648915E-009  0.1184802E+03  0.7561462E-02  0.1245625E+00
          2   -1    0    0  501    0  0.00000000000E+00  0.00000000000E+00  0.12528491991E+04  0.12528491991E+04  0.00000000000E+00 0. -1.
         -2   -1    0    0    0  501 -0.00000000000E+00 -0.00000000000E+00 -0.18544308394E+02  0.18544308394E+02  0.00000000000E+00 0.  1.
         25    2    1    2    0    0 -0.61649723041E+02  0.70173562538E+02  0.87881058307E+03  0.89256970764E+03  0.12509046666E+03 0.  0.
          5    1    3    3  502    0 -0.14390011635E+02  0.60946517955E+02  0.15609765542E+03  0.16824238739E+03  0.41800000000E+01 0.  1.
         -5    1    3    3    0  502 -0.47259711406E+02  0.92270445835E+01  0.72271292765E+03  0.72432732025E+03  0.41800000000E+01 0.  1.
        -11    1    1    2    0    0  0.57279947270E+02 -0.89385098843E+02  0.25165194787E+03  0.27312889104E+03  0.00000000000E+00 0.  1.
         11    1    1    2    0    0  0.43697757713E+01  0.19211536305E+02  0.10384235980E+03  0.10569490885E+03  0.00000000000E+00 0. -1.
</event>
<event>
 7    1  0.2648915E-009  0.9519914E+02  0.7561462E-02  0.1290728E+00
          2   -1    0    0  501    0  0.00000000000E+00  0.00000000000E+00  0.68910688068E+02  0.68910688068E+02  0.00000000000E+00 0. -1.
         -2   -1    0    0    0  501 -0.00000000000E+00 -0.00000000000E+00 -0.20802390300E+03  0.20802390300E+03  0.00000000000E+00 0.  1.
         25    2    1    2    0    0  0.21624006269E+02  0.78018135087E+01 -0.13267198122E+03  0.18379042702E+03  0.12509436647E+03 0.  0.
          5    1    3    3  502    0 -0.36861702211E+02  0.43475187432E+02 -0.73969619542E+02  0.93476489169E+02  0.41800000000E+01 0.  1.
         -5    1    3    3    0  502  0.58485708480E+02 -0.35673373923E+02 -0.58702361676E+02  0.90313937849E+02  0.41800000000E+01 0.  1.
        -11    1    1    2    0    0  0.20819042802E+02 -0.76171417282E+01 -0.35395827991E+02  0.41765033587E+02  0.00000000000E+00 0.  1.
         11    1    1    2    0    0 -0.42443049071E+02 -0.18467178049E+00  0.28954594273E+02  0.51379130468E+02  0.00000000000E+00 0. -1.
</event>
<event>
 7    1  0.2648915E-009  0.6280879E+02  0.7561462E-02  0.1386409E+00
          1   -1    0    0  501    0  0.00000000000E+00  0.00000000000E+00  0.57438436484E+02  0.57438436484E+02  0.00000000000E+00 0.  1.
         -1   -1    0    0    0  501 -0.00000000000E+00 -0.00000000000E+00 -0.23436377257E+03  0.23436377257E+03  0.00000000000E+00 0. -1.
         25    2    1    2    0    0 -0.28669379139E+02 -0.19027972847E+02 -0.12955309691E+03  0.18334654705E+03  0.12509178368E+03 0.  0.
          5    1    3    3  502    0 -0.20873950240E+02 -0.87055734072E+01 -0.15382083015E+03  0.15553079758E+03  0.41800000000E+01 0. -1.
         -5    1    3    3    0  502 -0.77954288992E+01 -0.10322399439E+02  0.24267733241E+02  0.27815749470E+02  0.41800000000E+01 0. -1.
        -11    1    1    2    0    0 -0.28430709867E+02 -0.11759022578E+01  0.43775239046E+01  0.28789767717E+02  0.00000000000E+00 0.  1.
         11    1    1    2    0    0  0.57100089006E+02  0.20203875104E+02 -0.51749763074E+02  0.79665894283E+02  0.00000000000E+00 0. -1.
</event>
<event>
 7    1  0.2648915E-009  0.1463044E+03  0.7561462E-02  0.1205089E+00
         -2   -1    0    0    0  501 -0.00000000000E+00  0.00000000000E+00  0.77399302100E+02  0.77399302100E+02  0.00000000000E+00 0. -1.
          2   -1    0    0  501    0  0.00000000000E+00 -0.00000000000E+00 -0.34863847184E+03  0.34863847184E+03  0.00000000000E+00 0.  1.
         25    2    1    2    0    0  0.85196197067E+02 -0.71362035598E+02 -0.75751362881E+02  0.18366808458E+03  0.12507903179E+03 0.  0.
          5    1    3    3  502    0  0.82736854884E+02  0.10130435177E+02 -0.53201946899E+02  0.98974402887E+02  0.41800000000E+01 0. -1.
         -5    1    3    3    0  502  0.24593421838E+01 -0.81492470775E+02 -0.22549415982E+02  0.84693681690E+02  0.41800000000E+01 0. -1.
        -11    1    1    2    0    0 -0.40338733532E+02 -0.32338487281E+01 -0.12172146709E+03  0.12827231483E+03  0.00000000000E+00 0.  1.
         11    1    1    2    0    0 -0.44857463535E+02  0.74595884326E+02 -0.73766339769E+02  0.11409737454E+03  0.00000000000E+00 0. -1.
</event>
<event>
 7    1  0.2648915E-009  0.1168475E+03  0.7561462E-02  0.1248390E+00
         -2   -1    0    0    0  501 -0.00000000000E+00  0.00000000000E+00  0.22347876448E+03  0.22347876448E+03  0.00000000000E+00 0. -1.
          2   -1    0    0  501    0  0.00000000000E+00 -0.00000000000E+00 -0.88275330595E+02  0.88275330595E+02  0.00000000000E+00 0.  1.
         25    2    1    2    0    0  0.45289552460E+02 -0.65655724008E+02  0.30279992945E+02  0.15141087977E+03  0.12508620580E+03 0.  0.
          5    1    3    3  502    0  0.30637636199E+02  0.12168889549E+02  0.58465354579E+02  0.67248916057E+02  0.41800000000E+01 0.  1.
         -5    1    3    3    0  502  0.14651916261E+02 -0.77824613556E+02 -0.28185361635E+02  0.84161963711E+02  0.41800000000E+01 0.  1.
        -11    1    1    2    0    0 -0.14317426743E+02 -0.23089662609E+02  0.21068768777E+02  0.34380434054E+02  0.00000000000E+00 0.  1.
         11    1    1    2    0    0 -0.30972125717E+02  0.88745386617E+02  0.83854672162E+02  0.12596278125E+03  0.00000000000E+00 0. -1.
</event>
<event>
 7    1  0.2648915E-009  0.1556916E+03  0.7561462E-02  0.1193649E+00
         -3   -1    0    0    0  501 -0.00000000000E+00  0.00000000000E+00  0.38316579831E+03  0.38316579831E+03  0.00000000000E+00 0.  1.
          3   -1    0    0  501    0  0.00000000000E+00 -0.00000000000E+00 -0.90445508877E+02  0.90445508877E+02  0.00000000000E+00 0. -1.
         25    2    1    2    0    0  0.89783202302E+02  0.11135985510E+03  0.94380941664E+02  0.21216508790E+03  0.12507686289E+03 0.  0.
          5    1    3    3  502    0  0.61702544751E+02  0.30994600352E+02  0.10555529719E+03  0.12620325846E+03  0.41800000000E+01 0.  1.
         -5    1    3    3    0  502  0.28080657551E+02  0.80365254752E+02 -0.11174355530E+02  0.85961829444E+02  0.41800000000E+01 0.  1.
        -11    1    1    2    0    0 -0.93296569581E+02 -0.73020691278E+02  0.97260907185E+02  0.15328390430E+03  0.00000000000E+00 0. -1.
         11    1    1    2    0    0  0.35133672785E+01 -0.38339163826E+02  0.10107844058E+03  0.10816231499E+03  0.00000000000E+00 0.  1.
</event>
<event>
 7    1  0.2648915E-009  0.7568570E+02  0.7561462E-02  0.1341761E+00
         -2   -1    0    0    0  501 -0.00000000000E+00  0.00000000000E+00  0.15377550015E+02  0.15377550015E+02  0.00000000000E+00 0. -1.
          2   -1    0    0  501    0  0.00000000000E+00 -0.00000000000E+00 -0.80895710540E+03  0.80895710540E+03  0.00000000000E+00 0.  1.
         25    2    1    2    0    0  0.10082436147E+02  0.12666935837E+00 -0.52382549698E+03  0.53864781026E+03  0.12508653266E+03 0.  0.
          5    1    3    3  502    0 -0.23288283144E+02  0.56127898403E+00 -0.13562897712E+02  0.27277898750E+02  0.41800000000E+01 0. -1.
         -5    1    3    3    0  502  0.33370719291E+02 -0.43460962566E+00 -0.51026259926E+03  0.51136991151E+03  0.41800000000E+01 0. -1.
        -11    1    1    2    0    0 -0.25061052768E+02 -0.42382729978E+02 -0.14006040210E+03  0.14846302032E+03  0.00000000000E+00 0. -1.
         11    1    1    2    0    0  0.14978616620E+02  0.42256060620E+02 -0.12969365631E+03  0.13722382483E+03  0.00000000000E+00 0.  1.
</event>
<event>
 7    1  0.2648915E-009  0.3013901E+03  0.7561462E-02  0.1084548E+00
         -2   -1    0    0    0  501 -0.00000000000E+00  0.00000000000E+00  0.98193182355E+02  0.98193182355E+02  0.00000000000E+00 0.  1.
          2   -1    0    0  501    0  0.00000000000E+00 -0.00000000000E+00 -0.11258004136E+04  0.11258004136E+04  0.00000000000E+00 0. -1.
         25    2    1    2    0    0  0.26796027457E+03 -0.11793143540E+03 -0.31336485773E+03  0.44671517930E+03  0.12508551136E+03 0.  0.
          5    1    3    3  502    0  0.10374399698E+03 -0.69526366028E+02 -0.21648103836E+03  0.24995648591E+03  0.41800000000E+01 0.  1.
         -5    1    3    3    0  502  0.16421627759E+03 -0.48405069376E+02 -0.96883819379E+02  0.19675869339E+03  0.41800000000E+01 0.  1.
        -11    1    1    2    0    0 -0.12596724396E+03  0.66072989151E+01 -0.30117441654E+03  0.32652324898E+03  0.00000000000E+00 0. -1.
         11    1    1    2    0    0 -0.14199303061E+03  0.11132413649E+03 -0.41306795702E+03  0.45075516772E+03  0.00000000000E+00 0.  1.
</event>
<event>
 7    1  0.2648915E-009  0.1188911E+03  0.7561462E-02  0.1244938E+00
         -3   -1    0    0    0  501 -0.00000000000E+00  0.00000000000E+00  0.11385803014E+03  0.11385803014E+03  0.00000000000E+00 0.  1.
          3   -1    0    0  501    0  0.00000000000E+00 -0.00000000000E+00 -0.17534425793E+03  0.17534425793E+03  0.00000000000E+00 0. -1.
         25    2    1    2    0    0 -0.18947910540E+02 -0.74058151237E+02  0.16371952687E+02  0.14750841340E+03  0.12508820132E+03 0.  0.
          5    1    3    3  502    0 -0.49934334113E+02 -0.60108569140E+00  0.40144588857E+02  0.64209496508E+02  0.41800000000E+01 0. -1.
         -5    1    3    3    0  502  0.30986423573E+02 -0.73457065545E+02 -0.23772636170E+02  0.83298916889E+02  0.41800000000E+01 0. -1.
        -11    1    1    2    0    0 -0.29558874444E+02  0.32811391321E+02 -0.42478940446E+01  0.44366192789E+02  0.00000000000E+00 0.  1.
         11    1    1    2    0    0  0.48506784984E+02  0.41246759916E+02 -0.73610286425E+02  0.97327681882E+02  0.00000000000E+00 0. -1.
</event>
<event>
 7    1  0.2648915E-009  0.9076964E+02  0.7561462E-02  0.1300999E+00
         -2   -1    0    0    0  501 -0.00000000000E+00  0.00000000000E+00  0.56696179911E+02  0.56696179911E+02  0.00000000000E+00 0.  1.
          2   -1    0    0  501    0  0.00000000000E+00 -0.00000000000E+00 -0.36886318698E+03  0.36886318698E+03  0.00000000000E+00 0. -1.
         25    2    1    2    0    0  0.12815795133E+02  0.10511933595E+02 -0.30868152789E+03  0.33347675887E+03  0.12509083777E+03 0.  0.
          5    1    3    3  502    0  0.30373346267E+02  0.58187298409E+02 -0.23391240206E+03  0.24298309837E+03  0.41800000000E+01 0.  1.
         -5    1    3    3    0  502 -0.17557551134E+02 -0.47675364814E+02 -0.74769125833E+02  0.90493660495E+02  0.41800000000E+01 0.  1.
        -11    1    1    2    0    0 -0.71012992135E+01  0.26451870056E+02  0.30889338250E+02  0.41282939546E+02  0.00000000000E+00 0.  1.
         11    1    1    2    0    0 -0.57144959192E+01 -0.36963803651E+02 -0.34374817430E+02  0.50799668477E+02  0.00000000000E+00 0. -1.
</event>
<event>
 7    1  0.2648915E-009  0.1085630E+03  0.7561462E-02  0.1263254E+00
         -1   -1    0    0    0  501 -0.00000000000E+00  0.00000000000E+00  0.26960737546E+02  0.26960737546E+02  0.00000000000E+00 0.  1.
          1   -1    0    0  501    0  0.00000000000E+00 -0.00000000000E+00 -0.45050103703E+03  0.45050103703E+03  0.00000000000E+00 0. -1.
         25    2    1    2    0    0  0.11299405459E+02 -0.17349140061E+02 -0.20845840607E+03  0.24398897038E+03  0.12508813447E+03 0.  0.
          5    1    3    3  502    0  0.31351888444E+02  0.48443949356E+02 -0.92644977131E+02  0.10922601030E+03  0.41800000000E+01 0. -1.
         -5    1    3    3    0  502 -0.20052482985E+02 -0.65793089417E+02 -0.11581342894E+03  0.13476296008E+03  0.41800000000E+01 0. -1.
        -11    1    1    2    0    0 -0.41041857995E+02 -0.17439254812E+02 -0.94383794445E+02  0.10438803748E+03  0.00000000000E+00 0.  1.
         11    1    1    2    0    0  0.29742452536E+02  0.34788394873E+02 -0.12069809897E+03  0.12908476671E+03  0.00000000000E+00 0. -1.
</event>
<event>
 7    1  0.2648915E-009  0.1020540E+03  0.7561462E-02  0.1276035E+00
         -3   -1    0    0    0  501 -0.00000000000E+00  0.00000000000E+00  0.29619138468E+02  0.29619138468E+02  0.00000000000E+00 0.  1.
          3   -1    0    0  501    0  0.00000000000E+00 -0.00000000000E+00 -0.54502305930E+03  0.54502305930E+03  0.00000000000E+00 0. -1.
         25    2    1    2    0    0  0.31091767287E+02  0.49334086794E+02 -0.35229556550E+03  0.37836223841E+03  0.12508104520E+03 0.  0.
          5    1    3    3  502    0 -0.29373698798E+02  0.19953777101E+02 -0.26841395636E+03  0.27078495484E+03  0.41800000000E+01 0.  1.
         -5    1    3    3    0  502  0.60465466085E+02  0.29380309693E+02 -0.83881609146E+02  0.10757728357E+03  0.41800000000E+01 0.  1.
        -11    1    1    2    0    0 -0.18487484210E+02 -0.72394115930E+02 -0.81602111055E+02  0.11064176256E+03  0.00000000000E+00 0.  1.
         11    1    1    2    0    0 -0.12604283077E+02  0.23060029136E+02 -0.81506244270E+02  0.85638196797E+02  0.00000000000E+00 0. -1.
</event>
<event>
 7    1  0.2648915E-009  0.4967846E+03  0.7561462E-02  0.1014622E+00
          1   -1    0    0  501    0  0.00000000000E+00  0.00000000000E+00  0.45376228353E+03  0.45376228353E+03  0.00000000000E+00 0. -1.
         -1   -1    0    0    0  501 -0.00000000000E+00 -0.00000000000E+00 -0.69211960215E+03  0.69211960215E+03  0.00000000000E+00 0.  1.
         25    2    1    2    0    0  0.23501997507E+03  0.43658290014E+03  0.12251789361E+03  0.52583023086E+03  0.12509108704E+03 0.  0.
          5    1    3    3  502    0  0.22516205780E+03  0.40379489511E+03  0.14512514824E+03  0.48458956927E+03  0.41800000000E+01 0.  1.
         -5    1    3    3    0  502  0.98579172654E+01  0.32788005026E+02 -0.22607254632E+02  0.41240661591E+02  0.41800000000E+01 0.  1.
        -11    1    1    2    0    0 -0.18228324929E+03 -0.36302753085E+03 -0.33324139018E+03  0.52541982762E+03  0.00000000000E+00 0.  1.
         11    1    1    2    0    0 -0.52736725777E+02 -0.73555369288E+02 -0.27633822042E+02  0.94631827191E+02  0.00000000000E+00 0. -1.
</event>
<event>
 7    1  0.2648915E-009  0.1387309E+03  0.7561462E-02  0.1215047E+00
          2   -1    0    0  501    0  0.00000000000E+00  0.00000000000E+00  0.38913007030E+03  0.38913007030E+03  0.00000000000E+00 0.  1.
         -2   -1    0    0    0  501 -0.00000000000E+00 -0.00000000000E+00 -0.67499105711E+02  0.67499105711E+02  0.00000000000E+00 0. -1.
         25    2    1    2    0    0  0.34661605057E+02 -0.10662166552E+03  0.11864600346E+03  0.20565610598E+03  0.12509177977E+03 0.  0.
          5    1    3    3  502    0  0.39320764410E+02 -0.11763056915E+03  0.13604043101E+03  0.18414001353E+03  0.41800000000E+01 0. -1.
         -5    1    3    3    0  502 -0.46591593524E+01  0.11008903629E+02 -0.17394427545E+02  0.21516092457E+02  0.41800000000E+01 0. -1.
        -11    1    1    2    0    0 -0.21989005913E+02 -0.94527622754E+01  0.70117129914E+02  0.74089695660E+02  0.00000000000E+00 0.  1.
         11    1    1    2    0    0 -0.12672599145E+02  0.11607442780E+03  0.13286783121E+03  0.17688337437E+03  0.00000000000E+00 0. -1.
</event>
<event>
 7    1  0.2648915E-009  0.1065006E+03  0.7561462E-02  0.1267191E+00
         -1   -1    0    0    0  501 -0.00000000000E+00  0.00000000000E+00  0.16852375320E+02  0.16852375320E+02  0.00000000000E+00 0.  1.
          1   -1    0    0  501    0  0.00000000000E+00 -0.00000000000E+00 -0.72932696022E+03  0.72932696022E+03  0.00000000000E+00 0. -1.
         25    2    1    2    0    0  0.22352656374E+02  0.68220165380E+01 -0.36496730452E+03  0.38651620313E+03  0.12508981076E+03 0.  0.
          5    1    3    3  502    0 -0.51631708714E+02  0.70707606843E+01 -0.12917340679E+03  0.13935232478E+03  0.41800000000E+01 0. -1.
         -5    1    3    3    0  502  0.73984365089E+02 -0.24874414631E+00 -0.23579389773E+03  0.24716387834E+03  0.41800000000E+01 0. -1.
        -11    1    1    2    0    0  0.29739099791E+02 -0.15927709332E+02 -0.77472236772E+02  0.84498836982E+02  0.00000000000E+00 0.  1.
         11    1    1    2    0    0 -0.52091756165E+02  0.91056927944E+01 -0.27003504361E+03  0.27516429543E+03  0.00000000000E+00 0. -1.
</event>
<event>
 7    1  0.2648915E-009  0.3071626E+03  0.7561462E-02  0.1081714E+00
         -2   -1    0    0    0  501 -0.00000000000E+00  0.00000000000E+00  0.21592876724E+03  0.21592876724E+03  0.00000000000E+00 0.  1.
          2   -1    0    0  501    0  0.00000000000E+00 -0.00000000000E+00 -0.48532389162E+03  0.48532389162E+03  0.00000000000E+00 0. -1.
         25    2    1    2    0    0 -0.12228467089E+03  0.26419704448E+03 -0.39176423985E+02  0.31927431965E+03  0.12509068689E+03 0.  0.
          5    1    3    3  502    0  0.15603044196E+02 -0.17355786668E+01  0.36316583830E+01  0.16647178863E+02  0.41800000000E+01 0.  1.
         -5    1    3    3    0  502 -0.13788771508E+03  0.26593262315E+03 -0.42808082368E+02  0.30262714079E+03  0.41800000000E+01 0.  1.
        -11    1    1    2    0    0  0.50813764028E+02 -0.18484153049E+03 -0.10937443544E+03  0.22070613298E+03  0.00000000000E+00 0. -1.
         11    1    1    2    0    0  0.71470906861E+02 -0.79355513994E+02 -0.12084426495E+03  0.16127220623E+03  0.00000000000E+00 0.  1.
</event>
<event>
 7    1  0.2648915E-009  0.1353921E+03  0.7561462E-02  0.1219667E+00
          1   -1    0    0  501    0  0.00000000000E+00  0.00000000000E+00  0.40720856281E+02  0.40720856281E+02  0.00000000000E+00 0. -1.
         -1   -1    0    0    0  501 -0.00000000000E+00 -0.00000000000E+00 -0.60504714178E+03  0.60504714178E+03  0.00000000000E+00 0.  1.
         25    2    1    2    0    0 -0.91418150557E+02  0.48281327666E+02 -0.39687657558E+03  0.42877554446E+03  0.12509630862E+03 0.  0.
          5    1    3    3  502    0 -0.49191518482E+02 -0.40520665376E+02 -0.15656667574E+03  0.16909265556E+03  0.41800000000E+01 0. -1.
         -5    1    3    3    0  502 -0.42226632075E+02  0.88801993042E+02 -0.24030989984E+03  0.25968288890E+03  0.41800000000E+01 0. -1.
        -11    1    1    2    0    0  0.54431658891E+02 -0.46294907343E+02 -0.16507440116E+03  0.17987657394E+03  0.00000000000E+00 0.  1.
         11    1    1    2    0    0  0.36986491666E+02 -0.19864203230E+01 -0.23753087653E+01  0.37115879664E+02  0.00000000000E+00 0. -1.
</event>
<event>
 7    1  0.2648915E-009  0.7854754E+02  0.7561462E-02  0.1333225E+00
         -1   -1    0    0    0  501 -0.00000000000E+00  0.00000000000E+00  0.53005307733E+02  0.53005307733E+02  0.00000000000E+00 0. -1.
          1   -1    0    0  501    0  0.00000000000E+00 -0.00000000000E+00 -0.29231024506E+03  0.29231024506E+03  0.00000000000E+00 0.  1.
         25    2    1    2    0    0 -0.10028590332E+02 -0.33308026155E+02 -0.20415552603E+03  0.24194492802E+03  0.12509145517E+03 0.  0.
          5    1    3    3  502    0 -0.47450185792E+02 -0.25675326606E+02 -0.26632053445E+02  0.60311534541E+02  0.41800000000E+01 0.  1.
         -5    1    3    3    0  502  0.37421595459E+02 -0.76326995490E+01 -0.17752347258E+03  0.18163339348E+03  0.41800000000E+01 0.  1.
        -11    1    1    2    0    0  0.13593861426E+02  0.47770237024E+02 -0.57833554174E+02  0.76233251290E+02  0.00000000000E+00 0.  1.
         11    1    1    2    0    0 -0.35652710941E+01 -0.14462210870E+02  0.22684142878E+02  0.27137373479E+02  0.00000000000E+00 0. -1.
</event>
<event>
 7    1  0.2648915E-009  0.1313959E+03  0.7561462E-02  0.1225399E+00
          1   -1    0    0  501    0  0.00000000000E+00  0.00000000000E+00  0.58424518916E+02  0.58424518916E+02  0.00000000000E+00 0. -1.
         -1   -1    0    0    0  501 -0.00000000000E+00 -0.00000000000E+00 -0.60445474145E+03  0.60445474145E+03  0.00000000000E+00 0.  1.
         25    2    1    2    0    0 -0.21308876044E+02 -0.74861117095E+02 -0.51869194467E+03  0.53920904379E+03  0.12508718718E+03 0.  0.
          5    1    3    3  502    0  0.49002211626E+02 -0.18953132261E+02 -0.26123240123E+03  0.26649629983E+03  0.41800000000E+01 0.  1.
         -5    1    3    3    0  502 -0.70311087669E+02 -0.55907984834E+02 -0.25745954343E+03  0.27271274397E+03  0.41800000000E+01 0.  1.
        -11    1    1    2    0    0 -0.31726581241E+02  0.55062066846E+02 -0.19789717573E+02  0.66558546289E+02  0.00000000000E+00 0.  1.
         11    1    1    2    0    0  0.53035457285E+02  0.19799050249E+02 -0.75485602954E+01  0.57111670284E+02  0.00000000000E+00 0. -1.
</event>
<event>
 7    1  0.2648915E-009  0.1003035E+03  0.7561462E-02  0.1279659E+00
          1   -1    0    0  501    0  0.00000000000E+00  0.00000000000E+00  0.90747078235E+03  0.90747078235E+03  0.00000000000E+00 0. -1.
         -1   -1    0    0    0  501 -0.00000000000E+00 -0.00000000000E+00 -0.18220172680E+02  0.18220172680E+02  0.00000000000E+00 0.  1.
         25    2    1    2    0    0 -0.46047763020E+02 -0.12905859772E+02  0.66550462582E+03  0.67884549616E+03  0.12509133854E+03 0.  0.
          5    1    3    3  502    0 -0.59937039695E+02  0.44178199864E+02  0.34407487014E+03  0.35206412872E+03  0.41800000000E+01 0. -1.
         -5    1    3    3    0  502  0.13889276675E+02 -0.57084059636E+02  0.32142975568E+03  0.32678136744E+03  0.41800000000E+01 0. -1.
        -11    1    1    2    0    0  0.42786365370E+02 -0.10046208890E+02  0.21876195424E+03  0.22313312618E+03  0.00000000000E+00 0. -1.
         11    1    1    2    0    0  0.32613976500E+01  0.22952068662E+02  0.49840296121E+01  0.23712332692E+02  0.00000000000E+00 0.  1.
</event>
<event>
 7    1  0.2648915E-009  0.1044428E+03  0.7561462E-02  0.1271221E+00
         -2   -1    0    0    0  501 -0.00000000000E+00  0.00000000000E+00  0.92493933850E+02  0.92493933850E+02  0.00000000000E+00 0.  1.
          2   -1    0    0  501    0  0.00000000000E+00 -0.00000000000E+00 -0.15967626323E+03  0.15967626323E+03  0.00000000000E+00 0. -1.
         25    2    1    2    0    0 -0.13060927318E+02  0.53485485058E+02 -0.42984988896E+02  0.14327057677E+03  0.12508982359E+03 0.  0.
          5    1    3    3  502    0 -0.22436454010E+02 -0.35027196241E+02  0.49348006918E+01  0.42096598472E+02  0.41800000000E+01 0.  1.
         -5    1    3    3    0  502  0.93755266917E+01  0.88512681299E+02 -0.47919789588E+02  0.10117397830E+03  0.41800000000E+01 0.  1.
        -11    1    1    2    0    0  0.18642913842E+02  0.49363913770E+01  0.25517275070E+02  0.31985270412E+02  0.00000000000E+00 0.  1.
         11    1    1    2    0    0 -0.55819865245E+01 -0.58421876435E+02 -0.49714615552E+02  0.76914349891E+02  0.00000000000E+00 0. -1.
</event>
<event>
 7    1  0.2648915E-009  0.4469418E+03  0.7561462E-02  0.1028638E+00
         -2   -1    0    0    0  501 -0.00000000000E+00  0.00000000000E+00  0.98648195004E+03  0.98648195004E+03  0.00000000000E+00 0.  1.
          2   -1    0    0  501    0  0.00000000000E+00 -0.00000000000E+00 -0.22074813146E+03  0.22074813146E+03  0.00000000000E+00 0. -1.
         25    2    1    2    0    0 -0.27290371897E+03 -0.34368802411E+03  0.53488771952E+03  0.70310029647E+03  0.12508899499E+03 0.  0.
          5    1    3    3  502    0 -0.18915031834E+03 -0.15781050627E+03  0.34879424504E+03  0.42703266455E+03  0.41800000000E+01 0. -1.
         -5    1    3    3    0  502 -0.83753400630E+02 -0.18587751784E+03  0.18609347448E+03  0.27606763192E+03  0.41800000000E+01 0. -1.
        -11    1    1    2    0    0  0.23907382975E+03  0.25938819076E+03  0.15303171898E+03  0.38452208856E+03  0.00000000000E+00 0. -1.
         11    1    1    2    0    0  0.33829889214E+02  0.84299833346E+02  0.77814380088E+02  0.11960769647E+03  0.00000000000E+00 0.  1.
</event>
<event>
 7    1  0.2648915E-009  0.1116416E+03  0.7561462E-02  0.1257560E+00
         -2   -1    0    0    0  501 -0.00000000000E+00  0.00000000000E+00  0.94516571944E+01  0.94516571944E+01  0.00000000000E+00 0.  1.
          2   -1    0    0  501    0  0.00000000000E+00 -0.00000000000E+00 -0.15675421394E+04  0.15675421394E+04  0.00000000000E+00 0. -1.
         25    2    1    2    0    0 -0.15506947247E+02 -0.38265887855E+02 -0.11042314957E+04  0.11120591139E+04  0.12507411099E+03 0.  0.
          5    1    3    3  502    0  0.46939393846E+02  0.42601796266E+01 -0.24677365110E+03  0.25126910495E+03  0.41800000000E+01 0. -1.
         -5    1    3    3    0  502 -0.62446341092E+02 -0.42526067482E+02 -0.85745784458E+03  0.86079000898E+03  0.41800000000E+01 0. -1.
        -11    1    1    2    0    0  0.53993811658E+02  0.18830843932E+02 -0.23377502142E+03  0.24066718310E+03  0.00000000000E+00 0.  1.
         11    1    1    2    0    0 -0.38486864411E+02  0.19435043923E+02 -0.22008396515E+03  0.22426749961E+03  0.00000000000E+00 0. -1.
</event>
<event>
 7    1  0.2648915E-009  0.3630131E+02  0.7561462E-02  0.1537339E+00
         -2   -1    0    0    0  501 -0.00000000000E+00  0.00000000000E+00  0.11956435813E+02  0.11956435813E+02  0.00000000000E+00 0.  1.
          2   -1    0    0  501    0  0.00000000000E+00 -0.00000000000E+00 -0.68804138018E+03  0.68804138018E+03  0.00000000000E+00 0. -1.
         25    2    1    2    0    0  0.86016321451E+01  0.17048378940E+02 -0.51214329350E+03  0.52754351317E+03  0.12508704934E+03 0.  0.
          5    1    3    3  502    0  0.56311072994E+01  0.21069374862E+02 -0.51818297219E+03  0.51865855145E+03  0.41800000000E+01 0.  1.
         -5    1    3    3    0  502  0.29705248457E+01 -0.40209959223E+01  0.60396786901E+01  0.88849617188E+01  0.41800000000E+01 0.  1.
        -11    1    1    2    0    0 -0.27121559861E+01  0.12989920252E+02 -0.13499454698E+02  0.18929582547E+02  0.00000000000E+00 0.  1.
         11    1    1    2    0    0 -0.58894761590E+01 -0.30038299192E+02 -0.15044219617E+03  0.15352472028E+03  0.00000000000E+00 0. -1.
</event>
<event>
 7    1  0.2648915E-009  0.1122499E+03  0.7561462E-02  0.1256459E+00
         -1   -1    0    0    0  501 -0.00000000000E+00  0.00000000000E+00  0.64805301349E+02  0.64805301349E+02  0.00000000000E+00 0.  1.
          1   -1    0    0  501    0  0.00000000000E+00 -0.00000000000E+00 -0.24298705017E+03  0.24298705017E+03  0.00000000000E+00 0. -1.
         25    2    1    2    0    0  0.45773149644E+01  0.53458679290E+02 -0.58076561961E+02  0.14799426731E+03  0.12510249360E+03 0.  0.
          5    1    3    3  502    0  0.40643872936E+02 -0.17363261140E+02 -0.51711023871E+02  0.68153573893E+02  0.41800000000E+01 0.  1.
         -5    1    3    3    0  502 -0.36066557971E+02  0.70821940431E+02 -0.63655380905E+01  0.79840693418E+02  0.41800000000E+01 0.  1.
        -11    1    1    2    0    0  0.36264156122E+02 -0.46692013300E+02 -0.45979394440E+02  0.74895512805E+02  0.00000000000E+00 0.  1.
         11    1    1    2    0    0 -0.40841471086E+02 -0.67666659904E+01 -0.74125792416E+02  0.84902571401E+02  0.00000000000E+00 0. -1.
</event>
<event>
 7    1  0.2648915E-009  0.1089421E+03  0.7561462E-02  0.1262542E+00
          3   -1    0    0  501    0  0.00000000000E+00  0.00000000000E+00  0.64026898623E+02  0.64026898623E+02  0.00000000000E+00 0. -1.
         -3   -1    0    0    0  501 -0.00000000000E+00 -0.00000000000E+00 -0.21547533401E+03  0.21547533401E+03  0.00000000000E+00 0.  1.
         25    2    1    2    0    0  0.10588570890E+02 -0.19701811731E+02 -0.38562625051E+02  0.13279388083E+03  0.12508740751E+03 0.  0.
          5    1    3    3  502    0 -0.34619208037E+01 -0.70823350414E+02 -0.35794189477E+02  0.79540104726E+02  0.41800000000E+01 0. -1.
         -5    1    3    3    0  502  0.14050491693E+02  0.51121538683E+02 -0.27684355739E+01  0.53253776107E+02  0.41800000000E+01 0. -1.
        -11    1    1    2    0    0 -0.44433550380E+02  0.34967904815E+02 -0.69975345913E+02  0.89964680860E+02  0.00000000000E+00 0.  1.
         11    1    1    2    0    0  0.33844979491E+02 -0.15266093084E+02 -0.42910464423E+02  0.56743670940E+02  0.00000000000E+00 0. -1.
</event>
<event>
 7    1  0.2648915E-009  0.1281383E+03  0.7561462E-02  0.1230245E+00
         -2   -1    0    0    0  501 -0.00000000000E+00  0.00000000000E+00  0.60609599251E+02  0.60609599251E+02  0.00000000000E+00 0.  1.
          2   -1    0    0  501    0  0.00000000000E+00 -0.00000000000E+00 -0.53974273478E+03  0.53974273478E+03  0.00000000000E+00 0. -1.
         25    2    1    2    0    0 -0.68292754364E+02 -0.30628466946E+02 -0.45822586028E+03  0.48085330218E+03  0.12508779278E+03 0.  0.
          5    1    3    3  502    0  0.16793690812E+02  0.31444873067E+02 -0.17515482913E+03  0.17879455993E+03  0.41800000000E+01 0.  1.
         -5    1    3    3    0  502 -0.85086445176E+02 -0.62073340013E+02 -0.28307103115E+03  0.30205874225E+03  0.41800000000E+01 0.  1.
        -11    1    1    2    0    0 -0.68909882589E+00  0.44592306844E+02 -0.20580525812E+02  0.49117275266E+02  0.00000000000E+00 0.  1.
         11    1    1    2    0    0  0.68981853190E+02 -0.13963839898E+02 -0.32674943333E+00  0.70381756581E+02  0.00000000000E+00 0. -1.
</event>
<event>
 7    1  0.2648915E-009  0.1142805E+03  0.7561462E-02  0.1252842E+00
          1   -1    0    0  501    0  0.00000000000E+00  0.00000000000E+00  0.31637093534E+02  0.31637093534E+02  0.00000000000E+00 0. -1.
         -1   -1    0    0    0  501 -0.00000000000E+00 -0.00000000000E+00 -0.53720300403E+03  0.53720300403E+03  0.00000000000E+00 0.  1.
         25    2    1    2    0    0 -0.56663269583E+02 -0.28833009405E+02 -0.36137596621E+03  0.38766149421E+03  0.12508707603E+03 0.  0.
          5    1    3    3  502    0 -0.36957369472E+02  0.35709044733E+02 -0.26478165302E+03  0.26975503556E+03  0.41800000000E+01 0. -1.
         -5    1    3    3    0  502 -0.19705900112E+02 -0.64542054138E+02 -0.96594313189E+02  0.11790645865E+03  0.41800000000E+01 0. -1.
        -11    1    1    2    0    0  0.51475027121E+02 -0.23650896362E+02 -0.81520216221E+02  0.99270282404E+02  0.00000000000E+00 0.  1.
         11    1    1    2    0    0  0.51882424623E+01  0.52483905767E+02 -0.62669728065E+02  0.81908320945E+02  0.00000000000E+00 0. -1.
</event>
<event>
 7    1  0.2648915E-009  0.1101439E+03  0.7561462E-02  0.1260304E+00
          2   -1    0    0  501    0  0.00000000000E+00  0.00000000000E+00  0.60686210106E+03  0.60686210106E+03  0.00000000000E+00 0. -1.
         -2   -1    0    0    0  501 -0.00000000000E+00 -0.00000000000E+00 -0.25072749993E+02  0.25072749993E+02  0.00000000000E+00 0.  1.
         25    2    1    2    0    0  0.43993831976E+02 -0.34933965705E+02  0.33538035112E+03  0.36232967100E+03  0.12508785454E+03 0.  0.
          5    1    3    3  502    0  0.39177340987E+02  0.27895437775E+02  0.47944344759E+02  0.68037872467E+02  0.41800000000E+01 0. -1.
         -5    1    3    3    0  502  0.48164909889E+01 -0.62829403480E+02  0.28743600636E+03  0.29429179853E+03  0.41800000000E+01 0. -1.
        -11    1    1    2    0    0 -0.11181824461E+02 -0.32227473573E+02  0.90149575788E+02  0.96387702878E+02  0.00000000000E+00 0. -1.
         11    1    1    2    0    0 -0.32812007515E+02  0.67161439278E+02  0.15625942415E+03  0.17321747718E+03  0.00000000000E+00 0.  1.
</event>
<event>
 7    1  0.2648915E-009  0.9064785E+02  0.7561462E-02  0.1301290E+00
          1   -1    0    0  501    0  0.00000000000E+00  0.00000000000E+00  0.10812648297E+03  0.10812648297E+03  0.00000000000E+00 0. -1.
         -1   -1    0    0    0  501 -0.00000000000E+00 -0.00000000000E+00 -0.12970977692E+03  0.12970977692E+03  0.00000000000E+00 0.  1.
         25    2    1    2    0    0 -0.37610287576E+02 -0.18487811127E+02 -0.35030764859E+02  0.13649400232E+03  0.12508846986E+03 0.  0.
          5    1    3    3  502    0 -0.61742256670E+02 -0.30975162207E+02 -0.65619169232E+02  0.95367262219E+02  0.41800000000E+01 0. -1.
         -5    1    3    3    0  502  0.24131969093E+02  0.12487351080E+02  0.30588404373E+02  0.41126740101E+02  0.41800000000E+01 0. -1.
        -11    1    1    2    0    0 -0.14461499467E+01 -0.25635222741E+02  0.30624506898E+02  0.39963938962E+02  0.00000000000E+00 0. -1.
         11    1    1    2    0    0  0.39056437523E+02  0.44123033868E+02 -0.17177035983E+02  0.61378318606E+02  0.00000000000E+00 0.  1.
</event>
<event>
 7    1  0.2648915E-009  0.1365075E+03  0.7561462E-02  0.1218107E+00
          1   -1    0    0  501    0  0.00000000000E+00  0.00000000000E+00  0.15241937227E+03  0.15241937227E+03  0.00000000000E+00 0. -1.
         -1   -1    0    0    0  501 -0.00000000000E+00 -0.00000000000E+00 -0.18837559825E+03  0.18837559825E+03  0.00000000000E+00 0.  1.
         25    2    1    2    0    0  0.73096908831E+02 -0.46645981444E+02  0.77757101009E+02  0.17091722961E+03  0.12509007537E+03 0.  0.
          5    1    3    3  502    0 -0.75818898760E+00  0.37044526406E+02  0.50170535212E+01  0.37623330704E+02  0.41800000000E+01 0.  1.
         -5    1    3    3    0  502  0.73855097819E+02 -0.83690507850E+02  0.72740047488E+02  0.13329389891E+03  0.41800000000E+01 0.  1.
        -11    1    1    2    0    0  0.20030671754E+01  0.48857400473E+02 -0.60596730482E+02  0.77865406980E+02  0.00000000000E+00 0.  1.
         11    1    1    2    0    0 -0.75099976007E+02 -0.22114190289E+01 -0.53116596502E+02  0.92012333925E+02  0.00000000000E+00 0. -1.
</event>
<event>
 7    1  0.2648915E-009  0.1263070E+03  0.7561462E-02  0.1233041E+00
          2   -1    0    0  501    0  0.00000000000E+00  0.00000000000E+00  0.19325492640E+03  0.19325492640E+03  0.00000000000E+00 0. -1.
         -2   -1    0    0    0  501 -0.00000000000E+00 -0.00000000000E+00 -0.10796428559E+03  0.10796428559E+03  0.00000000000E+00 0.  1.
         25    2    1    2    0    0 -0.46937614408E+02 -0.77301271281E+02  0.16724113287E+02  0.15525666588E+03  0.12508521154E+03 0.  0.
          5    1    3    3  502    0 -0.22972387418E+02 -0.98163404223E+02 -0.23721946045E+02  0.10365320852E+03  0.41800000000E+01 0.  1.
         -5    1    3    3    0  502 -0.23965226990E+02  0.20862132942E+02  0.40446059332E+02  0.51603457355E+02  0.41800000000E+01 0.  1.
        -11    1    1    2    0    0  0.68068672095E+02  0.69105563544E+02  0.74760631589E+02  0.12246662839E+03  0.00000000000E+00 0.  1.
         11    1    1    2    0    0 -0.21131057687E+02  0.81957077372E+01 -0.61941040698E+01  0.23495917720E+02  0.00000000000E+00 0. -1.
</event>
<event>
 7    1  0.2648915E-009  0.9142145E+02  0.7561462E-02  0.1299446E+00
          3   -1    0    0  501    0  0.00000000000E+00  0.00000000000E+00  0.11514119657E+03  0.11514119657E+03  0.00000000000E+00 0. -1.
         -3   -1    0    0    0  501 -0.00000000000E+00 -0.00000000000E+00 -0.14804942533E+03  0.14804942533E+03  0.00000000000E+00 0.  1.
         25    2    1    2    0    0  0.61866048111E+02  0.22489530175E+02 -0.48626221782E+02  0.14948048017E+03  0.12508684036E+03 0.  0.
          5    1    3    3  502    0  0.68762261031E+02  0.27931772161E+01 -0.83708857197E+02  0.10844674064E+03  0.41800000000E+01 0. -1.
         -5    1    3    3    0  502 -0.68962129209E+01  0.19696352959E+02  0.35082635416E+02  0.41033739535E+02  0.41800000000E+01 0. -1.
        -11    1    1    2    0    0 -0.15512651376E+02  0.22951467738E+02  0.36255018638E+02  0.45627169543E+02  0.00000000000E+00 0. -1.
         11    1    1    2    0    0 -0.46353396734E+02 -0.45440997914E+02 -0.20537025622E+02  0.68082972185E+02  0.00000000000E+00 0.  1.
</event>
<event>
 7    1  0.3451567E-009  0.2241052E+03  0.7561462E-02  0.1130859E+00
         -4   -1    0    0    0  501 -0.00000000000E+00  0.00000000000E+00  0.10753241083E+03  0.10753241083E+03  0.00000000000E+00 0.  1.
          4   -1    0    0  501    0  0.00000000000E+00 -0.00000000000E+00 -0.55763578845E+03  0.55763578845E+03  0.00000000000E+00 0. -1.
         25    2    1    2    0    0 -0.63052562518E+02  0.20946935560E+03 -0.24765025483E+03  0.35331282289E+03  0.12508503318E+03 0.  0.
          5    1    3    3  502    0 -0.52282620584E+02  0.21102536975E+03 -0.17330665227E+03  0.27806086962E+03  0.41800000000E+01 0. -1.
         -5    1    3    3    0  502 -0.10769941934E+02 -0.15560141485E+01 -0.74343602565E+02  0.75251953274E+02  0.41800000000E+01 0.  1.
        -11    1    1    2    0    0  0.47953327117E+02 -0.13901124626E+03 -0.18746067609E+03  0.23825438767E+03  0.00000000000E+00 0. -1.
         11    1    1    2    0    0  0.15099235401E+02 -0.70458109345E+02 -0.14992446701E+02  0.73600988718E+02  0.00000000000E+00 0.  1.
</event>
<event>
 7    1  0.2648915E-009  0.8982754E+02  0.7561462E-02  0.1303270E+00
          2   -1    0    0  501    0  0.00000000000E+00  0.00000000000E+00  0.29255219996E+03  0.29255219996E+03  0.00000000000E+00 0. -1.
         -2   -1    0    0    0  501 -0.00000000000E+00 -0.00000000000E+00 -0.44290808338E+02  0.44290808338E+02  0.00000000000E+00 0.  1.
         25    2    1    2    0    0 -0.17929540126E+01 -0.31148119930E+02  0.12972286243E+03  0.18289075120E+03  0.12509031049E+03 0.  0.
          5    1    3    3  502    0  0.40327861386E+02 -0.91858315871E+01  0.12864198113E+03  0.13519226167E+03  0.41800000000E+01 0. -1.
         -5    1    3    3    0  502 -0.42120815398E+02 -0.21962288343E+02  0.10808812998E+01  0.47698489530E+02  0.41800000000E+01 0. -1.
        -11    1    1    2    0    0  0.26150272636E+02  0.52083225364E+02  0.10283421471E+03  0.11820057038E+03  0.00000000000E+00 0. -1.
         11    1    1    2    0    0 -0.24357318623E+02 -0.20935105435E+02  0.15704314487E+02  0.35751686723E+02  0.00000000000E+00 0.  1.
</event>
<event>
 7    1  0.2648915E-009  0.1326658E+03  0.7561462E-02  0.1223553E+00
         -1   -1    0    0    0  501 -0.00000000000E+00  0.00000000000E+00  0.36475740062E+02  0.36475740062E+02  0.00000000000E+00 0.  1.
          1   -1    0    0  501    0  0.00000000000E+00 -0.00000000000E+00 -0.68430918435E+03  0.68430918435E+03  0.00000000000E+00 0. -1.
         25    2    1    2    0    0 -0.88755153152E+02  0.15991480275E+02 -0.50638321449E+03  0.52934397725E+03  0.12509149322E+03 0.  0.
          5    1    3    3  502    0 -0.69108279873E+02 -0.47138918327E+02 -0.34213527450E+03  0.35223862710E+03  0.41800000000E+01 0. -1.
         -5    1    3    3    0  502 -0.19646873278E+02  0.63130398602E+02 -0.16424794000E+03  0.17710535014E+03  0.41800000000E+01 0. -1.
        -11    1    1    2    0    0  0.83941300516E+02 -0.38469367119E+02 -0.68545326976E+02  0.11499780863E+03  0.00000000000E+00 0.  1.
         11    1    1    2    0    0  0.48138526351E+01  0.22477886844E+02 -0.72904902820E+02  0.76443138536E+02  0.00000000000E+00 0. -1.
</event>
<event>
 7    1  0.2648915E-009  0.5016871E+02  0.7561462E-02  0.1444434E+00
         -2   -1    0    0    0  501 -0.00000000000E+00  0.00000000000E+00  0.32674895259E+03  0.32674895259E+03  0.00000000000E+00 0.  1.
          2   -1    0    0  501    0  0.00000000000E+00 -0.00000000000E+00 -0.11724332211E+03  0.11724332211E+03  0.00000000000E+00 0. -1.
         25    2    1    2    0    0  0.27889789168E+02  0.35530083543E+02  0.28685050137E+03  0.31618227660E+03  0.12509114567E+03 0.  0.
          5    1    3    3  502    0  0.24818840499E+01  0.32361234323E+00 -0.12632566800E+02  0.13539520573E+02  0.41800000000E+01 0. -1.
         -5    1    3    3    0  502  0.25407905118E+02  0.35206471200E+02  0.29948306817E+03  0.30264275603E+03  0.41800000000E+01 0. -1.
        -11    1    1    2    0    0 -0.90645501077E+01 -0.31254867739E+02  0.13282733993E+02  0.35149165685E+02  0.00000000000E+00 0.  1.
         11    1    1    2    0    0 -0.18825239060E+02 -0.42752158045E+01 -0.90627604888E+02  0.92660832414E+02  0.00000000000E+00 0. -1.
</event>
<event>
 7    1  0.2648915E-009  0.2474006E+03  0.7561462E-02  0.1114959E+00
          2   -1    0    0  501    0  0.00000000000E+00  0.00000000000E+00  0.52712971451E+03  0.52712971451E+03  0.00000000000E+00 0. -1.
         -2   -1    0    0    0  501 -0.00000000000E+00 -0.00000000000E+00 -0.13873518723E+03  0.13873518723E+03  0.00000000000E+00 0.  1.
         25    2    1    2    0    0 -0.28706923816E+02  0.24201648920E+03  0.15215881544E+03  0.31336233132E+03  0.12509027561E+03 0.  0.
          5    1    3    3  502    0  0.15476587581E+01  0.73147366801E+02 -0.13869770077E+02  0.74584015979E+02  0.41800000000E+01 0. -1.
         -5    1    3    3    0  502 -0.30254582574E+02  0.16886912240E+03  0.16602858552E+03  0.23877831534E+03  0.41800000000E+01 0. -1.
        -11    1    1    2    0    0  0.42194728708E+02 -0.12105191994E+03  0.68763708571E+02  0.14547305616E+03  0.00000000000E+00 0.  1.
         11    1    1    2    0    0 -0.13487804892E+02 -0.12096456926E+03  0.16747200327E+03  0.20702951426E+03  0.00000000000E+00 0. -1.
</event>
<event>
 7    1  0.2648915E-009  0.8696494E+02  0.7561462E-02  0.1310373E+00
         -3   -1    0    0    0  501 -0.00000000000E+00  0.00000000000E+00  0.36036373154E+03  0.36036373154E+03  0.00000000000E+00 0.  1.
          3   -1    0    0  501    0  0.00000000000E+00 -0.00000000000E+00 -0.32764689569E+02  0.32764689569E+02  0.00000000000E+00 0. -1.
         25    2    1    2    0    0  0.11478349711E+02  0.38103321335E+01  0.18243692949E+03  0.22152381805E+03  0.12507316890E+03 0.  0.
          5    1    3    3  502    0 -0.42880624896E+02 -0.14945297100E+02  0.21201463795E+02  0.50290002624E+02  0.41800000000E+01 0.  1.
         -5    1    3    3    0  502  0.54358974607E+02  0.18755629234E+02  0.16123546569E+03  0.17123381542E+03  0.41800000000E+01 0.  1.
        -11    1    1    2    0    0  0.29343408994E+02 -0.53228410605E+01  0.11994831773E+03  0.12360002918E+03  0.00000000000E+00 0.  1.
         11    1    1    2    0    0 -0.40821758706E+02  0.15125089271E+01  0.25213794760E+02  0.48004573878E+02  0.00000000000E+00 0. -1.
</event>
<event>
 7    1  0.2648915E-009  0.1055856E+03  0.7561462E-02  0.1268970E+00
          1   -1    0    0  501    0  0.00000000000E+00  0.00000000000E+00  0.10374546351E+04  0.10374546351E+04  0.00000000000E+00 0. -1.
         -1   -1    0    0    0  501 -0.00000000000E+00 -0.00000000000E+00 -0.18447203200E+02  0.18447203200E+02  0.00000000000E+00 0.  1.
         25    2    1    2    0    0  0.86383059803E+01 -0.62336853315E+02  0.76542940493E+03  0.77812997168E+03  0.12507427905E+03 0.  0.
          5    1    3    3  502    0  0.22170333073E+02  0.23308636664E+02  0.44403750184E+03  0.44522083470E+03  0.41800000000E+01 0.  1.
         -5    1    3    3    0  502 -0.13532027093E+02 -0.85645489979E+02  0.32139190309E+03  0.33290913698E+03  0.41800000000E+01 0.  1.
        -11    1    1    2    0    0  0.29310535653E+02  0.22920105679E+02  0.30587830615E+02  0.48166940181E+02  0.00000000000E+00 0.  1.
         11    1    1    2    0    0 -0.37948841633E+02  0.39416747636E+02  0.22299019632E+03  0.22960492641E+03  0.00000000000E+00 0. -1.
</event>
<event>
 7    1  0.2648915E-009  0.1251452E+03  0.7561462E-02  0.1234843E+00
          1   -1    0    0  501    0  0.00000000000E+00  0.00000000000E+00  0.52644957074E+02  0.52644957074E+02  0.00000000000E+00 0. -1.
         -1   -1    0    0    0  501 -0.00000000000E+00 -0.00000000000E+00 -0.35013115941E+03  0.35013115941E+03  0.00000000000E+00 0.  1.
         25    2    1    2    0    0  0.52866792398E+02  0.61379127301E+02 -0.15104195120E+03  0.21218800605E+03  0.12509110232E+03 0.  0.
          5    1    3    3  502    0  0.90361634684E+02  0.29069142887E+02 -0.12205322659E+03  0.15467612166E+03  0.41800000000E+01 0.  1.
         -5    1    3    3    0  502 -0.37494842286E+02  0.32309984414E+02 -0.28988724614E+02  0.57511884386E+02  0.41800000000E+01 0.  1.
        -11    1    1    2    0    0  0.64938122448E+01 -0.42965479230E+02 -0.16381619068E+02  0.46438770938E+02  0.00000000000E+00 0. -1.
         11    1    1    2    0    0 -0.59360604643E+02 -0.18413648071E+02 -0.13006263206E+03  0.14414933950E+03  0.00000000000E+00 0.  1.
</event>
<event>
 7    1  0.2648915E-009  0.1254426E+03  0.7561462E-02  0.1234379E+00
         -1   -1    0    0    0  501 -0.00000000000E+00  0.00000000000E+00  0.54607989056E+02  0.54607989056E+02  0.00000000000E+00 0.  1.
          1   -1    0    0  501    0  0.00000000000E+00 -0.00000000000E+00 -0.40797220719E+03  0.40797220719E+03  0.00000000000E+00 0. -1.
         25    2    1    2    0    0 -0.56533932990E+02 -0.75793133633E+02 -0.13286196692E+03  0.20552576325E+03  0.12509137627E+03 0.  0.
          5    1    3    3  502    0 -0.74201636619E+02  0.33152493071E+01 -0.76518069187E+02  0.10672094952E+03  0.41800000000E+01 0.  1.
         -5    1    3    3    0  502  0.17667703629E+02 -0.79108382940E+02 -0.56343897735E+02  0.98804813723E+02  0.41800000000E+01 0.  1.
        -11    1    1    2    0    0  0.64149213021E+01  0.16418468837E+02  0.51788185986E+01  0.18372193564E+02  0.00000000000E+00 0.  1.
         11    1    1    2    0    0  0.50119011688E+02  0.59374664796E+02 -0.22568106981E+03  0.23868223944E+03  0.00000000000E+00 0. -1.
</event>
<event>
 7    1  0.2648915E-009  0.1493342E+03  0.7561462E-02  0.1201294E+00
         -1   -1    0    0    0  501 -0.00000000000E+00  0.00000000000E+00  0.80069756667E+02  0.80069756667E+02  0.00000000000E+00 0.  1.
          1   -1    0    0  501    0  0.00000000000E+00 -0.00000000000E+00 -0.32415775763E+03  0.32415775763E+03  0.00000000000E+00 0. -1.
         25    2    1    2    0    0 -0.11495508112E+02 -0.11345913778E+03 -0.90268462936E+02  0.19183470792E+03  0.12508811737E+03 0.  0.
          5    1    3    3  502    0 -0.53815702229E+02 -0.23496507193E+02 -0.21347326019E+01  0.58908786611E+02  0.41800000000E+01 0.  1.
         -5    1    3    3    0  502  0.42320194117E+02 -0.89962630589E+02 -0.88133730334E+02  0.13292592131E+03  0.41800000000E+01 0.  1.
        -11    1    1    2    0    0  0.75381603061E+01 -0.12323296235E+02 -0.10773777003E+01  0.14486139361E+02  0.00000000000E+00 0.  1.
         11    1    1    2    0    0  0.39573478059E+01  0.12578243402E+03 -0.15274216033E+03  0.19790666702E+03  0.00000000000E+00 0. -1.
</event>
<event>
 7    1  0.2648915E-009  0.1081080E+03  0.7561462E-02  0.1264114E+00
         -1   -1    0    0    0  501 -0.00000000000E+00  0.00000000000E+00  0.11244420540E+03  0.11244420540E+03  0.00000000000E+00 0.  1.
          1   -1    0    0  501    0  0.00000000000E+00 -0.00000000000E+00 -0.16642521787E+03  0.16642521787E+03  0.00000000000E+00 0. -1.
         25    2    1    2    0    0 -0.45001011608E+02 -0.68420889999E+02 -0.23608609374E+02  0.15136737856E+03  0.12509279604E+03 0.  0.
          5    1    3    3  502    0 -0.54570066267E+02 -0.76749927755E+02  0.27778331139E+02  0.98272842758E+02  0.41800000000E+01 0.  1.
         -5    1    3    3    0  502  0.95690546583E+01  0.83290377567E+01 -0.51386940513E+02  0.53094535804E+02  0.41800000000E+01 0.  1.
        -11    1    1    2    0    0  0.11457367161E+02 -0.14887538620E+02 -0.32646058024E+02  0.37665304631E+02  0.00000000000E+00 0. -1.
         11    1    1    2    0    0  0.33543644447E+02  0.83308428619E+02  0.22736549259E+01  0.89836740081E+02  0.00000000000E+00 0.  1.
</event>
<event>
 7    1  0.2648915E-009  0.1575713E+03  0.7561462E-02  0.1191466E+00
          1   -1    0    0  501    0  0.00000000000E+00  0.00000000000E+00  0.34303065935E+03  0.34303065935E+03  0.00000000000E+00 0. -1.
         -1   -1    0    0    0  501 -0.00000000000E+00 -0.00000000000E+00 -0.80579503168E+02  0.80579503168E+02  0.00000000000E+00 0.  1.
         25    2    1    2    0    0 -0.59774111940E+02  0.10091909040E+03  0.20705193055E+03  0.26883831919E+03  0.12508370259E+03 0.  0.
          5    1    3    3  502    0 -0.80037503203E+02  0.14088872883E+02  0.11204641263E+03  0.13847876819E+03  0.41800000000E+01 0. -1.
         -5    1    3    3    0  502  0.20263391263E+02  0.86830217515E+02  0.95005517923E+02  0.13035955099E+03  0.41800000000E+01 0. -1.
        -11    1    1    2    0    0  0.73711926237E+02 -0.10647585347E+03  0.50237600054E+02  0.13890418245E+03  0.00000000000E+00 0.  1.
         11    1    1    2    0    0 -0.13937814297E+02  0.55567630761E+01  0.51616255765E+01  0.15867660881E+02  0.00000000000E+00 0. -1.
</event>
<event>
 7    1  0.2648915E-009  0.5750472E+02  0.7561462E-02  0.1408612E+00
          2   -1    0    0  501    0  0.00000000000E+00  0.00000000000E+00  0.35209011978E+03  0.35209011978E+03  0.00000000000E+00 0. -1.
         -2   -1    0    0    0  501 -0.00000000000E+00 -0.00000000000E+00 -0.43920720620E+02  0.43920720620E+02  0.00000000000E+00 0.  1.
         25    2    1    2    0    0 -0.98417016972E+01  0.38459203111E+02  0.98694341011E+02  0.16420717894E+03  0.12508978884E+03 0.  0.
          5    1    3    3  502    0 -0.18288219381E+02  0.20195700135E+02  0.12659118579E+03  0.12955742353E+03  0.41800000000E+01 0.  1.
         -5    1    3    3    0  502  0.84465176835E+01  0.18263502977E+02 -0.27896844777E+02  0.34649755417E+02  0.41800000000E+01 0.  1.
        -11    1    1    2    0    0 -0.21154163904E+02 -0.59484334898E+01  0.51107687243E+01  0.22561083051E+02  0.00000000000E+00 0.  1.
         11    1    1    2    0    0  0.30995865601E+02 -0.32510769621E+02  0.20436428942E+03  0.20924257840E+03  0.00000000000E+00 0. -1.
</event>
<event>
 7    1  0.2648915E-009  0.1475213E+03  0.7561462E-02  0.1203552E+00
         -1   -1    0    0    0  501 -0.00000000000E+00  0.00000000000E+00  0.41570806923E+02  0.41570806923E+02  0.00000000000E+00 0.  1.
          1   -1    0    0  501    0  0.00000000000E+00 -0.00000000000E+00 -0.83229372020E+03  0.83229372020E+03  0.00000000000E+00 0. -1.
         25    2    1    2    0    0 -0.10218371349E+03 -0.10037415342E+03 -0.31121287906E+03  0.36471540137E+03  0.12508951166E+03 0.  0.
          5    1    3    3  502    0 -0.47981479906E+02 -0.37695704749E+02 -0.23903904471E+02  0.65666259369E+02  0.41800000000E+01 0.  1.
         -5    1    3    3    0  502 -0.54202233581E+02 -0.62678448672E+02 -0.28730897459E+03  0.29904914200E+03  0.41800000000E+01 0.  1.
        -11    1    1    2    0    0  0.64705866282E+02  0.30307748950E+02 -0.10983729132E+03  0.13103297044E+03  0.00000000000E+00 0. -1.
         11    1    1    2    0    0  0.37477847206E+02  0.70066404471E+02 -0.36967274290E+03  0.37811615531E+03  0.00000000000E+00 0.  1.
</event>
<event>
 7    1  0.2648915E-009  0.9453501E+02  0.7561462E-02  0.1292227E+00
          2   -1    0    0  501    0  0.00000000000E+00  0.00000000000E+00  0.38123706558E+03  0.38123706558E+03  0.00000000000E+00 0. -1.
         -2   -1    0    0    0  501 -0.00000000000E+00 -0.00000000000E+00 -0.14165791319E+03  0.14165791319E+03  0.00000000000E+00 0.  1.
         25    2    1    2    0    0 -0.79332383295E+02  0.23529706073E+02  0.33485130033E+03  0.36690567912E+03  0.12508840845E+03 0.  0.
          5    1    3    3  502    0 -0.87183900099E+02  0.32898620891E+02  0.34032386877E+03  0.35287555844E+03  0.41800000000E+01 0. -1.
         -5    1    3    3    0  502  0.78515168039E+01 -0.93689148176E+01 -0.54725684345E+01  0.14030120678E+02  0.41800000000E+01 0. -1.
        -11    1    1    2    0    0  0.58908166235E+02 -0.15379391702E+02 -0.11259107647E+03  0.12799784466E+03  0.00000000000E+00 0.  1.
         11    1    1    2    0    0  0.20424217060E+02 -0.81503143711E+01  0.17318928523E+02  0.27991454983E+02  0.00000000000E+00 0. -1.
</event>
<event>
 7    1  0.2648915E-009  0.1232784E+03  0.7561462E-02  0.1237785E+00
          1   -1    0    0  501    0  0.00000000000E+00  0.00000000000E+00  0.16029521660E+03  0.16029521660E+03  0.00000000000E+00 0. -1.
         -1   -1    0    0    0  501 -0.00000000000E+00 -0.00000000000E+00 -0.14417094201E+03  0.14417094201E+03  0.00000000000E+00 0.  1.
         25    2    1    2    0    0 -0.89140427586E+02  0.58463578626E+02  0.13854133440E+02  0.16493300183E+03  0.12508777808E+03 0.  0.
          5    1    3    3  502    0 -0.26715726552E+02  0.80782208997E+01  0.64200221683E+02  0.70129370183E+02  0.41800000000E+01 0. -1.
         -5    1    3    3    0  502 -0.62424701034E+02  0.50385357726E+02 -0.50346088243E+02  0.94803631649E+02  0.41800000000E+01 0. -1.
        -11    1    1    2    0    0  0.80377894344E+02 -0.15215797375E+01  0.11418203991E+02  0.81199116291E+02  0.00000000000E+00 0.  1.
         11    1    1    2    0    0  0.87625332421E+01 -0.56941998888E+02 -0.91480628348E+01  0.58334040490E+02  0.00000000000E+00 0. -1.
</event>
<event>
 7    1  0.2648915E-009  0.1225949E+03  0.7561462E-02  0.1238877E+00
         -2   -1    0    0    0  501 -0.00000000000E+00  0.00000000000E+00  0.10161846444E+03  0.10161846444E+03  0.00000000000E+00 0.  1.
          2   -1    0    0  501    0  0.00000000000E+00 -0.00000000000E+00 -0.18875333021E+03  0.18875333021E+03  0.00000000000E+00 0. -1.
         25    2    1    2    0    0  0.29082733821E+02  0.77895909564E+02 -0.33631506811E+02  0.15392294347E+03  0.12509043186E+03 0.  0.
          5    1    3    3  502    0 -0.27901054449E+02  0.80780124585E+02  0.36415584258E+01  0.85642458600E+02  0.41800000000E+01 0.  1.
         -5    1    3    3    0  502  0.56983788270E+02 -0.28842150212E+01 -0.37273065237E+02  0.68280484870E+02  0.41800000000E+01 0.  1.
        -11    1    1    2    0    0 -0.28671965289E+02 -0.45056937116E+01 -0.55935535317E+02  0.63017195912E+02  0.00000000000E+00 0. -1.
         11    1    1    2    0    0 -0.41076853179E+00 -0.73390215852E+02  0.24321763539E+01  0.73431655268E+02  0.00000000000E+00 0.  1.
</event>
<event>
 7    1  0.2648915E-009  0.1719930E+03  0.7561462E-02  0.1175785E+00
          1   -1    0    0  501    0  0.00000000000E+00  0.00000000000E+00  0.13833245373E+04  0.13833245373E+04  0.00000000000E+00 0. -1.
         -1   -1    0    0    0  501 -0.00000000000E+00 -0.00000000000E+00 -0.24619112182E+02  0.24619112182E+02  0.00000000000E+00 0.  1.
         25    2    1    2    0    0  0.12140560872E+03  0.85414626120E+02  0.58374509045E+03  0.61517544334E+03  0.12509002872E+03 0.  0.
          5    1    3    3  502    0  0.56934562240E+00 -0.26779285087E+02  0.55314665865E+02  0.61600640613E+02  0.41800000000E+01 0.  1.
         -5    1    3    3    0  502  0.12083626310E+03  0.11219391121E+03  0.52843042458E+03  0.55357480273E+03  0.41800000000E+01 0.  1.
        -11    1    1    2    0    0 -0.11373509654E+03 -0.67042921363E+02  0.74619996018E+03  0.75778942066E+03  0.00000000000E+00 0. -1.
         11    1    1    2    0    0 -0.76705121864E+01 -0.18371704757E+02  0.28760374490E+02  0.34978785480E+02  0.00000000000E+00 0.  1.
</event>
<event>
 7    1  0.2648915E-009  0.1160537E+03  0.7561462E-02  0.1249753E+00
         -1   -1    0    0    0  501 -0.00000000000E+00  0.00000000000E+00  0.93023518722E+01  0.93023518722E+01  0.00000000000E+00 0.  1.
          1   -1    0    0  501    0  0.00000000000E+00 -0.00000000000E+00 -0.19595359429E+04  0.19595359429E+04  0.00000000000E+00 0. -1.
         25    2    1    2    0    0  0.45690259230E+02  0.33814160173E+02 -0.14887873658E+04  0.14951144857E+04  0.12509399526E+03 0.  0.
          5    1    3    3  502    0  0.85499565769E+02  0.29682938880E+02 -0.79186185475E+03  0.79702818144E+03  0.41800000000E+01 0. -1.
         -5    1    3    3    0  502 -0.39809306539E+02  0.41312212925E+01 -0.69692551103E+03  0.69808630427E+03  0.41800000000E+01 0. -1.
        -11    1    1    2    0    0  0.24552769931E+02 -0.36656096271E+01 -0.57832445312E+02  0.62935418771E+02  0.00000000000E+00 0. -1.
         11    1    1    2    0    0 -0.70243029160E+02 -0.30148550546E+02 -0.40361377995E+03  0.41078839031E+03  0.00000000000E+00 0.  1.
</event>
<event>
 7    1  0.2648915E-009  0.9764915E+02  0.7561462E-02  0.1285319E+00
          3   -1    0    0  501    0  0.00000000000E+00  0.00000000000E+00  0.64272963770E+03  0.64272963770E+03  0.00000000000E+00 0. -1.
         -3   -1    0    0    0  501 -0.00000000000E+00 -0.00000000000E+00 -0.19996450943E+02  0.19996450943E+02  0.00000000000E+00 0.  1.
         25    2    1    2    0    0  0.38781178257E+01  0.21489805784E+02  0.43080941834E+03  0.44913397209E+03  0.12509084060E+03 0.  0.
          5    1    3    3  502    0 -0.42317258116E+02  0.46026138963E+02  0.13667086443E+03  0.15035143294E+03  0.41800000000E+01 0.  1.
         -5    1    3    3    0  502  0.46195375942E+02 -0.24536333179E+02  0.29413855391E+03  0.29878253915E+03  0.41800000000E+01 0.  1.
        -11    1    1    2    0    0 -0.16968743291E+02 -0.47828316476E+02  0.16854677841E+03  0.17602131297E+03  0.00000000000E+00 0. -1.
         11    1    1    2    0    0  0.13090625465E+02  0.26338510692E+02  0.23376990003E+02  0.37570803587E+02  0.00000000000E+00 0.  1.
</event>
<event>
 7    1  0.2648915E-009  0.1429174E+03  0.7561462E-02  0.1209456E+00
         -2   -1    0    0    0  501 -0.00000000000E+00  0.00000000000E+00  0.31031240710E+02  0.31031240710E+02  0.00000000000E+00 0.  1.
          2   -1    0    0  501    0  0.00000000000E+00 -0.00000000000E+00 -0.88215261102E+03  0.88215261102E+03  0.00000000000E+00 0. -1.
         25    2    1    2    0    0  0.94596527942E+02  0.76220962187E+02 -0.36643712485E+03  0.40581020583E+03  0.12509044131E+03 0.  0.
          5    1    3    3  502    0  0.22850688485E+01 -0.22066562821E+02 -0.14326193358E+03  0.14502968229E+03  0.41800000000E+01 0.  1.
         -5    1    3    3    0  502  0.92311459093E+02  0.98287525007E+02 -0.22317519128E+03  0.26078052353E+03  0.41800000000E+01 0.  1.
        -11    1    1    2    0    0 -0.31880994947E+02 -0.52262700729E+02 -0.36541228889E+03  0.37050496434E+03  0.00000000000E+00 0. -1.
         11    1    1    2    0    0 -0.62715532995E+02 -0.23958261458E+02 -0.11927195657E+03  0.13686868157E+03  0.00000000000E+00 0.  1.
</event>
<event>
 7    1  0.2648915E-009  0.1282966E+03  0.7561462E-02  0.1230005E+00
          1   -1    0    0  501    0  0.00000000000E+00  0.00000000000E+00  0.76639716648E+03  0.76639716648E+03  0.00000000000E+00 0. -1.
         -1   -1    0    0    0  501 -0.00000000000E+00 -0.00000000000E+00 -0.24396037951E+02  0.24396037951E+02  0.00000000000E+00 0.  1.
         25    2    1    2    0    0  0.56870025830E+02 -0.55928188022E+02  0.47010736455E+03  0.49296325069E+03  0.12509864217E+03 0.  0.
          5    1    3    3  502    0  0.26219659955E+02  0.35903194163E+02  0.22515730362E+03  0.22954257491E+03  0.41800000000E+01 0. -1.
         -5    1    3    3    0  502  0.30650365874E+02 -0.91831382185E+02  0.24495006093E+03  0.26342067579E+03  0.41800000000E+01 0. -1.
        -11    1    1    2    0    0 -0.30337684348E+02  0.75958859533E+02  0.14321560673E+03  0.16492675175E+03  0.00000000000E+00 0.  1.
         11    1    1    2    0    0 -0.26532341482E+02 -0.20030671511E+02  0.12867815725E+03  0.13290320199E+03  0.00000000000E+00 0. -1.
</event>
<event>
 7    1  0.2648915E-009  0.7564651E+02  0.7561462E-02  0.1341881E+00
          3   -1    0    0  501    0  0.00000000000E+00  0.00000000000E+00  0.13473479712E+03  0.13473479712E+03  0.00000000000E+00 0. -1.
         -3   -1    0    0    0  501 -0.00000000000E+00 -0.00000000000E+00 -0.86249721225E+02  0.86249721225E+02  0.00000000000E+00 0.  1.
         25    2    1    2    0    0  0.85826530021E+01 -0.87718966226E+01  0.31812419038E+02  0.12965352673E+03  0.12508956346E+03 0.  0.
          5    1    3    3  502    0 -0.13871503636E+02  0.36734336581E+02  0.59716933519E+02  0.71592001272E+02  0.41800000000E+01 0.  1.
         -5    1    3    3    0  502  0.22454156638E+02 -0.45506233204E+02 -0.27904514481E+02  0.58061525463E+02  0.41800000000E+01 0.  1.
        -11    1    1    2    0    0 -0.11859445447E+02  0.33710452478E+02 -0.24327383915E+02  0.43230344213E+02  0.00000000000E+00 0.  1.
         11    1    1    2    0    0  0.32767924447E+01 -0.24938555856E+02  0.41000040774E+02  0.48100647401E+02  0.00000000000E+00 0. -1.
</event>
<event>
 7    1  0.2648915E-009  0.1083621E+03  0.7561462E-02  0.1263633E+00
         -3   -1    0    0    0  501 -0.00000000000E+00  0.00000000000E+00  0.26248583787E+03  0.26248583787E+03  0.00000000000E+00 0.  1.
          3   -1    0    0  501    0  0.00000000000E+00 -0.00000000000E+00 -0.55497515925E+02  0.55497515925E+02  0.00000000000E+00 0. -1.
         25    2    1    2    0    0  0.92945195704E+01  0.44214235389E+02  0.76272310631E+02  0.15331831209E+03  0.12509097789E+03 0.  0.
          5    1    3    3  502    0 -0.56634271350E+02  0.21136780010E+02  0.50045028310E+02  0.78588685057E+02  0.41800000000E+01 0. -1.
         -5    1    3    3    0  502  0.65928790920E+02  0.23077455379E+02  0.26227282321E+02  0.74729627036E+02  0.41800000000E+01 0. -1.
        -11    1    1    2    0    0  0.29100563059E+02 -0.37023452293E+02  0.28034513950E+02  0.54804313356E+02  0.00000000000E+00 0. -1.
         11    1    1    2    0    0 -0.38395082629E+02 -0.71907830965E+01  0.10268149736E+03  0.10986072834E+03  0.00000000000E+00 0.  1.
</event>
<event>
 7    1  0.2648915E-009  0.1003562E+03  0.7561462E-02  0.1279549E+00
         -1   -1    0    0    0  501 -0.00000000000E+00  0.00000000000E+00  0.23467999000E+03  0.23467999000E+03  0.00000000000E+00 0.  1.
          1   -1    0    0  501    0  0.00000000000E+00 -0.00000000000E+00 -0.55682619711E+02  0.55682619711E+02  0.00000000000E+00 0. -1.
         25    2    1    2    0    0  0.49180264903E+01 -0.11062630966E+02  0.14896368240E+03  0.19489738316E+03  0.12509293546E+03 0.  0.
          5    1    3    3  502    0  0.43977217628E+02  0.41055735904E+02  0.75532363814E+02  0.96654950749E+02  0.41800000000E+01 0. -1.
         -5    1    3    3    0  502 -0.39059191137E+02 -0.52118366871E+02  0.73431318581E+02  0.98242432411E+02  0.41800000000E+01 0. -1.
        -11    1    1    2    0    0  0.33765604893E+02 -0.31866364151E+01  0.40605886671E+02  0.52906604104E+02  0.00000000000E+00 0.  1.
         11    1    1    2    0    0 -0.38683631383E+02  0.14249267381E+02 -0.10572198775E+02  0.42558622450E+02  0.00000000000E+00 0. -1.
</event>
<event>
 7    1  0.2648915E-009  0.8160118E+02  0.7561462E-02  0.1324568E+00
          2   -1    0    0  501    0  0.00000000000E+00  0.00000000000E+00  0.57460019310E+03  0.57460019310E+03  0.00000000000E+00 0. -1.
         -2   -1    0    0    0  501 -0.00000000000E+00 -0.00000000000E+00 -0.31899839885E+02  0.31899839885E+02  0.00000000000E+00 0.  1.
         25    2    1    2    0    0  0.22546406007E+02 -0.61938179922E+02  0.40660480585E+03  0.43048617729E+03  0.12508477984E+03 0.  0.
          5    1    3    3  502    0  0.25387908671E+02 -0.32183273350E+02  0.39653420402E+03  0.39866923175E+03  0.41800000000E+01 0.  1.
         -5    1    3    3    0  502 -0.28415026641E+01 -0.29754906572E+02  0.10070601831E+02  0.31816945544E+02  0.41800000000E+01 0.  1.
        -11    1    1    2    0    0  0.76342983036E+01  0.61151426255E+02  0.13183014287E+03  0.14552307725E+03  0.00000000000E+00 0. -1.
         11    1    1    2    0    0 -0.30180704311E+02  0.78675366733E+00  0.42654044947E+01  0.30490778434E+02  0.00000000000E+00 0.  1.
</event>
<event>
 7    1  0.2648915E-009  0.6155153E+02  0.7561462E-02  0.1391434E+00
          1   -1    0    0  501    0  0.00000000000E+00  0.00000000000E+00  0.85789453712E+02  0.85789453712E+02  0.00000000000E+00 0. -1.
         -1   -1    0    0    0  501 -0.00000000000E+00 -0.00000000000E+00 -0.17052206166E+03  0.17052206166E+03  0.00000000000E+00 0.  1.
         25    2    1    2    0    0  0.34762834937E+02  0.46786298555E+01 -0.88492677505E+02  0.15718878464E+03  0.12508803209E+03 0.  0.
          5    1    3    3  502    0 -0.54392210829E+01 -0.28663914714E+02  0.20740103422E+02  0.36039276112E+02  0.41800000000E+01 0. -1.
         -5    1    3    3    0  502  0.40202056020E+02  0.33342544569E+02 -0.10923278093E+03  0.12114950852E+03  0.41800000000E+01 0. -1.
        -11    1    1    2    0    0 -0.60901035881E+01 -0.10346283573E+02  0.46120598047E+02  0.47657575575E+02  0.00000000000E+00 0.  1.
         11    1    1    2    0    0 -0.28672731349E+02  0.56676537176E+01 -0.42360528489E+02  0.51465155159E+02  0.00000000000E+00 0. -1.
</event>
<event>
 7    1  0.2648915E-009  0.1106296E+03  0.7561462E-02  0.1259408E+00
         -2   -1    0    0    0  501 -0.00000000000E+00  0.00000000000E+00  0.24732626372E+02  0.24732626372E+02  0.00000000000E+00 0. -1.
          2   -1    0    0  501    0  0.00000000000E+00 -0.00000000000E+00 -0.72608044298E+03  0.72608044298E+03  0.00000000000E+00 0.  1.
         25    2    1    2    0    0  0.31603641107E+02 -0.63373683390E+02 -0.48568523927E+03  0.50651011620E+03  0.12508929726E+03 0.  0.
          5    1    3    3  502    0 -0.48061295317E+00  0.20768500748E+02 -0.29315351952E+03  0.29391839006E+03  0.41800000000E+01 0.  1.
         -5    1    3    3    0  502  0.32084254060E+02 -0.84142184138E+02 -0.19253171975E+03  0.21259172614E+03  0.41800000000E+01 0.  1.
        -11    1    1    2    0    0  0.27973194170E+02  0.32290770839E+02 -0.51462983143E+02  0.66885215911E+02  0.00000000000E+00 0.  1.
         11    1    1    2    0    0 -0.59576835277E+02  0.31082912551E+02 -0.16419959420E+03  0.17741773724E+03  0.00000000000E+00 0. -1.
</event>
<event>
 7    1  0.2944477E-009  0.1028638E+03  0.7561462E-02  0.1274387E+00
          1   -1    0    0  501    0  0.00000000000E+00  0.00000000000E+00  0.11428053900E+04  0.11428053900E+04  0.00000000000E+00 0. -1.
         -1   -1    0    0    0  501 -0.00000000000E+00 -0.00000000000E+00 -0.17640659648E+02  0.17640659648E+02  0.00000000000E+00 0.  1.
         25    2    1    2    0    0  0.13350575029E+02 -0.87958316341E+02  0.70944882335E+03  0.72586512056E+03  0.12509051531E+03 0.  0.
          5    1    3    3  502    0  0.32961050551E+01 -0.60735212375E+02  0.11053678507E+03  0.12623582528E+03  0.41800000000E+01 0.  1.
         -5    1    3    3    0  502  0.10054469973E+02 -0.27223103966E+02  0.59891203828E+03  0.59962929528E+03  0.41800000000E+01 0.  1.
        -11    1    1    2    0    0  0.29308855917E+02  0.21035007625E+02  0.59100704400E+02  0.69241417096E+02  0.00000000000E+00 0. -1.
         11    1    1    2    0    0 -0.42659430945E+02  0.66923308716E+02  0.35661520264E+03  0.36533951204E+03  0.00000000000E+00 0.  1.
</event>
<event>
 7    1  0.2648915E-009  0.8909833E+02  0.7561462E-02  0.1305050E+00
          1   -1    0    0  501    0  0.00000000000E+00  0.00000000000E+00  0.12760806673E+03  0.12760806673E+03  0.00000000000E+00 0. -1.
         -1   -1    0    0    0  501 -0.00000000000E+00 -0.00000000000E+00 -0.14832732632E+03  0.14832732632E+03  0.00000000000E+00 0.  1.
         25    2    1    2    0    0 -0.98993357676E+01  0.78028901401E+02 -0.71207133627E+01  0.14793751814E+03  0.12509315893E+03 0.  0.
          5    1    3    3  502    0  0.30797522651E+01  0.63672509610E+02  0.54025547209E+02  0.83665437937E+02  0.41800000000E+01 0.  1.
         -5    1    3    3    0  502 -0.12979088033E+02  0.14356391791E+02 -0.61146260571E+02  0.64272080200E+02  0.41800000000E+01 0.  1.
        -11    1    1    2    0    0 -0.11724927765E+02 -0.70722281326E+02 -0.48315600094E+02  0.86449477844E+02  0.00000000000E+00 0.  1.
         11    1    1    2    0    0  0.21624263532E+02 -0.73066200753E+01  0.34717053860E+02  0.41548397068E+02  0.00000000000E+00 0. -1.
</event>
<event>
 7    1  0.2648915E-009  0.1005529E+03  0.7561462E-02  0.1279137E+00
         -1   -1    0    0    0  501 -0.00000000000E+00  0.00000000000E+00  0.16445019119E+03  0.16445019119E+03  0.00000000000E+00 0.  1.
          1   -1    0    0  501    0  0.00000000000E+00 -0.00000000000E+00 -0.84553931755E+02  0.84553931755E+02  0.00000000000E+00 0. -1.
         25    2    1    2    0    0 -0.49919124156E+01 -0.41569416936E+02  0.31774670633E+02  0.13568989360E+03  0.12509669027E+03 0.  0.
          5    1    3    3  502    0 -0.47006630063E+02 -0.34963949252E+02  0.60403915619E+02  0.84250854235E+02  0.41800000000E+01 0.  1.
         -5    1    3    3    0  502  0.42014717647E+02 -0.66054676848E+01 -0.28629244986E+02  0.51439039365E+02  0.41800000000E+01 0.  1.
        -11    1    1    2    0    0 -0.30151481940E+02  0.54422752786E+02  0.42801849112E+02  0.75517853329E+02  0.00000000000E+00 0. -1.
         11    1    1    2    0    0  0.35143394356E+02 -0.12853335850E+02  0.53197396860E+01  0.37796376012E+02  0.00000000000E+00 0.  1.
</event>
<event>
 7    1  0.2648915E-009  0.1001620E+03  0.7561462E-02  0.1279956E+00
          1   -1    0    0  501    0  0.00000000000E+00  0.00000000000E+00  0.12954393045E+04  0.12954393045E+04  0.00000000000E+00 0. -1.
         -1   -1    0    0    0  501 -0.00000000000E+00 -0.00000000000E+00 -0.16314052147E+02  0.16314052147E+02  0.00000000000E+00 0.  1.
         25    2    1    2    0    0  0.62780139182E+02 -0.39909198364E+02  0.94510453538E+03  0.95624524950E+03  0.12509318293E+03 0.  0.
          5    1    3    3  502    0  0.76741056505E+02 -0.82038590071E+01  0.87004296793E+03  0.87346936495E+03  0.41800000000E+01 0. -1.
         -5    1    3    3    0  502 -0.13960917323E+02 -0.31705339357E+02  0.75061567448E+02  0.82775884556E+02  0.41800000000E+01 0. -1.
        -11    1    1    2    0    0 -0.69757381495E+02  0.29802192690E+02  0.33471881066E+03  0.34320685478E+03  0.00000000000E+00 0. -1.
         11    1    1    2    0    0  0.69772423122E+01  0.10107005675E+02 -0.69809371633E+00  0.12301252328E+02  0.00000000000E+00 0.  1.
</event>
<event>
 7    1  0.2648915E-009  0.1340096E+03  0.7561462E-02  0.1221625E+00
          3   -1    0    0  501    0  0.00000000000E+00  0.00000000000E+00  0.49345806778E+02  0.49345806778E+02  0.00000000000E+00 0. -1.
         -3   -1    0    0    0  501 -0.00000000000E+00 -0.00000000000E+00 -0.50215030476E+03  0.50215030476E+03  0.00000000000E+00 0.  1.
         25    2    1    2    0    0 -0.50173365566E+02 -0.89324603584E+02 -0.15458306054E+03  0.22368900542E+03  0.12507836392E+03 0.  0.
          5    1    3    3  502    0 -0.77541355404E+02 -0.18941836402E+02 -0.48802478315E+02  0.93651530975E+02  0.41800000000E+01 0. -1.
         -5    1    3    3    0  502  0.27367989838E+02 -0.70382767183E+02 -0.10578058222E+03  0.13003747444E+03  0.41800000000E+01 0. -1.
        -11    1    1    2    0    0  0.10541260237E+02  0.65226761280E+02 -0.25827721785E+03  0.26659476704E+03  0.00000000000E+00 0.  1.
         11    1    1    2    0    0  0.39632105329E+02  0.24097842304E+02 -0.39944219597E+02  0.61212339081E+02  0.00000000000E+00 0. -1.
</event>
<event>
 7    1  0.2648915E-009  0.1722033E+03  0.7561462E-02  0.1175569E+00
         -3   -1    0    0    0  501 -0.00000000000E+00  0.00000000000E+00  0.58643006533E+02  0.58643006533E+02  0.00000000000E+00 0.  1.
          3   -1    0    0  501    0  0.00000000000E+00 -0.00000000000E+00 -0.68253764642E+03  0.68253764642E+03  0.00000000000E+00 0. -1.
         25    2    1    2    0    0  0.14112989098E+03 -0.70300735797E+02 -0.42416050046E+03  0.46948596386E+03  0.12508037630E+03 0.  0.
          5    1    3    3  502    0  0.71487190580E+02  0.13822848893E+01 -0.65221504974E+02  0.96869222355E+02  0.41800000000E+01 0.  1.
         -5    1    3    3    0  502  0.69642700402E+02 -0.71683020686E+02 -0.35893899548E+03  0.37261674151E+03  0.41800000000E+01 0.  1.
        -11    1    1    2    0    0 -0.11101141224E+03  0.18085605757E+02 -0.81229584208E+02  0.13874029023E+03  0.00000000000E+00 0.  1.
         11    1    1    2    0    0 -0.30118478739E+02  0.52215130039E+02 -0.11850455522E+03  0.13295439885E+03  0.00000000000E+00 0. -1.
</event>
<event>
 7    1  0.3173060E-009  0.1329728E+03  0.7561462E-02  0.1223110E+00
          2   -1    0    0  501    0  0.00000000000E+00  0.00000000000E+00  0.57168134508E+03  0.57168134508E+03  0.00000000000E+00 0. -1.
         -2   -1    0    0    0  501 -0.00000000000E+00 -0.00000000000E+00 -0.40819012627E+02  0.40819012627E+02  0.00000000000E+00 0.  1.
         25    2    1    2    0    0 -0.66405389827E+02  0.84074894944E+02  0.26383073888E+03  0.31101995217E+03  0.12509391717E+03 0.  0.
          5    1    3    3  502    0 -0.73946868285E+02  0.10462552568E+03  0.25783281414E+03  0.28794074460E+03  0.41800000000E+01 0.  1.
         -5    1    3    3    0  502  0.75414784579E+01 -0.20550630739E+02  0.59979247419E+01  0.23079207575E+02  0.41800000000E+01 0.  1.
        -11    1    1    2    0    0  0.47285196501E+02 -0.25223370993E+02  0.41979906147E+02  0.68076580205E+02  0.00000000000E+00 0.  1.
         11    1    1    2    0    0  0.19120193327E+02 -0.58851523950E+02  0.22505168742E+03  0.23340382533E+03  0.00000000000E+00 0. -1.
</event>
<event>
 7    1  0.2648915E-009  0.8910199E+02  0.7561462E-02  0.1305041E+00
         -1   -1    0    0    0  501 -0.00000000000E+00  0.00000000000E+00  0.14168838713E+02  0.14168838713E+02  0.00000000000E+00 0.  1.
          1   -1    0    0  501    0  0.00000000000E+00 -0.00000000000E+00 -0.11932025638E+04  0.11932025638E+04  0.00000000000E+00 0. -1.
         25    2    1    2    0    0 -0.34644371619E+02 -0.25600014837E+02 -0.91048268969E+03  0.92004373268E+03  0.12508456566E+03 0.  0.
          5    1    3    3  502    0 -0.50403560984E+02 -0.65063295882E+01 -0.13746467217E+03  0.14661807453E+03  0.41800000000E+01 0. -1.
         -5    1    3    3    0  502  0.15759189365E+02 -0.19093685248E+02 -0.77301801752E+03  0.77342565815E+03  0.41800000000E+01 0. -1.
        -11    1    1    2    0    0  0.61869821090E+02  0.37546953126E+02 -0.19480499015E+03  0.20781393754E+03  0.00000000000E+00 0.  1.
         11    1    1    2    0    0 -0.27225449471E+02 -0.11946938289E+02 -0.73746045247E+02  0.79513732292E+02  0.00000000000E+00 0. -1.
</event>
<event>
 7    1  0.2648915E-009  0.1183389E+03  0.7561462E-02  0.1245863E+00
         -2   -1    0    0    0  501 -0.00000000000E+00  0.00000000000E+00  0.16449805139E+03  0.16449805139E+03  0.00000000000E+00 0.  1.
          2   -1    0    0  501    0  0.00000000000E+00 -0.00000000000E+00 -0.14282625760E+03  0.14282625760E+03  0.00000000000E+00 0. -1.
         25    2    1    2    0    0 -0.10781519230E+02 -0.71893406577E+02 -0.67412564989E+02  0.15961410938E+03  0.12508919590E+03 0.  0.
          5    1    3    3  502    0 -0.57028000842E+02 -0.52112000455E+02 -0.75961113795E+02  0.10842239935E+03  0.41800000000E+01 0. -1.
         -5    1    3    3    0  502  0.46246481612E+02 -0.19781406122E+02  0.85485488058E+01  0.51191710036E+02  0.41800000000E+01 0. -1.
        -11    1    1    2    0    0 -0.35301277199E+02  0.36079952092E+02  0.13567002933E+02  0.52268601315E+02  0.00000000000E+00 0.  1.
         11    1    1    2    0    0  0.46082796429E+02  0.35813454485E+02  0.75517355846E+02  0.95441598283E+02  0.00000000000E+00 0. -1.
</event>
<event>
 7    1  0.2648915E-009  0.1435659E+03  0.7561462E-02  0.1208610E+00
         -1   -1    0    0    0  501 -0.00000000000E+00  0.00000000000E+00  0.85033283534E+02  0.85033283534E+02  0.00000000000E+00 0.  1.
          1   -1    0    0  501    0  0.00000000000E+00 -0.00000000000E+00 -0.26584662423E+03  0.26584662423E+03  0.00000000000E+00 0. -1.
         25    2    1    2    0    0 -0.82108114001E+01  0.97404581382E+02 -0.13681850993E+03  0.20957641306E+03  0.12509155988E+03 0.  0.
          5    1    3    3  502    0  0.55383393632E+02  0.21290325303E+02 -0.51302877668E+02  0.78549703365E+02  0.41800000000E+01 0.  1.
         -5    1    3    3    0  502 -0.63594205032E+02  0.76114256079E+02 -0.85515632261E+02  0.13102670969E+03  0.41800000000E+01 0.  1.
        -11    1    1    2    0    0  0.43982708945E+02 -0.72471018980E+02 -0.48164607276E+02  0.97500547035E+02  0.00000000000E+00 0. -1.
         11    1    1    2    0    0 -0.35771897545E+02 -0.24933562402E+02  0.41697765133E+01  0.43802947666E+02  0.00000000000E+00 0.  1.
</event>
<event>
 7    1  0.2648915E-009  0.8661704E+02  0.7561462E-02  0.1311257E+00
         -2   -1    0    0    0  501 -0.00000000000E+00  0.00000000000E+00  0.91175693282E+02  0.91175693282E+02  0.00000000000E+00 0. -1.
          2   -1    0    0  501    0  0.00000000000E+00 -0.00000000000E+00 -0.23115921353E+03  0.23115921353E+03  0.00000000000E+00 0.  1.
         25    2    1    2    0    0  0.12289925853E+02 -0.84750574257E+02 -0.26490704627E+02  0.15389244581E+03  0.12508966916E+03 0.  0.
          5    1    3    3  502    0  0.66781625008E+01 -0.42114195515E+02 -0.76575259826E+02  0.87746487883E+02  0.41800000000E+01 0.  1.
         -5    1    3    3    0  502  0.56117633525E+01 -0.42636378742E+02  0.50084555199E+02  0.66145957924E+02  0.41800000000E+01 0.  1.
        -11    1    1    2    0    0 -0.15051529049E+02  0.47453636671E+02 -0.12051243684E+03  0.13039035084E+03  0.00000000000E+00 0.  1.
         11    1    1    2    0    0  0.27616031961E+01  0.37296937585E+02  0.70196212221E+01  0.38052110159E+02  0.00000000000E+00 0. -1.
</event>
<event>
 7    1  0.2648915E-009  0.1261898E+03  0.7561462E-02  0.1233221E+00
         -1   -1    0    0    0  501 -0.00000000000E+00  0.00000000000E+00  0.43930652812E+02  0.43930652812E+02  0.00000000000E+00 0.  1.
          1   -1    0    0  501    0  0.00000000000E+00 -0.00000000000E+00 -0.70151841633E+03  0.70151841633E+03  0.00000000000E+00 0. -1.
         25    2    1    2    0    0 -0.11406699224E+03 -0.12066340878E+02 -0.50937332445E+03  0.53690371416E+03  0.12509012477E+03 0.  0.
          5    1    3    3  502    0 -0.85517994155E+02 -0.15846885682E+02 -0.49816851018E+03  0.50572105754E+03  0.41800000000E+01 0.  1.
         -5    1    3    3    0  502 -0.28548998085E+02  0.37805448035E+01 -0.11204814271E+02  0.31182656615E+02  0.41800000000E+01 0.  1.
        -11    1    1    2    0    0  0.11328662124E+03  0.30844833657E+02 -0.91668180398E+02  0.14895743557E+03  0.00000000000E+00 0.  1.
         11    1    1    2    0    0  0.78037100097E+00 -0.18778492779E+02 -0.56546258670E+02  0.59587919409E+02  0.00000000000E+00 0. -1.
</event>
<event>
 7    1  0.2648915E-009  0.1094914E+03  0.7561462E-02  0.1261515E+00
         -1   -1    0    0    0  501 -0.00000000000E+00  0.00000000000E+00  0.26347024241E+02  0.26347024241E+02  0.00000000000E+00 0.  1.
          1   -1    0    0  501    0  0.00000000000E+00 -0.00000000000E+00 -0.67475351684E+03  0.67475351684E+03  0.00000000000E+00 0. -1.
         25    2    1    2    0    0  0.44760121479E+02  0.19926790356E+02 -0.19379941569E+03  0.23580981763E+03  0.12509001207E+03 0.  0.
          5    1    3    3  502    0 -0.36227577230E+02 -0.10301854646E+00 -0.11622551791E+03  0.12181252554E+03  0.41800000000E+01 0. -1.
         -5    1    3    3    0  502  0.80987698709E+02  0.20029808903E+02 -0.77573897776E+02  0.11399729209E+03  0.41800000000E+01 0. -1.
        -11    1    1    2    0    0 -0.64138961825E+02  0.83730851122E+01 -0.28454873857E+03  0.29180798412E+03  0.00000000000E+00 0. -1.
         11    1    1    2    0    0  0.19378840346E+02 -0.28299875468E+02 -0.17005833835E+03  0.17348273933E+03  0.00000000000E+00 0.  1.
</event>
<event>
 7    1  0.2648915E-009  0.9678301E+02  0.7561462E-02  0.1287210E+00
         -1   -1    0    0    0  501 -0.00000000000E+00  0.00000000000E+00  0.45459199599E+02  0.45459199599E+02  0.00000000000E+00 0.  1.
          1   -1    0    0  501    0  0.00000000000E+00 -0.00000000000E+00 -0.39691534618E+03  0.39691534618E+03  0.00000000000E+00 0. -1.
         25    2    1    2    0    0 -0.16476400685E+02  0.60425381841E+02 -0.11418904438E+03  0.18058134826E+03  0.12509111452E+03 0.  0.
          5    1    3    3  502    0  0.58352108417E+01  0.71226462415E+02 -0.86713573244E+01  0.72110494878E+02  0.41800000000E+01 0. -1.
         -5    1    3    3    0  502 -0.22311611527E+02 -0.10801080574E+02 -0.10551768706E+03  0.10847085338E+03  0.41800000000E+01 0. -1.
        -11    1    1    2    0    0  0.30174827442E+00  0.17374362928E+02 -0.79704187472E+01  0.19117717284E+02  0.00000000000E+00 0. -1.
         11    1    1    2    0    0  0.16174652411E+02 -0.77799744769E+02 -0.22929668345E+03  0.24267548024E+03  0.00000000000E+00 0.  1.
</event>
<event>
 7    1  0.2648915E-009  0.1614759E+03  0.7561462E-02  0.1187040E+00
         -1   -1    0    0    0  501 -0.00000000000E+00  0.00000000000E+00  0.34836492454E+03  0.34836492454E+03  0.00000000000E+00 0.  1.
          1   -1    0    0  501    0  0.00000000000E+00 -0.00000000000E+00 -0.82281326806E+02  0.82281326806E+02  0.00000000000E+00 0. -1.
         25    2    1    2    0    0 -0.25097928063E+02 -0.12722572732E+03  0.14199678080E+03  0.22940482828E+03  0.12508875966E+03 0.  0.
          5    1    3    3  502    0 -0.61967516367E+02 -0.33675453336E+02  0.24683931845E+02  0.74838346677E+02  0.41800000000E+01 0. -1.
         -5    1    3    3    0  502  0.36869588304E+02 -0.93550273985E+02  0.11731284896E+03  0.15456648160E+03  0.41800000000E+01 0. -1.
        -11    1    1    2    0    0  0.53812017483E+02  0.84726021200E+02  0.52773107771E+02  0.11339855730E+03  0.00000000000E+00 0. -1.
         11    1    1    2    0    0 -0.28714089420E+02  0.42499706121E+02  0.71313709158E+02  0.87842865763E+02  0.00000000000E+00 0.  1.
</event>
<event>
 7    1  0.2648915E-009  0.6280898E+02  0.7561462E-02  0.1386408E+00
          1   -1    0    0  501    0  0.00000000000E+00  0.00000000000E+00  0.29456940846E+03  0.29456940846E+03  0.00000000000E+00 0. -1.
         -1   -1    0    0    0  501 -0.00000000000E+00 -0.00000000000E+00 -0.51016115674E+02  0.51016115674E+02  0.00000000000E+00 0.  1.
         25    2    1    2    0    0 -0.25262943678E+02  0.44729636463E+02  0.10199924239E+03  0.16938152887E+03  0.12508916888E+03 0.  0.
          5    1    3    3  502    0 -0.20661546756E+02  0.19375670482E+02  0.12881433740E+03  0.13195803136E+03  0.41800000000E+01 0.  1.
         -5    1    3    3    0  502 -0.46013969222E+01  0.25353965982E+02 -0.26815095014E+02  0.37423497501E+02  0.41800000000E+01 0.  1.
        -11    1    1    2    0    0  0.35172300391E+02 -0.48811807873E+02  0.15060415590E+03  0.16217674025E+03  0.00000000000E+00 0. -1.
         11    1    1    2    0    0 -0.99093567130E+01  0.40821714100E+01 -0.90501055023E+01  0.14027255023E+02  0.00000000000E+00 0.  1.
</event>
<event>
 7    1  0.2648915E-009  0.1312134E+03  0.7561462E-02  0.1225666E+00
          1   -1    0    0  501    0  0.00000000000E+00  0.00000000000E+00  0.49523986529E+03  0.49523986529E+03  0.00000000000E+00 0. -1.
         -1   -1    0    0    0  501 -0.00000000000E+00 -0.00000000000E+00 -0.55495744512E+02  0.55495744512E+02  0.00000000000E+00 0.  1.
         25    2    1    2    0    0 -0.61008025816E+02  0.74759876624E+02  0.36454970655E+03  0.39730974855E+03  0.12509008505E+03 0.  0.
          5    1    3    3  502    0 -0.59772079737E+01 -0.21615001851E+02  0.85051906488E+01  0.24346375257E+02  0.41800000000E+01 0. -1.
         -5    1    3    3    0  502 -0.55030817842E+02  0.96374878474E+02  0.35604451590E+03  0.37296337329E+03  0.41800000000E+01 0. -1.
        -11    1    1    2    0    0  0.67634279165E+02 -0.16101521304E+02  0.61511213634E+02  0.92829327851E+02  0.00000000000E+00 0. -1.
         11    1    1    2    0    0 -0.66262533491E+01 -0.58658355320E+02  0.13683200596E+02  0.60596533406E+02  0.00000000000E+00 0.  1.
</event>
<event>
 7    1  0.2648915E-009  0.9257054E+02  0.7561462E-02  0.1296744E+00
         -2   -1    0    0    0  501 -0.00000000000E+00  0.00000000000E+00  0.10909587044E+03  0.10909587044E+03  0.00000000000E+00 0.  1.
          2   -1    0    0  501    0  0.00000000000E+00 -0.00000000000E+00 -0.13278249870E+03  0.13278249870E+03  0.00000000000E+00 0. -1.
         25    2    1    2    0    0 -0.56611760902E+01 -0.14278379675E+02 -0.64525226857E+02  0.14158515539E+03  0.12508769038E+03 0.  0.
          5    1    3    3  502    0 -0.41638813282E+02  0.28071259382E+02  0.70424183274E+01  0.50880786459E+02  0.41800000000E+01 0.  1.
         -5    1    3    3    0  502  0.35977637191E+02 -0.42349639057E+02 -0.71567645184E+02  0.90704368932E+02  0.41800000000E+01 0.  1.
        -11    1    1    2    0    0  0.38114445445E+02 -0.89050465860E+01  0.45636356044E+02  0.60122273737E+02  0.00000000000E+00 0.  1.
         11    1    1    2    0    0 -0.32453269355E+02  0.23183426261E+02 -0.47977574384E+01  0.40170940012E+02  0.00000000000E+00 0. -1.
</event>
<event>
 7    1  0.2648915E-009  0.1078149E+03  0.7561462E-02  0.1264671E+00
          4   -1    0    0  501    0  0.00000000000E+00  0.00000000000E+00  0.46197378265E+03  0.46197378265E+03  0.00000000000E+00 0. -1.
         -4   -1    0    0    0  501 -0.00000000000E+00 -0.00000000000E+00 -0.29444442608E+02  0.29444442608E+02  0.00000000000E+00 0.  1.
         25    2    1    2    0    0  0.18672038371E+02  0.51491996440E+01  0.32314702026E+03  0.34705399839E+03  0.12508925541E+03 0.  0.
          5    1    3    3  502    0  0.63736350501E+02  0.30481978915E+02  0.22743742181E+03  0.23819472423E+03  0.41800000000E+01 0. -1.
         -5    1    3    3    0  502 -0.45064312130E+02 -0.25332779271E+02  0.95709598453E+02  0.10885927415E+03  0.41800000000E+01 0. -1.
        -11    1    1    2    0    0  0.37078479028E+02 -0.29741439459E+01  0.55410362323E+02  0.66738050556E+02  0.00000000000E+00 0. -1.
         11    1    1    2    0    0 -0.55750517399E+02 -0.21750556980E+01  0.53971957461E+02  0.77626176318E+02  0.00000000000E+00 0.  1.
</event>
<event>
 7    1  0.2648915E-009  0.1755431E+03  0.7561462E-02  0.1172187E+00
         -2   -1    0    0    0  501 -0.00000000000E+00  0.00000000000E+00  0.45617490138E+03  0.45617490138E+03  0.00000000000E+00 0.  1.
          2   -1    0    0  501    0  0.00000000000E+00 -0.00000000000E+00 -0.87558156844E+02  0.87558156844E+02  0.00000000000E+00 0. -1.
         25    2    1    2    0    0 -0.14060265578E+03  0.14578202437E+02  0.71163470771E+02  0.20172670170E+03  0.12509113400E+03 0.  0.
          5    1    3    3  502    0  0.20727932099E+02  0.22080788952E+01  0.26197253043E+02  0.33738572117E+02  0.41800000000E+01 0.  1.
         -5    1    3    3    0  502 -0.16133058788E+03  0.12370123542E+02  0.44966217729E+02  0.16798812958E+03  0.41800000000E+01 0.  1.
        -11    1    1    2    0    0  0.11345738699E+03 -0.49459071985E+02  0.20363594733E+03  0.23829892469E+03  0.00000000000E+00 0. -1.
         11    1    1    2    0    0  0.27145268797E+02  0.34880869548E+02  0.93817326434E+02  0.10370743183E+03  0.00000000000E+00 0.  1.
</event>
<event>
 7    1  0.2648915E-009  0.1079224E+03  0.7561462E-02  0.1264466E+00
          1   -1    0    0  501    0  0.00000000000E+00  0.00000000000E+00  0.33078807348E+03  0.33078807348E+03  0.00000000000E+00 0. -1.
         -1   -1    0    0    0  501 -0.00000000000E+00 -0.00000000000E+00 -0.86993044234E+02  0.86993044234E+02  0.00000000000E+00 0.  1.
         25    2    1    2    0    0  0.74221057448E+02  0.63721332005E+02  0.24811774689E+02  0.16072607427E+03  0.12509225901E+03 0.  0.
          5    1    3    3  502    0  0.57409026368E+02  0.64699347820E+02 -0.38725061835E+02  0.94862557054E+02  0.41800000000E+01 0. -1.
         -5    1    3    3    0  502  0.16812031080E+02 -0.97801581520E+00  0.63536836524E+02  0.65863517211E+02  0.41800000000E+01 0. -1.
        -11    1    1    2    0    0 -0.35324384752E+02 -0.63881925700E+02  0.20167746246E+03  0.21448196067E+03  0.00000000000E+00 0. -1.
         11    1    1    2    0    0 -0.38896672696E+02  0.16059369546E+00  0.17305792099E+02  0.42573082779E+02  0.00000000000E+00 0.  1.
</event>
<event>
 7    1  0.2648915E-009  0.8116239E+02  0.7561462E-02  0.1325785E+00
         -1   -1    0    0    0  501 -0.00000000000E+00  0.00000000000E+00  0.31218758344E+02  0.31218758344E+02  0.00000000000E+00 0.  1.
          1   -1    0    0  501    0  0.00000000000E+00 -0.00000000000E+00 -0.79418091501E+03  0.79418091501E+03  0.00000000000E+00 0. -1.
         25    2    1    2    0    0 -0.36132289802E+02  0.51150258202E+02 -0.65999753022E+03  0.67466015279E+03  0.12509072942E+03 0.  0.
          5    1    3    3  502    0 -0.21276079718E+02 -0.52901485439E+00 -0.12729311710E+02  0.25148741549E+02  0.41800000000E+01 0.  1.
         -5    1    3    3    0  502 -0.14856210085E+02  0.51679273056E+02 -0.64726821851E+03  0.64951141124E+03  0.41800000000E+01 0.  1.
        -11    1    1    2    0    0  0.39690601997E+02 -0.45334734818E+01 -0.26158501705E+01  0.40034222120E+02  0.00000000000E+00 0.  1.
         11    1    1    2    0    0 -0.35583121945E+01 -0.46616784720E+02 -0.10034877628E+03  0.11070529844E+03  0.00000000000E+00 0. -1.
</event>
<event>
 7    1  0.2648915E-009  0.7871216E+02  0.7561462E-02  0.1332746E+00
          1   -1    0    0  501    0  0.00000000000E+00  0.00000000000E+00  0.38262536254E+02  0.38262536254E+02  0.00000000000E+00 0. -1.
         -1   -1    0    0    0  501 -0.00000000000E+00 -0.00000000000E+00 -0.34061109420E+03  0.34061109420E+03  0.00000000000E+00 0.  1.
         25    2    1    2    0    0 -0.16255310353E+02  0.25226164671E+02 -0.20626306477E+03  0.24309057363E+03  0.12509188863E+03 0.  0.
          5    1    3    3  502    0 -0.34400237493E+02  0.59214888966E+02 -0.18823270709E+03  0.20034670907E+03  0.41800000000E+01 0. -1.
         -5    1    3    3    0  502  0.18144927139E+02 -0.33988724295E+02 -0.18030357679E+02  0.42743864567E+02  0.41800000000E+01 0. -1.
        -11    1    1    2    0    0  0.17228294851E+02  0.64298303866E+01 -0.10193160484E+03  0.10357706758E+03  0.00000000000E+00 0.  1.
         11    1    1    2    0    0 -0.97298449780E+00 -0.31655995058E+02  0.58461116609E+01  0.32205989248E+02  0.00000000000E+00 0. -1.
</event>
<event>
 7    1  0.2648915E-009  0.1293504E+03  0.7561462E-02  0.1228423E+00
          2   -1    0    0  501    0  0.00000000000E+00  0.00000000000E+00  0.17024628587E+03  0.17024628587E+03  0.00000000000E+00 0. -1.
         -2   -1    0    0    0  501 -0.00000000000E+00 -0.00000000000E+00 -0.20219177849E+03  0.20219177849E+03  0.00000000000E+00 0.  1.
         25    2    1    2    0    0  0.10457154185E+02  0.94037023122E+02  0.99688488423E+02  0.18584418366E+03  0.12509177464E+03 0.  0.
          5    1    3    3  502    0 -0.76188249156E+01 -0.19378411914E+02  0.60987982324E+02  0.64579994807E+02  0.41800000000E+01 0.  1.
         -5    1    3    3    0  502  0.18075979101E+02  0.11341543504E+03  0.38700506099E+02  0.12126418885E+03  0.41800000000E+01 0.  1.
        -11    1    1    2    0    0 -0.33194779327E+02 -0.88266712762E+01 -0.73035005354E+02  0.80708831657E+02  0.00000000000E+00 0.  1.
         11    1    1    2    0    0  0.22737625142E+02 -0.85210351846E+02 -0.58598975686E+02  0.10588504904E+03  0.00000000000E+00 0. -1.
</event>
<event>
 7    1  0.2648915E-009  0.1861950E+03  0.7561462E-02  0.1161939E+00
         -2   -1    0    0    0  501 -0.00000000000E+00  0.00000000000E+00  0.62021227032E+03  0.62021227032E+03  0.00000000000E+00 0.  1.
          2   -1    0    0  501    0  0.00000000000E+00 -0.00000000000E+00 -0.68853301098E+02  0.68853301098E+02  0.00000000000E+00 0. -1.
         25    2    1    2    0    0 -0.10374340742E+03  0.13803108541E+03  0.33814644536E+03  0.39975707534E+03  0.12508967043E+03 0.  0.
          5    1    3    3  502    0 -0.20574442376E+02  0.26152857873E+01 -0.48549212905E+01  0.21706912714E+02  0.41800000000E+01 0.  1.
         -5    1    3    3    0  502 -0.83168965040E+02  0.13541579962E+03  0.34300136665E+03  0.37805016262E+03  0.41800000000E+01 0.  1.
        -11    1    1    2    0    0  0.43307805931E+02 -0.19362977022E+01  0.27788951213E+02  0.51493117141E+02  0.00000000000E+00 0. -1.
         11    1    1    2    0    0  0.60435601485E+02 -0.13609478771E+03  0.18542357265E+03  0.23781537894E+03  0.00000000000E+00 0.  1.
</event>
<event>
 7    1  0.2648915E-009  0.9828294E+02  0.7561462E-02  0.1283949E+00
         -1   -1    0    0    0  501 -0.00000000000E+00  0.00000000000E+00  0.20129208393E+02  0.20129208393E+02  0.00000000000E+00 0.  1.
          1   -1    0    0  501    0  0.00000000000E+00 -0.00000000000E+00 -0.70106411656E+03  0.70106411656E+03  0.00000000000E+00 0. -1.
         25    2    1    2    0    0 -0.33440051041E+02  0.36238049104E+02 -0.38225061344E+03  0.40521000985E+03  0.12509271518E+03 0.  0.
          5    1    3    3  502    0 -0.45908625491E+02 -0.10785583494E+02 -0.48028141332E+02  0.67439643131E+02  0.41800000000E+01 0.  1.
         -5    1    3    3    0  502  0.12468574450E+02  0.47023632598E+02 -0.33422247211E+03  0.33777036672E+03  0.41800000000E+01 0.  1.
        -11    1    1    2    0    0  0.32898804656E+02  0.23641620762E+02 -0.86606825660E+02  0.95613805651E+02  0.00000000000E+00 0.  1.
         11    1    1    2    0    0  0.54124638511E+00 -0.59879669866E+02 -0.21207746907E+03  0.22036950945E+03  0.00000000000E+00 0. -1.
</event>
<event>
 7    1  0.2648915E-009  0.7567230E+02  0.7561462E-02  0.1341802E+00
          2   -1    0    0  501    0  0.00000000000E+00  0.00000000000E+00  0.26129535468E+03  0.26129535468E+03  0.00000000000E+00 0. -1.
         -2   -1    0    0    0  501 -0.00000000000E+00 -0.00000000000E+00 -0.57168435821E+02  0.57168435821E+02  0.00000000000E+00 0.  1.
         25    2    1    2    0    0  0.40280821836E+02  0.33905137211E+02  0.14290549466E+03  0.19709180768E+03  0.12510434570E+03 0.  0.
          5    1    3    3  502    0  0.48169027821E+02  0.32329385956E+02  0.44423757206E+01  0.58332251281E+02  0.41800000000E+01 0. -1.
         -5    1    3    3    0  502 -0.78882059844E+01  0.15757512545E+01  0.13846311894E+03  0.13875955640E+03  0.41800000000E+01 0. -1.
        -11    1    1    2    0    0 -0.49984434374E+02 -0.46464570938E+02  0.11536139953E+02  0.69213311993E+02  0.00000000000E+00 0.  1.
         11    1    1    2    0    0  0.97036125374E+01  0.12559433727E+02  0.49685284240E+02  0.52158670821E+02  0.00000000000E+00 0. -1.
</event>
<event>
 7    1  0.2648915E-009  0.9399829E+02  0.7561462E-02  0.1293448E+00
          2   -1    0    0  501    0  0.00000000000E+00  0.00000000000E+00  0.27833290736E+03  0.27833290736E+03  0.00000000000E+00 0. -1.
         -2   -1    0    0    0  501 -0.00000000000E+00 -0.00000000000E+00 -0.63655976411E+02  0.63655976411E+02  0.00000000000E+00 0.  1.
         25    2    1    2    0    0  0.71118271800E+02 -0.31768233426E+02  0.95614852214E+02  0.17566060319E+03  0.12508964110E+03 0.  0.
          5    1    3    3  502    0  0.37422503947E+02 -0.40550041498E+02 -0.16856714478E+02  0.57847825284E+02  0.41800000000E+01 0.  1.
         -5    1    3    3    0  502  0.33695767853E+02  0.87818080720E+01  0.11247156669E+03  0.11781277791E+03  0.41800000000E+01 0.  1.
        -11    1    1    2    0    0 -0.62327100138E+01  0.32102037544E+02  0.23423855473E+01  0.32785275027E+02  0.00000000000E+00 0.  1.
         11    1    1    2    0    0 -0.64885561786E+02 -0.33380411776E+00  0.11671969318E+03  0.13354300555E+03  0.00000000000E+00 0. -1.
</event>
<event>
 7    1  0.2648915E-009  0.1371996E+03  0.7561462E-02  0.1217148E+00
         -1   -1    0    0    0  501 -0.00000000000E+00  0.00000000000E+00  0.88747298389E+02  0.88747298389E+02  0.00000000000E+00 0.  1.
          1   -1    0    0  501    0  0.00000000000E+00 -0.00000000000E+00 -0.31831387102E+03  0.31831387102E+03  0.00000000000E+00 0. -1.
         25    2    1    2    0    0 -0.11051533280E+03 -0.27661699113E+02 -0.51580212195E+02  0.17688028193E+03  0.12508919803E+03 0.  0.
          5    1    3    3  502    0 -0.69294649268E+02  0.13053498630E+02  0.29990202334E+02  0.76739995307E+02  0.41800000000E+01 0. -1.
         -5    1    3    3    0  502 -0.41220683529E+02 -0.40715197742E+02 -0.81570414529E+02  0.10014028662E+03  0.41800000000E+01 0. -1.
        -11    1    1    2    0    0  0.51881662583E+02 -0.32855497238E+02 -0.67970686971E+02  0.91603520120E+02  0.00000000000E+00 0. -1.
         11    1    1    2    0    0  0.58633670215E+02  0.60517196351E+02 -0.11001567347E+03  0.13857736736E+03  0.00000000000E+00 0.  1.
</event>
<event>
 7    1  0.2648915E-009  0.1115821E+03  0.7561462E-02  0.1257668E+00
          1   -1    0    0  501    0  0.00000000000E+00  0.00000000000E+00  0.70312977402E+02  0.70312977402E+02  0.00000000000E+00 0. -1.
         -1   -1    0    0    0  501 -0.00000000000E+00 -0.00000000000E+00 -0.34769260497E+03  0.34769260497E+03  0.00000000000E+00 0.  1.
         25    2    1    2    0    0  0.29623271250E+02 -0.85768488791E+02 -0.24541585273E+03  0.29001593781E+03  0.12508609654E+03 0.  0.
          5    1    3    3  502    0  0.18526046146E+02  0.29156678276E+00 -0.18067927809E+03  0.18167491112E+03  0.41800000000E+01 0.  1.
         -5    1    3    3    0  502  0.11097225104E+02 -0.86060055574E+02 -0.64736574637E+02  0.10834102670E+03  0.41800000000E+01 0.  1.
        -11    1    1    2    0    0  0.24666459858E+02  0.36049377785E+02  0.77215122239E+01  0.44357791104E+02  0.00000000000E+00 0.  1.
         11    1    1    2    0    0 -0.54289731108E+02  0.49719111006E+02 -0.39685287066E+02  0.83631853456E+02  0.00000000000E+00 0. -1.
</event>
<event>
 7    1  0.2648915E-009  0.8020901E+02  0.7561462E-02  0.1328459E+00
         -3   -1    0    0    0  501 -0.00000000000E+00  0.00000000000E+00  0.29297014687E+03  0.29297014687E+03  0.00000000000E+00 0.  1.
          3   -1    0    0  501    0  0.00000000000E+00 -0.00000000000E+00 -0.57300127810E+02  0.57300127810E+02  0.00000000000E+00 0. -1.
         25    2    1    2    0    0  0.65539648766E+02  0.22963288703E+02  0.13300091126E+03  0.19534484231E+03  0.12509039464E+03 0.  0.
          5    1    3    3  502    0  0.35685052179E+02 -0.53619016479E+01  0.14719550316E+03  0.15161187780E+03  0.41800000000E+01 0. -1.
         -5    1    3    3    0  502  0.29854596587E+02  0.28325190351E+02 -0.14194591899E+02  0.43732964512E+02  0.41800000000E+01 0. -1.
        -11    1    1    2    0    0 -0.42727397026E+01 -0.20997050730E+02 -0.12248559550E+02  0.24681159920E+02  0.00000000000E+00 0. -1.
         11    1    1    2    0    0 -0.61266909063E+02 -0.19662379731E+01  0.11491766735E+03  0.13024427245E+03  0.00000000000E+00 0.  1.
</event>
<event>
 7    1  0.2648915E-009  0.1106121E+03  0.7561462E-02  0.1259441E+00
         -2   -1    0    0    0  501 -0.00000000000E+00  0.00000000000E+00  0.30680992897E+02  0.30680992897E+02  0.00000000000E+00 0.  1.
          2   -1    0    0  501    0  0.00000000000E+00 -0.00000000000E+00 -0.41902679454E+03  0.41902679454E+03  0.00000000000E+00 0. -1.
         25    2    1    2    0    0 -0.24579629808E+02 -0.16803967903E+02 -0.23208532620E+03  0.26532558689E+03  0.12509011505E+03 0.  0.
          5    1    3    3  502    0  0.48451017343E+02 -0.15153238476E+02 -0.13086450972E+03  0.14042832343E+03  0.41800000000E+01 0. -1.
         -5    1    3    3    0  502 -0.73030647151E+02 -0.16507294270E+01 -0.10122081648E+03  0.12489726346E+03  0.41800000000E+01 0. -1.
        -11    1    1    2    0    0 -0.18262028174E+02 -0.29082632327E+02 -0.66552355652E+02  0.74890034176E+02  0.00000000000E+00 0. -1.
         11    1    1    2    0    0  0.42841657982E+02  0.45886600230E+02 -0.89708119790E+02  0.10949216637E+03  0.00000000000E+00 0.  1.
</event>
<event>
 7    1  0.2648915E-009  0.2069259E+03  0.7561462E-02  0.1144024E+00
         -2   -1    0    0    0  501 -0.00000000000E+00  0.00000000000E+00  0.41681238468E+02  0.41681238468E+02  0.00000000000E+00 0. -1.
          2   -1    0    0  501    0  0.00000000000E+00 -0.00000000000E+00 -0.11127151530E+04  0.11127151530E+04  0.00000000000E+00 0.  1.
         25    2    1    2    0    0  0.15768316834E+03  0.85898569041E+02 -0.67802023341E+03  0.71246193351E+03  0.12509206230E+03 0.  0.
          5    1    3    3  502    0  0.17398208487E+03  0.53067409049E+02 -0.56529756113E+03  0.59385580807E+03  0.41800000000E+01 0. -1.
         -5    1    3    3    0  502 -0.16298916531E+02  0.32831159993E+02 -0.11272267229E+03  0.11860612545E+03  0.41800000000E+01 0. -1.
        -11    1    1    2    0    0 -0.71242571257E+02  0.26230686259E+01 -0.20333284091E+03  0.21546839361E+03  0.00000000000E+00 0.  1.
         11    1    1    2    0    0 -0.86440597081E+02 -0.88521637667E+02 -0.18968084018E+03  0.22646606432E+03  0.00000000000E+00 0. -1.
</event>
<event>
 7    1  0.2648915E-009  0.1078026E+03  0.7561462E-02  0.1264694E+00
         -1   -1    0    0    0  501 -0.00000000000E+00  0.00000000000E+00  0.38769492293E+03  0.38769492293E+03  0.00000000000E+00 0.  1.
          1   -1    0    0  501    0  0.00000000000E+00 -0.00000000000E+00 -0.47307948663E+02  0.47307948663E+02  0.00000000000E+00 0. -1.
         25    2    1    2    0    0 -0.17917620535E+02  0.52187097509E+02  0.28002971605E+03  0.31162321911E+03  0.12509138479E+03 0.  0.
          5    1    3    3  502    0 -0.70827561679E+02  0.21085494936E+02  0.13231175866E+03  0.15160809830E+03  0.41800000000E+01 0. -1.
         -5    1    3    3    0  502  0.52909941144E+02  0.31101602573E+02  0.14771795739E+03  0.16001512081E+03  0.41800000000E+01 0. -1.
        -11    1    1    2    0    0 -0.92480231959E+01 -0.52090940031E+02  0.75566674362E+02  0.92245944304E+02  0.00000000000E+00 0.  1.
         11    1    1    2    0    0  0.27165643731E+02 -0.96157477867E-01 -0.15209416141E+02  0.31133708179E+02  0.00000000000E+00 0. -1.
</event>
<event>
 7    1  0.2648915E-009  0.6938338E+02  0.7561462E-02  0.1362203E+00
          1   -1    0    0  501    0  0.00000000000E+00  0.00000000000E+00  0.76837263416E+03  0.76837263416E+03  0.00000000000E+00 0. -1.
         -1   -1    0    0    0  501 -0.00000000000E+00 -0.00000000000E+00 -0.17598083953E+02  0.17598083953E+02  0.00000000000E+00 0.  1.
         25    2    1    2    0    0  0.17881564170E+02  0.33240934142E+02  0.37879175408E+03  0.40069330959E+03  0.12508886980E+03 0.  0.
          5    1    3    3  502    0 -0.15476827592E+01 -0.14423835765E+01  0.35319601737E+03  0.35322708684E+03  0.41800000000E+01 0.  1.
         -5    1    3    3    0  502  0.19429246929E+02  0.34683317718E+02  0.25595736717E+02  0.47466222751E+02  0.41800000000E+01 0.  1.
        -11    1    1    2    0    0  0.32976127410E+02 -0.27479920832E+02  0.10504511352E+03  0.11347707655E+03  0.00000000000E+00 0.  1.
         11    1    1    2    0    0 -0.50857691580E+02 -0.57610133097E+01  0.26693768260E+03  0.27180033197E+03  0.00000000000E+00 0. -1.
</event>
<event>
 7    1  0.2648915E-009  0.1144806E+03  0.7561462E-02  0.1252490E+00
          1   -1    0    0  501    0  0.00000000000E+00  0.00000000000E+00  0.44929525332E+03  0.44929525332E+03  0.00000000000E+00 0. -1.
         -1   -1    0    0    0  501 -0.00000000000E+00 -0.00000000000E+00 -0.55253196278E+02  0.55253196278E+02  0.00000000000E+00 0.  1.
         25    2    1    2    0    0 -0.68708925329E+02  0.43534901302E+02  0.33896825729E+03  0.37035596833E+03  0.12509140568E+03 0.  0.
          5    1    3    3  502    0 -0.16495959448E+01 -0.39988815719E+02  0.68877969600E+02  0.79771383626E+02  0.41800000000E+01 0. -1.
         -5    1    3    3    0  502 -0.67059329384E+02  0.83523717021E+02  0.27009028769E+03  0.29058458470E+03  0.41800000000E+01 0. -1.
        -11    1    1    2    0    0  0.52189069023E+02 -0.35783007180E+02 -0.12238259698E+02  0.64450737225E+02  0.00000000000E+00 0.  1.
         11    1    1    2    0    0  0.16519856306E+02 -0.77518941219E+01  0.67312059448E+02  0.69741744041E+02  0.00000000000E+00 0. -1.
</event>
<event>
 7    1  0.2648915E-009  0.6398142E+02  0.7561462E-02  0.1381844E+00
          1   -1    0    0  501    0  0.00000000000E+00  0.00000000000E+00  0.28818735465E+03  0.28818735465E+03  0.00000000000E+00 0. -1.
         -1   -1    0    0    0  501 -0.00000000000E+00 -0.00000000000E+00 -0.46417388736E+02  0.46417388736E+02  0.00000000000E+00 0.  1.
         25    2    1    2    0    0 -0.33809575128E+02 -0.20628588136E+02  0.12232107720E+03  0.17938428921E+03  0.12509057226E+03 0.  0.
          5    1    3    3  502    0 -0.24685966808E+01 -0.62632487988E+01  0.14013108168E+03  0.14035495968E+03  0.41800000000E+01 0.  1.
         -5    1    3    3    0  502 -0.31340978448E+02 -0.14365339337E+02 -0.17810004472E+02  0.39029329531E+02  0.41800000000E+01 0.  1.
        -11    1    1    2    0    0 -0.82136518654E+01  0.38702557069E+02  0.17076807088E+02  0.43092567120E+02  0.00000000000E+00 0.  1.
         11    1    1    2    0    0  0.42023226994E+02 -0.18073968934E+02  0.10237208163E+03  0.11212788706E+03  0.00000000000E+00 0. -1.
</event>
<event>
 7    1  0.2648915E-009  0.9883272E+02  0.7561462E-02  0.1282770E+00
          1   -1    0    0  501    0  0.00000000000E+00  0.00000000000E+00  0.18398222098E+03  0.18398222098E+03  0.00000000000E+00 0. -1.
         -1   -1    0    0    0  501 -0.00000000000E+00 -0.00000000000E+00 -0.77767321925E+02  0.77767321925E+02  0.00000000000E+00 0.  1.
         25    2    1    2    0    0 -0.28632144848E+02  0.25424234910E+02  0.21663091995E+02  0.13260053036E+03  0.12508964648E+03 0.  0.
          5    1    3    3  502    0 -0.42572625629E+02 -0.42267717452E+02  0.19883468422E+02  0.63338875172E+02  0.41800000000E+01 0.  1.
         -5    1    3    3    0  502  0.13940480781E+02  0.67691952362E+02  0.17796235727E+01  0.69261655186E+02  0.41800000000E+01 0.  1.
        -11    1    1    2    0    0 -0.72796144955E+01 -0.31092481889E+02 -0.51625715488E+01  0.32347911250E+02  0.00000000000E+00 0.  1.
         11    1    1    2    0    0  0.35911759344E+02  0.56682469789E+01  0.89714378605E+02  0.96801101293E+02  0.00000000000E+00 0. -1.
</event>
<event>
 7    1  0.2648915E-009  0.1310299E+03  0.7561462E-02  0.1225935E+00
          1   -1    0    0  501    0  0.00000000000E+00  0.00000000000E+00  0.23292557755E+03  0.23292557755E+03  0.00000000000E+00 0. -1.
         -1   -1    0    0    0  501 -0.00000000000E+00 -0.00000000000E+00 -0.11128391824E+03  0.11128391824E+03  0.00000000000E+00 0.  1.
         25    2    1    2    0    0 -0.10556153393E+03  0.19550730658E+02  0.92262549266E+01  0.16509640172E+03  0.12508488944E+03 0.  0.
          5    1    3    3  502    0 -0.21744333638E+02 -0.28010268052E+02  0.49107295815E+02  0.60715649251E+02  0.41800000000E+01 0. -1.
         -5    1    3    3    0  502 -0.83817200292E+02  0.47560998711E+02 -0.39881040888E+02  0.10438075247E+03  0.41800000000E+01 0. -1.
        -11    1    1    2    0    0  0.73657201659E+02 -0.47360647192E+02  0.10400644638E+03  0.13596232989E+03  0.00000000000E+00 0. -1.
         11    1    1    2    0    0  0.31904332271E+02  0.27809916534E+02  0.84089580060E+01  0.43150764188E+02  0.00000000000E+00 0.  1.
</event>
<event>
 7    1  0.2648915E-009  0.1205532E+03  0.7561462E-02  0.1242187E+00
         -2   -1    0    0    0  501 -0.00000000000E+00  0.00000000000E+00  0.10986570573E+02  0.10986570573E+02  0.00000000000E+00 0.  1.
          2   -1    0    0  501    0  0.00000000000E+00 -0.00000000000E+00 -0.23691328936E+04  0.23691328936E+04  0.00000000000E+00 0. -1.
         25    2    1    2    0    0  0.84477562825E+02 -0.66013748865E+01 -0.18846632046E+04  0.18907096293E+04  0.12508985016E+03 0.  0.
          5    1    3    3  502    0 -0.30408261223E+01  0.25316398041E+02 -0.90274695226E+02  0.93899731796E+02  0.41800000000E+01 0. -1.
         -5    1    3    3    0  502  0.87518388948E+02 -0.31917772927E+02 -0.17943885094E+04  0.17968098975E+04  0.41800000000E+01 0. -1.
        -11    1    1    2    0    0 -0.94420565332E+02 -0.17424613294E+02 -0.33413633508E+03  0.34765780694E+03  0.00000000000E+00 0.  1.
         11    1    1    2    0    0  0.99430025067E+01  0.24025988181E+02 -0.13934678339E+03  0.14175202802E+03  0.00000000000E+00 0. -1.
</event>
<event>
 7    1  0.2648915E-009  0.1374547E+03  0.7561462E-02  0.1216795E+00
         -1   -1    0    0    0  501 -0.00000000000E+00  0.00000000000E+00  0.33520406329E+02  0.33520406329E+02  0.00000000000E+00 0.  1.
          1   -1    0    0  501    0  0.00000000000E+00 -0.00000000000E+00 -0.65106302215E+03  0.65106302215E+03  0.00000000000E+00 0. -1.
         25    2    1    2    0    0 -0.86857540323E+02  0.22134407603E+02 -0.23262542134E+03  0.27892159207E+03  0.12509397892E+03 0.  0.
          5    1    3    3  502    0 -0.71649108053E+02  0.69674554930E+02 -0.18217179485E+03  0.20782726849E+03  0.41800000000E+01 0. -1.
         -5    1    3    3    0  502 -0.15208432270E+02 -0.47540147327E+02 -0.50453626483E+02  0.71094323580E+02  0.41800000000E+01 0. -1.
        -11    1    1    2    0    0 -0.15410954048E+02 -0.16189922701E+02 -0.39631151358E+02  0.45499881974E+02  0.00000000000E+00 0. -1.
         11    1    1    2    0    0  0.10226849437E+03 -0.59444849020E+01 -0.34528604312E+03  0.36016195443E+03  0.00000000000E+00 0.  1.
</event>
<event>
 7    1  0.2648915E-009  0.1146373E+03  0.7561462E-02  0.1252215E+00
         -2   -1    0    0    0  501 -0.00000000000E+00  0.00000000000E+00  0.23619247887E+02  0.23619247887E+02  0.00000000000E+00 0.  1.
          2   -1    0    0  501    0  0.00000000000E+00 -0.00000000000E+00 -0.68397766784E+03  0.68397766784E+03  0.00000000000E+00 0. -1.
         25    2    1    2    0    0 -0.31980440794E+01  0.50286417629E+02 -0.48987495939E+03  0.50809847962E+03  0.12509051874E+03 0.  0.
          5    1    3    3  502    0  0.17847966648E+02 -0.35182742043E+02 -0.23727892088E+03  0.24057251286E+03  0.41800000000E+01 0. -1.
         -5    1    3    3    0  502 -0.21046010728E+02  0.85469159672E+02 -0.25259603851E+03  0.26752596676E+03  0.41800000000E+01 0. -1.
        -11    1    1    2    0    0 -0.18716726296E+02 -0.69721614173E+02 -0.10150098289E+03  0.12455468218E+03  0.00000000000E+00 0.  1.
         11    1    1    2    0    0  0.21914770375E+02  0.19435196544E+02 -0.68982477683E+02  0.74943753927E+02  0.00000000000E+00 0. -1.
</event>
<event>
 7    1  0.3699887E-009  0.1481410E+03  0.7561462E-02  0.1202776E+00
         -2   -1    0    0    0  501 -0.00000000000E+00  0.00000000000E+00  0.22823693375E+02  0.22823693375E+02  0.00000000000E+00 0.  1.
          2   -1    0    0  501    0  0.00000000000E+00 -0.00000000000E+00 -0.11247001967E+04  0.11247001967E+04  0.00000000000E+00 0. -1.
         25    2    1    2    0    0  0.71011278422E+02  0.93892743058E+02 -0.60400386294E+03  0.62795471518E+03  0.12509200216E+03 0.  0.
          5    1    3    3  502    0 -0.22298325096E+02 -0.95602364161E+01 -0.17886733377E+03  0.18055361783E+03  0.41800000000E+01 0.  1.
         -5    1    3    3    0  502  0.93309603518E+02  0.10345297947E+03 -0.42513652917E+03  0.44740109735E+03  0.41800000000E+01 0.  1.
        -11    1    1    2    0    0 -0.48426632294E+02 -0.15720765227E+02 -0.87738181462E+02  0.10144096638E+03  0.00000000000E+00 0.  1.
         11    1    1    2    0    0 -0.22584646128E+02 -0.78171977830E+02 -0.41013445895E+03  0.41812820854E+03  0.00000000000E+00 0. -1.
</event>
<event>
 7    1  0.2648915E-009  0.1464238E+03  0.7561462E-02  0.1204938E+00
          2   -1    0    0  501    0  0.00000000000E+00  0.00000000000E+00  0.20253197046E+03  0.20253197046E+03  0.00000000000E+00 0.  1.
         -2   -1    0    0    0  501 -0.00000000000E+00 -0.00000000000E+00 -0.12491823794E+03  0.12491823794E+03  0.00000000000E+00 0. -1.
         25    2    1    2    0    0 -0.72391061071E+01  0.11224726600E+03  0.71009505750E+02  0.18259776887E+03  0.12509093456E+03 0.  0.
          5    1    3    3  502    0 -0.60473384885E+02  0.25034872046E+02  0.21798111788E+02  0.69111541549E+02  0.41800000000E+01 0.  1.
         -5    1    3    3    0  502  0.53234278778E+02  0.87212393952E+02  0.49211393961E+02  0.11348622732E+03  0.41800000000E+01 0.  1.
        -11    1    1    2    0    0  0.30633776853E+02 -0.51723085894E+02  0.39671308371E+02  0.72024430623E+02  0.00000000000E+00 0.  1.
         11    1    1    2    0    0 -0.23394670746E+02 -0.60524180103E+02 -0.33067081593E+02  0.72828008909E+02  0.00000000000E+00 0. -1.
</event>
<event>
 7    1  0.2918628E-009  0.6763594E+02  0.7561462E-02  0.1368322E+00
          3   -1    0    0  501    0  0.00000000000E+00  0.00000000000E+00  0.32921513310E+03  0.32921513310E+03  0.00000000000E+00 0. -1.
         -3   -1    0    0    0  501 -0.00000000000E+00 -0.00000000000E+00 -0.40722433241E+02  0.40722433241E+02  0.00000000000E+00 0.  1.
         25    2    1    2    0    0  0.37610460134E+02  0.82756940457E+01  0.18152219763E+03  0.22378836996E+03  0.12509153638E+03 0.  0.
          5    1    3    3  502    0 -0.16961235090E+02  0.31704132660E+02  0.38446791068E+01  0.36401778541E+02  0.41800000000E+01 0. -1.
         -5    1    3    3    0  502  0.54571695224E+02 -0.23428438614E+02  0.17767751852E+03  0.18738659142E+03  0.41800000000E+01 0. -1.
        -11    1    1    2    0    0 -0.26678810748E+02 -0.15935057496E+01  0.12286247831E+03  0.12573578162E+03  0.00000000000E+00 0. -1.
         11    1    1    2    0    0 -0.10931649386E+02 -0.66821882962E+01 -0.15891976075E+02  0.20413414764E+02  0.00000000000E+00 0.  1.
</event>
<event>
 7    1  0.2648915E-009  0.7832919E+02  0.7561462E-02  0.1333861E+00
          4   -1    0    0  501    0  0.00000000000E+00  0.00000000000E+00  0.10013696094E+03  0.10013696094E+03  0.00000000000E+00 0. -1.
         -4   -1    0    0    0  501 -0.00000000000E+00 -0.00000000000E+00 -0.13122243723E+03  0.13122243723E+03  0.00000000000E+00 0.  1.
         25    2    1    2    0    0  0.54523180414E+01 -0.29093370113E+02  0.98227535745E+01  0.12891234584E+03  0.12508299032E+03 0.  0.
          5    1    3    3  502    0  0.17295966700E+02  0.16473823256E+02  0.57114899613E+02  0.62049347093E+02  0.41800000000E+01 0. -1.
         -5    1    3    3    0  502 -0.11843648659E+02 -0.45567193369E+02 -0.47292146039E+02  0.66862998752E+02  0.41800000000E+01 0. -1.
        -11    1    1    2    0    0 -0.39197517620E+02  0.32912021272E+02 -0.45114091194E+02  0.68227030978E+02  0.00000000000E+00 0. -1.
         11    1    1    2    0    0  0.33745199579E+02 -0.38186511593E+01  0.42058613264E+01  0.34220021344E+02  0.00000000000E+00 0.  1.
</event>
<event>
 7    1  0.2648915E-009  0.1160618E+03  0.7561462E-02  0.1249739E+00
         -2   -1    0    0    0  501 -0.00000000000E+00  0.00000000000E+00  0.11573880807E+03  0.11573880807E+03  0.00000000000E+00 0.  1.
          2   -1    0    0  501    0  0.00000000000E+00 -0.00000000000E+00 -0.24529893718E+03  0.24529893718E+03  0.00000000000E+00 0. -1.
         25    2    1    2    0    0 -0.71143971054E+02  0.38266957803E+02  0.37506452029E+02  0.15354558959E+03  0.12507473550E+03 0.  0.
          5    1    3    3  502    0 -0.73581126871E+02  0.12130805523E+01  0.71746474185E+02  0.10286244579E+03  0.41800000000E+01 0. -1.
         -5    1    3    3    0  502  0.24371558179E+01  0.37053877250E+02 -0.34240022156E+02  0.50683143796E+02  0.41800000000E+01 0. -1.
        -11    1    1    2    0    0  0.82072814110E+02 -0.86287698690E+00 -0.94844498455E+02  0.12542794848E+03  0.00000000000E+00 0.  1.
         11    1    1    2    0    0 -0.10928843056E+02 -0.37404080816E+02 -0.72222082690E+02  0.82064207181E+02  0.00000000000E+00 0. -1.
</event>
<event>
 7    1  0.2648915E-009  0.1455352E+03  0.7561462E-02  0.1206069E+00
         -2   -1    0    0    0  501 -0.00000000000E+00  0.00000000000E+00  0.96620408050E+03  0.96620408050E+03  0.00000000000E+00 0.  1.
          2   -1    0    0  501    0  0.00000000000E+00 -0.00000000000E+00 -0.30677405329E+02  0.30677405329E+02  0.00000000000E+00 0. -1.
         25    2    1    2    0    0  0.26851100239E+02  0.11521480061E+03  0.68359455987E+03  0.70494227902E+03  0.12508662037E+03 0.  0.
          5    1    3    3  502    0  0.32148427191E+02 -0.19125946026E+02  0.15376043223E+03  0.15830055623E+03  0.41800000000E+01 0.  1.
         -5    1    3    3    0  502 -0.52973269523E+01  0.13434074664E+03  0.52983412764E+03  0.54664172279E+03  0.41800000000E+01 0.  1.
        -11    1    1    2    0    0 -0.90835987800E+01 -0.65472913712E+02  0.22112179649E+03  0.23079008445E+03  0.00000000000E+00 0.  1.
         11    1    1    2    0    0 -0.17767501459E+02 -0.49741886902E+02  0.30810318810E+02  0.61149122364E+02  0.00000000000E+00 0. -1.
</event>
<event>
 7    1  0.2648915E-009  0.2266166E+03  0.7561462E-02  0.1129044E+00
         -2   -1    0    0    0  501 -0.00000000000E+00  0.00000000000E+00  0.81284093457E+02  0.81284093457E+02  0.00000000000E+00 0. -1.
          2   -1    0    0  501    0  0.00000000000E+00 -0.00000000000E+00 -0.75953443910E+03  0.75953443910E+03  0.00000000000E+00 0.  1.
         25    2    1    2    0    0  0.12786842455E+03 -0.16550820337E+03 -0.21802416324E+03  0.32699414915E+03  0.12508932186E+03 0.  0.
          5    1    3    3  502    0  0.28595649548E+02 -0.10404108591E+03 -0.16842255686E+03  0.20006471151E+03  0.41800000000E+01 0. -1.
         -5    1    3    3    0  502  0.99272775003E+02 -0.61467117457E+02 -0.49601606381E+02  0.12692943764E+03  0.41800000000E+01 0. -1.
        -11    1    1    2    0    0  0.68804345712E+01  0.51356998692E+02 -0.10991797568E+03  0.12151890006E+03  0.00000000000E+00 0. -1.
         11    1    1    2    0    0 -0.13474885912E+03  0.11415120468E+03 -0.35030820671E+03  0.39230548334E+03  0.00000000000E+00 0.  1.
</event>
<event>
 7    1  0.2648915E-009  0.1172378E+03  0.7561462E-02  0.1247725E+00
          2   -1    0    0  501    0  0.00000000000E+00  0.00000000000E+00  0.62876353985E+03  0.62876353985E+03  0.00000000000E+00 0. -1.
         -2   -1    0    0    0  501 -0.00000000000E+00 -0.00000000000E+00 -0.27283739826E+02  0.27283739826E+02  0.00000000000E+00 0.  1.
         25    2    1    2    0    0  0.47034027849E+02  0.43982699065E+02  0.24732296692E+03  0.28454106895E+03  0.12509313474E+03 0.  0.
          5    1    3    3  502    0 -0.24749786830E+02 -0.23752408797E+02  0.11054438544E+03  0.11581995693E+03  0.41800000000E+01 0. -1.
         -5    1    3    3    0  502  0.71783814680E+02  0.67735107862E+02  0.13677858148E+03  0.16872111201E+03  0.41800000000E+01 0. -1.
        -11    1    1    2    0    0 -0.37380641683E+02  0.15795503110E+02  0.69499800673E+02  0.80480013573E+02  0.00000000000E+00 0.  1.
         11    1    1    2    0    0 -0.96533861664E+01 -0.59778202175E+02  0.28465703243E+03  0.29102619716E+03  0.00000000000E+00 0. -1.
</event>
<event>
 7    1  0.2648915E-009  0.1047946E+03  0.7561462E-02  0.1270525E+00
         -2   -1    0    0    0  501 -0.00000000000E+00  0.00000000000E+00  0.40930711678E+02  0.40930711678E+02  0.00000000000E+00 0.  1.
          2   -1    0    0  501    0  0.00000000000E+00 -0.00000000000E+00 -0.41422521116E+03  0.41422521116E+03  0.00000000000E+00 0. -1.
         25    2    1    2    0    0  0.50742667491E+02 -0.49389004808E+02 -0.23050972125E+03  0.27165464272E+03  0.12508965272E+03 0.  0.
          5    1    3    3  502    0 -0.53959909192E+01 -0.69892175988E+02 -0.18027353974E+03  0.19346848455E+03  0.41800000000E+01 0. -1.
         -5    1    3    3    0  502  0.56138658410E+02  0.20503171180E+02 -0.50236181511E+02  0.78186158169E+02  0.41800000000E+01 0. -1.
        -11    1    1    2    0    0 -0.23193201250E+02  0.46231438642E+02 -0.14664941561E+03  0.15550344563E+03  0.00000000000E+00 0. -1.
         11    1    1    2    0    0 -0.27549466241E+02  0.31575661668E+01  0.38646373799E+01  0.27997834494E+02  0.00000000000E+00 0.  1.
</event>
<event>
 7    1  0.2648915E-009  0.1159100E+03  0.7561462E-02  0.1250001E+00
         -2   -1    0    0    0  501 -0.00000000000E+00  0.00000000000E+00  0.21397107027E+03  0.21397107027E+03  0.00000000000E+00 0. -1.
          2   -1    0    0  501    0  0.00000000000E+00 -0.00000000000E+00 -0.76210490075E+02  0.76210490075E+02  0.00000000000E+00 0.  1.
         25    2    1    2    0    0 -0.31230196278E+02  0.60253149434E+02  0.79232112142E+02  0.16288485855E+03  0.12509189571E+03 0.  0.
          5    1    3    3  502    0  0.24914268812E+02  0.68704051819E+02  0.76512170877E+02  0.10588933950E+03  0.41800000000E+01 0.  1.
         -5    1    3    3    0  502 -0.56144465089E+02 -0.84509023842E+01  0.27199412652E+01  0.56995519050E+02  0.41800000000E+01 0.  1.
        -11    1    1    2    0    0  0.51765161453E+02 -0.18168987025E+02  0.34023247564E+01  0.54966533850E+02  0.00000000000E+00 0.  1.
         11    1    1    2    0    0 -0.20534965175E+02 -0.42084162410E+02  0.55126143293E+02  0.72330167944E+02  0.00000000000E+00 0. -1.
</event>
<event>
 7    1  0.2648915E-009  0.1214652E+03  0.7561462E-02  0.1240699E+00
          2   -1    0    0  501    0  0.00000000000E+00  0.00000000000E+00  0.71954803182E+03  0.71954803182E+03  0.00000000000E+00 0.  1.
         -2   -1    0    0    0  501 -0.00000000000E+00 -0.00000000000E+00 -0.31207744638E+02  0.31207744638E+02  0.00000000000E+00 0. -1.
         25    2    1    2    0    0 -0.32569006083E+02  0.95482295985E+02  0.41369968985E+03  0.44381480476E+03  0.12508612448E+03 0.  0.
          5    1    3    3  502    0  0.14612882971E+02  0.22475069549E+02  0.29700892614E+03  0.29824560300E+03  0.41800000000E+01 0.  1.
         -5    1    3    3    0  502 -0.47181889055E+02  0.73007226436E+02  0.11669076371E+03  0.14556920176E+03  0.41800000000E+01 0.  1.
        -11    1    1    2    0    0  0.18683949154E+02 -0.10828509597E+03  0.26228101432E+03  0.28436962291E+03  0.00000000000E+00 0.  1.
         11    1    1    2    0    0  0.13885056930E+02  0.12802799987E+02  0.12359583008E+02  0.22571348776E+02  0.00000000000E+00 0. -1.
</event>
<event>
 7    1  0.2648915E-009  0.9218873E+02  0.7561462E-02  0.1297636E+00
         -1   -1    0    0    0  501 -0.00000000000E+00  0.00000000000E+00  0.11931701978E+02  0.11931701978E+02  0.00000000000E+00 0.  1.
          1   -1    0    0  501    0  0.00000000000E+00 -0.00000000000E+00 -0.10081024583E+04  0.10081024583E+04  0.00000000000E+00 0. -1.
         25    2    1    2    0    0  0.98535211517E+01  0.29550916475E+01 -0.71930354956E+03  0.73017251140E+03  0.12509386695E+03 0.  0.
          5    1    3    3  502    0 -0.43171170776E+02 -0.15497365065E+02 -0.12512770226E+03  0.13333541384E+03  0.41800000000E+01 0.  1.
         -5    1    3    3    0  502  0.53024691928E+02  0.18452456712E+02 -0.59417584730E+03  0.59683709756E+03  0.41800000000E+01 0.  1.
        -11    1    1    2    0    0  0.32539786619E+02 -0.17815327619E+02 -0.83919539120E+02  0.91753543024E+02  0.00000000000E+00 0.  1.
         11    1    1    2    0    0 -0.42393307771E+02  0.14860235971E+02 -0.19294766764E+03  0.19810810586E+03  0.00000000000E+00 0. -1.
</event>
<event>
 7    1  0.2648915E-009  0.1006854E+03  0.7561462E-02  0.1278861E+00
         -2   -1    0    0    0  501 -0.00000000000E+00  0.00000000000E+00  0.54708044242E+02  0.54708044242E+02  0.00000000000E+00 0.  1.
          2   -1    0    0  501    0  0.00000000000E+00 -0.00000000000E+00 -0.24246539172E+03  0.24246539172E+03  0.00000000000E+00 0. -1.
         25    2    1    2    0    0 -0.22895936050E+02  0.30343394882E+02 -0.12085439211E+03  0.17803973468E+03  0.12508963800E+03 0.  0.
          5    1    3    3  502    0 -0.60965305919E+02  0.68398351497E+01 -0.11794384815E+03  0.13301043413E+03  0.41800000000E+01 0. -1.
         -5    1    3    3    0  502  0.38069369869E+02  0.23503559732E+02 -0.29105439578E+01  0.45029300555E+02  0.41800000000E+01 0. -1.
        -11    1    1    2    0    0  0.39217399836E+02  0.18562076052E+02 -0.14823746259E+02  0.45850829550E+02  0.00000000000E+00 0.  1.
         11    1    1    2    0    0 -0.16321463786E+02 -0.48905470934E+02 -0.52079209114E+02  0.73282871732E+02  0.00000000000E+00 0. -1.
</event>
<event>
 7    1  0.2648915E-009  0.2386435E+03  0.7561462E-02  0.1120700E+00
         -2   -1    0    0    0  501 -0.00000000000E+00  0.00000000000E+00  0.65881864798E+02  0.65881864798E+02  0.00000000000E+00 0.  1.
          2   -1    0    0  501    0  0.00000000000E+00 -0.00000000000E+00 -0.11694816546E+04  0.11694816546E+04  0.00000000000E+00 0. -1.
         25    2    1    2    0    0  0.53632506632E+02 -0.23213746053E+03 -0.36380950606E+03  0.45251258075E+03  0.12508410245E+03 0.  0.
          5    1    3    3  502    0  0.25138741294E+02 -0.76075739206E+02 -0.23436940380E+03  0.24772154579E+03  0.41800000000E+01 0. -1.
         -5    1    3    3    0  502  0.28493765338E+02 -0.15606172133E+03 -0.12944010225E+03  0.20479103496E+03  0.41800000000E+01 0. -1.
        -11    1    1    2    0    0 -0.37262875308E+02  0.17502496569E+03 -0.40417829568E+03  0.44202076330E+03  0.00000000000E+00 0.  1.
         11    1    1    2    0    0 -0.16369631324E+02  0.57112494847E+02 -0.33561198804E+03  0.34083017533E+03  0.00000000000E+00 0. -1.
</event>
<event>
 7    1  0.2648915E-009  0.1010700E+03  0.7561462E-02  0.1278062E+00
         -4   -1    0    0    0  501 -0.00000000000E+00  0.00000000000E+00  0.14845855100E+02  0.14845855100E+02  0.00000000000E+00 0.  1.
          4   -1    0    0  501    0  0.00000000000E+00 -0.00000000000E+00 -0.92292001355E+03  0.92292001355E+03  0.00000000000E+00 0. -1.
         25    2    1    2    0    0  0.60860561119E+01  0.45088551647E+02 -0.55878625693E+03  0.57442207582E+03  0.12509445502E+03 0.  0.
          5    1    3    3  502    0  0.47913018015E+02  0.37115765697E+01 -0.91581651713E+02  0.10350895819E+03  0.41800000000E+01 0.  1.
         -5    1    3    3    0  502 -0.41826961903E+02  0.41376975077E+02 -0.46720460522E+03  0.47091311762E+03  0.41800000000E+01 0.  1.
        -11    1    1    2    0    0  0.38207353181E+02 -0.13528531673E+02 -0.20876540710E+03  0.21266362691E+03  0.00000000000E+00 0. -1.
         11    1    1    2    0    0 -0.44293409293E+02 -0.31560019974E+02 -0.14052249441E+03  0.15068016592E+03  0.00000000000E+00 0.  1.
</event>
<event>
 7    1  0.2648915E-009  0.1163985E+03  0.7561462E-02  0.1249159E+00
         -2   -1    0    0    0  501 -0.00000000000E+00  0.00000000000E+00  0.20091025834E+02  0.20091025834E+02  0.00000000000E+00 0.  1.
          2   -1    0    0  501    0  0.00000000000E+00 -0.00000000000E+00 -0.88857614167E+03  0.88857614167E+03  0.00000000000E+00 0. -1.
         25    2    1    2    0    0  0.73240530510E+02  0.23616105953E+02 -0.43631654029E+03  0.46037191509E+03  0.12509308977E+03 0.  0.
          5    1    3    3  502    0  0.14890048617E+02 -0.45736015220E+02 -0.22958833832E+03  0.23460983383E+03  0.41800000000E+01 0.  1.
         -5    1    3    3    0  502  0.58350481893E+02  0.69352121173E+02 -0.20672820197E+03  0.22576208127E+03  0.41800000000E+01 0.  1.
        -11    1    1    2    0    0 -0.63342921241E+02 -0.39805266788E+02 -0.41792750518E+03  0.42457058839E+03  0.00000000000E+00 0. -1.
         11    1    1    2    0    0 -0.98976092687E+01  0.16189160836E+02 -0.14241070361E+02  0.23724664019E+02  0.00000000000E+00 0.  1.
</event>
<event>
 7    1  0.2648915E-009  0.1442951E+03  0.7561462E-02  0.1207664E+00
         -3   -1    0    0    0  501 -0.00000000000E+00  0.00000000000E+00  0.53915009283E+02  0.53915009283E+02  0.00000000000E+00 0.  1.
          3   -1    0    0  501    0  0.00000000000E+00 -0.00000000000E+00 -0.40364076510E+03  0.40364076510E+03  0.00000000000E+00 0. -1.
         25    2    1    2    0    0  0.67071431345E+02 -0.72349408532E+02 -0.14547559735E+03  0.21574008689E+03  0.12509045468E+03 0.  0.
          5    1    3    3  502    0  0.95506121926E+02 -0.84856537945E+02 -0.11311206987E+03  0.17068644969E+03  0.41800000000E+01 0. -1.
         -5    1    3    3    0  502 -0.28434690580E+02  0.12507129413E+02 -0.32363527476E+02  0.45053637204E+02  0.41800000000E+01 0. -1.
        -11    1    1    2    0    0  0.13263211562E+02  0.41159012550E+02 -0.70603800047E+02  0.82794164505E+02  0.00000000000E+00 0. -1.
         11    1    1    2    0    0 -0.80334642907E+02  0.31190395982E+02 -0.13364635842E+03  0.15902152298E+03  0.00000000000E+00 0.  1.
</event>
<event>
 7    1  0.2648915E-009  0.8520030E+02  0.7561462E-02  0.1314910E+00
         -1   -1    0    0    0  501 -0.00000000000E+00  0.00000000000E+00  0.11609062033E+03  0.11609062033E+03  0.00000000000E+00 0.  1.
          1   -1    0    0  501    0  0.00000000000E+00 -0.00000000000E+00 -0.13087061878E+03  0.13087061878E+03  0.00000000000E+00 0. -1.
         25    2    1    2    0    0 -0.52457756152E+02 -0.14857048324E+02  0.12321093026E+02  0.13701529285E+03  0.12509529597E+03 0.  0.
          5    1    3    3  502    0 -0.10942127044E+02 -0.44252193189E+02  0.54234826204E+02  0.70970948420E+02  0.41800000000E+01 0.  1.
         -5    1    3    3    0  502 -0.41515629108E+02  0.29395144865E+02 -0.41913733177E+02  0.66044344427E+02  0.41800000000E+01 0.  1.
        -11    1    1    2    0    0  0.11356156119E+02 -0.17782464539E+02  0.27201149972E+02  0.34425003801E+02  0.00000000000E+00 0.  1.
         11    1    1    2    0    0  0.41101600034E+02  0.32639512863E+02 -0.54302241445E+02  0.75520942468E+02  0.00000000000E+00 0. -1.
</event>
<event>
 7    1  0.2648915E-009  0.1065613E+03  0.7561462E-02  0.1267074E+00
          1   -1    0    0  501    0  0.00000000000E+00  0.00000000000E+00  0.10050768368E+03  0.10050768368E+03  0.00000000000E+00 0. -1.
         -1   -1    0    0    0  501 -0.00000000000E+00 -0.00000000000E+00 -0.18858392161E+03  0.18858392161E+03  0.00000000000E+00 0.  1.
         25    2    1    2    0    0  0.28946867175E+01  0.84381323099E+02 -0.42993047096E+02  0.15692229655E+03  0.12509043990E+03 0.  0.
          5    1    3    3  502    0 -0.28662653374E+02  0.52787168975E+02  0.33014198839E+02  0.68669080610E+02  0.41800000000E+01 0.  1.
         -5    1    3    3    0  502  0.31557340092E+02  0.31594154125E+02 -0.76007245935E+02  0.88253215936E+02  0.41800000000E+01 0.  1.
        -11    1    1    2    0    0 -0.32681867674E+02 -0.23408005595E+02 -0.49970332408E+02  0.64133246617E+02  0.00000000000E+00 0.  1.
         11    1    1    2    0    0  0.29787180957E+02 -0.60973317504E+02  0.48871415673E+01  0.68036062125E+02  0.00000000000E+00 0. -1.
</event>
<event>
 7    1  0.2648915E-009  0.1231196E+03  0.7561462E-02  0.1238038E+00
          1   -1    0    0  501    0  0.00000000000E+00  0.00000000000E+00  0.11192964444E+04  0.11192964444E+04  0.00000000000E+00 0. -1.
         -1   -1    0    0    0  501 -0.00000000000E+00 -0.00000000000E+00 -0.13636008150E+02  0.13636008150E+02  0.00000000000E+00 0.  1.
         25    2    1    2    0    0 -0.42863412867E+02  0.45203821001E+02  0.66705422507E+03  0.68153468438E+03  0.12509008450E+03 0.  0.
          5    1    3    3  502    0 -0.51729400604E+02 -0.32615486044E+02  0.28795874729E+03  0.29441028066E+03  0.41800000000E+01 0. -1.
         -5    1    3    3    0  502  0.88659877367E+01  0.77819307045E+02  0.37909547778E+03  0.38712440372E+03  0.41800000000E+01 0. -1.
        -11    1    1    2    0    0  0.54053021306E+01 -0.64256931642E+02  0.25225100842E+03  0.26036271201E+03  0.00000000000E+00 0.  1.
         11    1    1    2    0    0  0.37458110737E+02  0.19053110641E+02  0.18635520275E+03  0.19103505615E+03  0.00000000000E+00 0. -1.
</event>
<event>
 7    1  0.2648915E-009  0.1079819E+03  0.7561462E-02  0.1264353E+00
          1   -1    0    0  501    0  0.00000000000E+00  0.00000000000E+00  0.32039582372E+02  0.32039582372E+02  0.00000000000E+00 0. -1.
         -1   -1    0    0    0  501 -0.00000000000E+00 -0.00000000000E+00 -0.58464154815E+03  0.58464154815E+03  0.00000000000E+00 0.  1.
         25    2    1    2    0    0 -0.31623414880E+02 -0.18031174344E+02 -0.47368103857E+03  0.49126985042E+03  0.12508867261E+03 0.  0.
          5    1    3    3  502    0  0.16142366916E+02 -0.57782313957E+02 -0.31716897116E+03  0.32282038424E+03  0.41800000000E+01 0.  1.
         -5    1    3    3    0  502 -0.47765781796E+02  0.39751139614E+02 -0.15651206741E+03  0.16844946618E+03  0.41800000000E+01 0.  1.
        -11    1    1    2    0    0  0.22930899405E+02 -0.33877709405E+02 -0.52392839565E+02  0.66472061649E+02  0.00000000000E+00 0.  1.
         11    1    1    2    0    0  0.86925154745E+01  0.51908883749E+02 -0.26528087638E+02  0.58939218447E+02  0.00000000000E+00 0. -1.
</event>
<event>
 7    1  0.2648915E-009  0.1760405E+03  0.7561462E-02  0.1171691E+00
          3   -1    0    0  501    0  0.00000000000E+00  0.00000000000E+00  0.41341998387E+03  0.41341998387E+03  0.00000000000E+00 0. -1.
         -3   -1    0    0    0  501 -0.00000000000E+00 -0.00000000000E+00 -0.10672991609E+03  0.10672991609E+03  0.00000000000E+00 0.  1.
         25    2    1    2    0    0 -0.13393690202E+03 -0.10122456742E+03  0.23882892545E+03  0.31760535489E+03  0.12509356119E+03 0.  0.
          5    1    3    3  502    0 -0.13694483165E+03 -0.92236570542E+02  0.25172004231E+03  0.30106797232E+03  0.41800000000E+01 0.  1.
         -5    1    3    3    0  502  0.30079296301E+01 -0.89879968781E+01 -0.12891116851E+02  0.16537382568E+02  0.41800000000E+01 0.  1.
        -11    1    1    2    0    0  0.50371121849E+02  0.72324524291E+02 -0.45530407575E+01  0.88254274176E+02  0.00000000000E+00 0.  1.
         11    1    1    2    0    0  0.83565780173E+02  0.28900043129E+02  0.72414183086E+02  0.11429027089E+03  0.00000000000E+00 0. -1.
</event>
<event>
 7    1  0.2648915E-009  0.1503186E+03  0.7561462E-02  0.1200082E+00
         -2   -1    0    0    0  501 -0.00000000000E+00  0.00000000000E+00  0.22248501422E+02  0.22248501422E+02  0.00000000000E+00 0.  1.
          2   -1    0    0  501    0  0.00000000000E+00 -0.00000000000E+00 -0.12868581531E+04  0.12868581531E+04  0.00000000000E+00 0. -1.
         25    2    1    2    0    0 -0.44978893784E+02 -0.12053192468E+03 -0.69471663757E+03  0.71751667423E+03  0.12509166851E+03 0.  0.
          5    1    3    3  502    0 -0.79620047000E+02 -0.52331497760E+02 -0.28034046650E+03  0.29611853555E+03  0.41800000000E+01 0.  1.
         -5    1    3    3    0  502  0.34641153216E+02 -0.68200426918E+02 -0.41437617107E+03  0.42139813868E+03  0.41800000000E+01 0.  1.
        -11    1    1    2    0    0  0.33271530637E+02  0.87272109267E+02 -0.53075850732E+03  0.53891373048E+03  0.00000000000E+00 0. -1.
         11    1    1    2    0    0  0.11707363147E+02  0.33259815411E+02 -0.39134506803E+02  0.52676249826E+02  0.00000000000E+00 0.  1.
</event>
<event>
 7    1  0.2648915E-009  0.1206235E+03  0.7561462E-02  0.1242072E+00
          1   -1    0    0  501    0  0.00000000000E+00  0.00000000000E+00  0.12335597387E+03  0.12335597387E+03  0.00000000000E+00 0. -1.
         -1   -1    0    0    0  501 -0.00000000000E+00 -0.00000000000E+00 -0.14537768436E+03  0.14537768436E+03  0.00000000000E+00 0.  1.
         25    2    1    2    0    0  0.76886723903E+02  0.27942013981E+02  0.54038699922E+01  0.14956422723E+03  0.12509169356E+03 0.  0.
          5    1    3    3  502    0  0.61390661441E+01 -0.36828432050E+02  0.32637553800E+02  0.49766493331E+02  0.41800000000E+01 0.  1.
         -5    1    3    3    0  502  0.70747657759E+02  0.64770446031E+02 -0.27233683808E+02  0.99797733898E+02  0.41800000000E+01 0.  1.
        -11    1    1    2    0    0 -0.81952666514E+02 -0.42454210814E+02 -0.55888676371E+01  0.92465317855E+02  0.00000000000E+00 0. -1.
         11    1    1    2    0    0  0.50659426108E+01  0.14512196833E+02 -0.21836712841E+02  0.26704113150E+02  0.00000000000E+00 0.  1.
</event>
<event>
 7    1  0.2648915E-009  0.7554354E+02  0.7561462E-02  0.1342196E+00
         -2   -1    0    0    0  501 -0.00000000000E+00  0.00000000000E+00  0.14738498219E+03  0.14738498219E+03  0.00000000000E+00 0.  1.
          2   -1    0    0  501    0  0.00000000000E+00 -0.00000000000E+00 -0.10806446514E+03  0.10806446514E+03  0.00000000000E+00 0. -1.
         25    2    1    2    0    0  0.37533455928E+02  0.49137112842E+02  0.10093488014E+02  0.13990151628E+03  0.12508932643E+03 0.  0.
          5    1    3    3  502    0  0.53238137223E+01  0.35846468403E+02  0.65117044423E+02  0.74639226710E+02  0.41800000000E+01 0. -1.
         -5    1    3    3    0  502  0.32209642206E+02  0.13290644440E+02 -0.55023556409E+02  0.65262289575E+02  0.41800000000E+01 0. -1.
        -11    1    1    2    0    0  0.11766836266E+02 -0.16957801277E+02  0.49220172409E+02  0.53372753646E+02  0.00000000000E+00 0.  1.
         11    1    1    2    0    0 -0.49300292193E+02 -0.32179311565E+02 -0.19993143371E+02  0.62175177402E+02  0.00000000000E+00 0. -1.
</event>
<event>
 7    1  0.2648915E-009  0.1168749E+03  0.7561462E-02  0.1248343E+00
         -4   -1    0    0    0  501 -0.00000000000E+00  0.00000000000E+00  0.56897531363E+03  0.56897531363E+03  0.00000000000E+00 0.  1.
          4   -1    0    0  501    0  0.00000000000E+00 -0.00000000000E+00 -0.33500222704E+02  0.33500222704E+02  0.00000000000E+00 0. -1.
         25    2    1    2    0    0  0.47528888424E+02 -0.11918701443E+02  0.44437080646E+03  0.46423409857E+03  0.12508730534E+03 0.  0.
          5    1    3    3  502    0 -0.20464071331E+02  0.40331257253E+02  0.20390640846E+03  0.20890352878E+03  0.41800000000E+01 0.  1.
         -5    1    3    3    0  502  0.67992959754E+02 -0.52249958696E+02  0.24046439801E+03  0.25533056979E+03  0.41800000000E+01 0.  1.
        -11    1    1    2    0    0 -0.28244282800E+02  0.51338381560E+02  0.40340549013E+02  0.71138799728E+02  0.00000000000E+00 0.  1.
         11    1    1    2    0    0 -0.19284605624E+02 -0.39419680117E+02  0.50763735448E+02  0.67102638035E+02  0.00000000000E+00 0. -1.
</event>
<event>
 7    1  0.2648915E-009  0.6776176E+02  0.7561462E-02  0.1367874E+00
          1   -1    0    0  501    0  0.00000000000E+00  0.00000000000E+00  0.24583725352E+02  0.24583725352E+02  0.00000000000E+00 0. -1.
         -1   -1    0    0    0  501 -0.00000000000E+00 -0.00000000000E+00 -0.45939722520E+03  0.45939722520E+03  0.00000000000E+00 0.  1.
         25    2    1    2    0    0 -0.12790837311E+01  0.34294664896E+02 -0.21140870678E+03  0.24803192843E+03  0.12509370936E+03 0.  0.
          5    1    3    3  502    0  0.14590566634E+02 -0.77767184018E+01  0.11516801120E+02  0.20578413249E+02  0.41800000000E+01 0.  1.
         -5    1    3    3    0  502 -0.15869650365E+02  0.42071383298E+02 -0.22292550790E+03  0.22745351518E+03  0.41800000000E+01 0.  1.
        -11    1    1    2    0    0  0.28569328317E+02  0.11318780532E+01 -0.11868812079E+03  0.12208340463E+03  0.00000000000E+00 0.  1.
         11    1    1    2    0    0 -0.27290244586E+02 -0.35426542949E+02 -0.10471667227E+03  0.11386561749E+03  0.00000000000E+00 0. -1.
</event>
<event>
 7    1  0.2648915E-009  0.1014135E+03  0.7561462E-02  0.1277351E+00
         -1   -1    0    0    0  501 -0.00000000000E+00  0.00000000000E+00  0.85930485792E+02  0.85930485792E+02  0.00000000000E+00 0.  1.
          1   -1    0    0  501    0  0.00000000000E+00 -0.00000000000E+00 -0.15650650208E+03  0.15650650208E+03  0.00000000000E+00 0. -1.
         25    2    1    2    0    0  0.99256723451E+01  0.35390519611E+02 -0.24930507449E+02  0.13274073382E+03  0.12509022489E+03 0.  0.
          5    1    3    3  502    0 -0.88699932832E+01 -0.32667887687E+02  0.28218387586E+02  0.44267566736E+02  0.41800000000E+01 0.  1.
         -5    1    3    3    0  502  0.18795665628E+02  0.68058407299E+02 -0.53148895034E+02  0.88473167083E+02  0.41800000000E+01 0.  1.
        -11    1    1    2    0    0  0.40383921308E+02 -0.98482801010E+01 -0.93436176980E+01  0.42604611403E+02  0.00000000000E+00 0.  1.
         11    1    1    2    0    0 -0.50309593653E+02 -0.25542239510E+02 -0.36301891137E+02  0.67091642645E+02  0.00000000000E+00 0. -1.
</event>
<event>
 7    1  0.2648915E-009  0.7217368E+02  0.7561462E-02  0.1352854E+00
         -1   -1    0    0    0  501 -0.00000000000E+00  0.00000000000E+00  0.63152584577E+02  0.63152584577E+02  0.00000000000E+00 0.  1.
          1   -1    0    0  501    0  0.00000000000E+00 -0.00000000000E+00 -0.20758192809E+03  0.20758192809E+03  0.00000000000E+00 0. -1.
         25    2    1    2    0    0 -0.16565270090E+02 -0.27067492131E+01 -0.10489341276E+03  0.16410894896E+03  0.12508950565E+03 0.  0.
          5    1    3    3  502    0  0.12795827303E+02 -0.17440823563E+02  0.23087710552E+02  0.31912854800E+02  0.41800000000E+01 0. -1.
         -5    1    3    3    0  502 -0.29361097393E+02  0.14734074350E+02 -0.12798112331E+03  0.13219609416E+03  0.41800000000E+01 0. -1.
        -11    1    1    2    0    0 -0.33007577117E+01  0.43606415900E+02  0.36926703075E+01  0.43886789847E+02  0.00000000000E+00 0.  1.
         11    1    1    2    0    0  0.19866027802E+02 -0.40899666687E+02 -0.43228601058E+02  0.62738773857E+02  0.00000000000E+00 0. -1.
</event>
<event>
 7    1  0.2648915E-009  0.1084975E+03  0.7561462E-02  0.1263378E+00
         -1   -1    0    0    0  501 -0.00000000000E+00  0.00000000000E+00  0.20747721462E+02  0.20747721462E+02  0.00000000000E+00 0.  1.
          1   -1    0    0  501    0  0.00000000000E+00 -0.00000000000E+00 -0.61443034479E+03  0.61443034479E+03  0.00000000000E+00 0. -1.
         25    2    1    2    0    0 -0.18290679652E+02 -0.30705947757E+02 -0.33934010139E+03  0.36342410899E+03  0.12509186381E+03 0.  0.
          5    1    3    3  502    0 -0.38316204417E+02  0.35370430251E+02 -0.21361268600E+03  0.21992510289E+03  0.41800000000E+01 0.  1.
         -5    1    3    3    0  502  0.20025524765E+02 -0.66076378008E+02 -0.12572741538E+03  0.14349900610E+03  0.41800000000E+01 0.  1.
        -11    1    1    2    0    0  0.50276711422E+02 -0.12568301991E+01 -0.12519058484E+03  0.13491482448E+03  0.00000000000E+00 0. -1.
         11    1    1    2    0    0 -0.31986031770E+02  0.31962777956E+02 -0.12915193711E+03  0.13683913279E+03  0.00000000000E+00 0.  1.
</event>
<event>
 7    1  0.2648915E-009  0.1066228E+03  0.7561462E-02  0.1266955E+00
         -2   -1    0    0    0  501 -0.00000000000E+00  0.00000000000E+00  0.17134399605E+02  0.17134399605E+02  0.00000000000E+00 0.  1.
          2   -1    0    0  501    0  0.00000000000E+00 -0.00000000000E+00 -0.79020546331E+03  0.79020546331E+03  0.00000000000E+00 0. -1.
         25    2    1    2    0    0 -0.36717478231E+02 -0.26652725654E+02 -0.44646497972E+03  0.46587059669E+03  0.12508354709E+03 0.  0.
          5    1    3    3  502    0 -0.73609010843E+02 -0.49655422176E+02 -0.31763396901E+03  0.32983747225E+03  0.41800000000E+01 0. -1.
         -5    1    3    3    0  502  0.36891532612E+02  0.23002696522E+02 -0.12883101070E+03  0.13603312444E+03  0.41800000000E+01 0. -1.
        -11    1    1    2    0    0  0.16791672354E+02  0.48372755703E+02 -0.28992980110E+03  0.29441666617E+03  0.00000000000E+00 0. -1.
         11    1    1    2    0    0  0.19925805878E+02 -0.21720030049E+02 -0.36676282886E+02  0.47052600051E+02  0.00000000000E+00 0.  1.
</event>
<event>
 7    1  0.2648915E-009  0.1979036E+03  0.7561462E-02  0.1151520E+00
          2   -1    0    0  501    0  0.00000000000E+00  0.00000000000E+00  0.12808833605E+04  0.12808833605E+04  0.00000000000E+00 0. -1.
         -2   -1    0    0    0  501 -0.00000000000E+00 -0.00000000000E+00 -0.33774827914E+02  0.33774827914E+02  0.00000000000E+00 0.  1.
         25    2    1    2    0    0  0.11190298584E+03 -0.13706033533E+03  0.61188184595E+03  0.64911886589E+03  0.12509234546E+03 0.  0.
          5    1    3    3  502    0  0.10566439589E+03 -0.32361835082E+02  0.34703638947E+03  0.36423066997E+03  0.41800000000E+01 0.  1.
         -5    1    3    3    0  502  0.62385899483E+01 -0.10469850025E+03  0.26484545647E+03  0.28488819592E+03  0.41800000000E+01 0.  1.
        -11    1    1    2    0    0 -0.33378282910E+02  0.67697705687E+02  0.41315103711E+03  0.41998912913E+03  0.00000000000E+00 0. -1.
         11    1    1    2    0    0 -0.78524702933E+02  0.69362629643E+02  0.22207564956E+03  0.24555019342E+03  0.00000000000E+00 0.  1.
</event>
<event>
 7    1  0.2648915E-009  0.1714854E+03  0.7561462E-02  0.1176308E+00
          1   -1    0    0  501    0  0.00000000000E+00  0.00000000000E+00  0.11406612093E+04  0.11406612093E+04  0.00000000000E+00 0. -1.
         -1   -1    0    0    0  501 -0.00000000000E+00 -0.00000000000E+00 -0.13377779986E+03  0.13377779986E+03  0.00000000000E+00 0.  1.
         25    2    1    2    0    0  0.19146487668E+02  0.15030232858E+03  0.10692434223E+04  0.10871458503E+04  0.12508887133E+03 0.  0.
          5    1    3    3  502    0  0.17004123621E+02 -0.16309042793E+02  0.24846298825E+03  0.24961260791E+03  0.41800000000E+01 0. -1.
         -5    1    3    3    0  502  0.21423640462E+01  0.16661137138E+03  0.82078043407E+03  0.83753324241E+03  0.41800000000E+01 0. -1.
        -11    1    1    2    0    0 -0.21945308426E+02 -0.12548310296E+03 -0.85357823240E+02  0.15334133063E+03  0.00000000000E+00 0.  1.
         11    1    1    2    0    0  0.27988207585E+01 -0.24819225624E+02  0.22997810384E+02  0.33951828237E+02  0.00000000000E+00 0. -1.
</event>
<event>
 7    1  0.2648915E-009  0.9343144E+02  0.7561462E-02  0.1294748E+00
          2   -1    0    0  501    0  0.00000000000E+00  0.00000000000E+00  0.15987310073E+02  0.15987310073E+02  0.00000000000E+00 0.  1.
         -2   -1    0    0    0  501 -0.00000000000E+00 -0.00000000000E+00 -0.86234594044E+03  0.86234594044E+03  0.00000000000E+00 0. -1.
         25    2    1    2    0    0  0.36154213274E+02  0.28288331266E+02 -0.47118519732E+03  0.48966282893E+03  0.12508732569E+03 0.  0.
          5    1    3    3  502    0  0.19166658221E+02 -0.33232817211E+02 -0.35452864368E+03  0.35662278743E+03  0.41800000000E+01 0.  1.
         -5    1    3    3    0  502  0.16987555052E+02  0.61521148477E+02 -0.11665655364E+03  0.13304004150E+03  0.41800000000E+01 0.  1.
        -11    1    1    2    0    0 -0.55616628482E+02 -0.79849104992E+01 -0.33470627984E+03  0.33938954304E+03  0.00000000000E+00 0. -1.
         11    1    1    2    0    0  0.19462415208E+02 -0.20303420767E+02 -0.40467153205E+02  0.49280878535E+02  0.00000000000E+00 0.  1.
</event>
<event>
 7    1  0.3278146E-009  0.1748736E+03  0.7561462E-02  0.1172859E+00
         -2   -1    0    0    0  501 -0.00000000000E+00  0.00000000000E+00  0.34963820193E+02  0.34963820193E+02  0.00000000000E+00 0. -1.
          2   -1    0    0  501    0  0.00000000000E+00 -0.00000000000E+00 -0.10398545236E+04  0.10398545236E+04  0.00000000000E+00 0.  1.
         25    2    1    2    0    0  0.10894057587E+03  0.10682937840E+03 -0.62598029936E+03  0.65633796632E+03  0.12509047003E+03 0.  0.
          5    1    3    3  502    0  0.13135979955E+02  0.98498531897E+02 -0.35956047973E+03  0.37306262978E+03  0.41800000000E+01 0. -1.
         -5    1    3    3    0  502  0.95804595919E+02  0.83308465023E+01 -0.26641981963E+03  0.28327533654E+03  0.41800000000E+01 0. -1.
        -11    1    1    2    0    0 -0.23579366278E+02 -0.36382663389E+02 -0.30753252272E+02  0.53154936127E+02  0.00000000000E+00 0. -1.
         11    1    1    2    0    0 -0.85361209596E+02 -0.70446715011E+02 -0.34815715179E+03  0.36532544135E+03  0.00000000000E+00 0.  1.
</event>
<event>
 7    1  0.2648915E-009  0.1003380E+03  0.7561462E-02  0.1279587E+00
         -2   -1    0    0    0  501 -0.00000000000E+00  0.00000000000E+00  0.15383806885E+03  0.15383806885E+03  0.00000000000E+00 0.  1.
          2   -1    0    0  501    0  0.00000000000E+00 -0.00000000000E+00 -0.11059345146E+03  0.11059345146E+03  0.00000000000E+00 0. -1.
         25    2    1    2    0    0 -0.59438654788E+02 -0.35877725881E+02 -0.15058278549E+00  0.14307066759E+03  0.12509607649E+03 0.  0.
          5    1    3    3  502    0 -0.67184322834E+02 -0.47945093159E+02  0.45986315548E+02  0.94576312100E+02  0.41800000000E+01 0. -1.
         -5    1    3    3    0  502  0.77456680464E+01  0.12067367279E+02 -0.46136898333E+02  0.48494355490E+02  0.41800000000E+01 0. -1.
        -11    1    1    2    0    0  0.60270260170E+02 -0.65820227529E+01  0.49740444350E+02  0.78421547349E+02  0.00000000000E+00 0. -1.
         11    1    1    2    0    0 -0.83160538232E+00  0.42459748633E+02 -0.63452441756E+01  0.42939305364E+02  0.00000000000E+00 0.  1.
</event>
<event>
 7    1  0.2648915E-009  0.9790139E+02  0.7561462E-02  0.1284772E+00
          2   -1    0    0  501    0  0.00000000000E+00  0.00000000000E+00  0.18443581717E+03  0.18443581717E+03  0.00000000000E+00 0.  1.
         -2   -1    0    0    0  501 -0.00000000000E+00 -0.00000000000E+00 -0.71056948382E+02  0.71056948382E+02  0.00000000000E+00 0. -1.
         25    2    1    2    0    0  0.30163294576E+02 -0.31474776807E+02  0.50106083161E+02  0.14162702187E+03  0.12508840010E+03 0.  0.
          5    1    3    3  502    0  0.27604996045E+02  0.32972203530E+02  0.62338141903E+02  0.75846676580E+02  0.41800000000E+01 0.  1.
         -5    1    3    3    0  502  0.25582985313E+01 -0.64446980337E+02 -0.12232058742E+02  0.65780345294E+02  0.41800000000E+01 0.  1.
        -11    1    1    2    0    0  0.23090332463E+02 -0.47296700550E+01  0.37943878975E+02  0.44668458488E+02  0.00000000000E+00 0.  1.
         11    1    1    2    0    0 -0.53253627039E+02  0.36204446862E+02  0.25328906651E+02  0.69197285189E+02  0.00000000000E+00 0. -1.
</event>
<event>
 7    1  0.2648915E-009  0.1248471E+03  0.7561462E-02  0.1235308E+00
          2   -1    0    0  501    0  0.00000000000E+00  0.00000000000E+00  0.11584633804E+04  0.11584633804E+04  0.00000000000E+00 0. -1.
         -2   -1    0    0    0  501 -0.00000000000E+00 -0.00000000000E+00 -0.15595207276E+02  0.15595207276E+02  0.00000000000E+00 0.  1.
         25    2    1    2    0    0 -0.19087623668E+02  0.68048660043E+02  0.78385436045E+03  0.79691411147E+03  0.12509790225E+03 0.  0.
          5    1    3    3  502    0  0.22727761564E+01  0.10010674362E+03  0.64559319433E+03  0.65332577678E+03  0.41800000000E+01 0. -1.
         -5    1    3    3    0  502 -0.21360399825E+02 -0.32058083580E+02  0.13826116612E+03  0.14358833469E+03  0.41800000000E+01 0. -1.
        -11    1    1    2    0    0  0.51364529396E+02 -0.25574046316E+02  0.13173402474E+03  0.14368785613E+03  0.00000000000E+00 0.  1.
         11    1    1    2    0    0 -0.32276905727E+02 -0.42474613727E+02  0.22727978790E+03  0.23345662004E+03  0.00000000000E+00 0. -1.
</event>
<event>
 7    1  0.2648915E-009  0.1776349E+03  0.7561462E-02  0.1170112E+00
          1   -1    0    0  501    0  0.00000000000E+00  0.00000000000E+00  0.13137721580E+03  0.13137721580E+03  0.00000000000E+00 0. -1.
         -1   -1    0    0    0  501 -0.00000000000E+00 -0.00000000000E+00 -0.30075320413E+03  0.30075320413E+03  0.00000000000E+00 0.  1.
         25    2    1    2    0    0 -0.10682541420E+03 -0.10274627354E+03 -0.16922909192E+03  0.25740163320E+03  0.12509456175E+03 0.  0.
          5    1    3    3  502    0 -0.91992397333E+02 -0.12412296852E+03 -0.10196052872E+03  0.18515543281E+03  0.41800000000E+01 0.  1.
         -5    1    3    3    0  502 -0.14833016868E+02  0.21376694976E+02 -0.67268563193E+02  0.72246200395E+02  0.41800000000E+01 0.  1.
        -11    1    1    2    0    0  0.99714894707E+02  0.34150021267E+02 -0.56036513326E+01  0.10554944380E+03  0.00000000000E+00 0.  1.
         11    1    1    2    0    0  0.71105194937E+01  0.68596252274E+02  0.54567549149E+01  0.69179342927E+02  0.00000000000E+00 0. -1.
</event>
<event>
 7    1  0.2648915E-009  0.1271330E+03  0.7561462E-02  0.1231773E+00
         -2   -1    0    0    0  501 -0.00000000000E+00  0.00000000000E+00  0.71232774191E+02  0.71232774191E+02  0.00000000000E+00 0.  1.
          2   -1    0    0  501    0  0.00000000000E+00 -0.00000000000E+00 -0.31858867316E+03  0.31858867316E+03  0.00000000000E+00 0. -1.
         25    2    1    2    0    0 -0.88505471495E+02  0.30339722923E+02 -0.78190420683E+02  0.17468537525E+03  0.12509005223E+03 0.  0.
          5    1    3    3  502    0 -0.17977786604E+02 -0.45182772346E+02 -0.44138766357E+02  0.65805674706E+02  0.41800000000E+01 0.  1.
         -5    1    3    3    0  502 -0.70527684890E+02  0.75522495269E+02 -0.34051654326E+02  0.10887970054E+03  0.41800000000E+01 0.  1.
        -11    1    1    2    0    0  0.54351031380E+02  0.28374115287E+01 -0.19070624694E+02  0.57669526117E+02  0.00000000000E+00 0.  1.
         11    1    1    2    0    0  0.34154440114E+02 -0.33177134452E+02 -0.15009485359E+03  0.15746654599E+03  0.00000000000E+00 0. -1.
</event>
<event>
 7    1  0.2648915E-009  0.1870838E+03  0.7561462E-02  0.1161118E+00
         -2   -1    0    0    0  501 -0.00000000000E+00  0.00000000000E+00  0.33537331706E+03  0.33537331706E+03  0.00000000000E+00 0.  1.
          2   -1    0    0  501    0  0.00000000000E+00 -0.00000000000E+00 -0.11768132836E+03  0.11768132836E+03  0.00000000000E+00 0. -1.
         25    2    1    2    0    0 -0.52312885014E+02  0.15662025405E+03  0.95333817726E+02  0.22804253021E+03  0.12509323269E+03 0.  0.
          5    1    3    3  502    0  0.23616651962E+02  0.89958340350E+02  0.85560300885E+02  0.12644479719E+03  0.41800000000E+01 0.  1.
         -5    1    3    3    0  502 -0.75929536976E+02  0.66661913701E+02  0.97735168410E+01  0.10159773302E+03  0.41800000000E+01 0.  1.
        -11    1    1    2    0    0 -0.18069340790E+02 -0.36238792568E+02  0.15672256352E+01  0.40524157728E+02  0.00000000000E+00 0.  1.
         11    1    1    2    0    0  0.70382225805E+02 -0.12038146148E+03  0.12079094535E+03  0.18448795748E+03  0.00000000000E+00 0. -1.
</event>
<event>
 7    1  0.2648915E-009  0.9909180E+02  0.7561462E-02  0.1282217E+00
         -3   -1    0    0    0  501 -0.00000000000E+00  0.00000000000E+00  0.35955846152E+03  0.35955846152E+03  0.00000000000E+00 0.  1.
          3   -1    0    0  501    0  0.00000000000E+00 -0.00000000000E+00 -0.41857360220E+02  0.41857360220E+02  0.00000000000E+00 0. -1.
         25    2    1    2    0    0 -0.29025194601E+01 -0.33385975487E+02  0.10036115984E+03  0.16383907249E+03  0.12509129182E+03 0.  0.
          5    1    3    3  502    0  0.51180292340E+02 -0.66011418275E+01  0.87988107308E+02  0.10209004273E+03  0.41800000000E+01 0. -1.
         -5    1    3    3    0  502 -0.54082811800E+02 -0.26784833660E+02  0.12373052535E+02  0.61749029753E+02  0.41800000000E+01 0. -1.
        -11    1    1    2    0    0  0.40297568708E+02  0.90625988744E+01  0.52461065334E+02  0.66769664655E+02  0.00000000000E+00 0. -1.
         11    1    1    2    0    0 -0.37395049248E+02  0.24323376613E+02  0.16487887612E+03  0.17080708460E+03  0.00000000000E+00 0.  1.
</event>
<event>
 7    1  0.2648915E-009  0.1299027E+03  0.7561462E-02  0.1227600E+00
         -2   -1    0    0    0  501 -0.00000000000E+00  0.00000000000E+00  0.19660379954E+03  0.19660379954E+03  0.00000000000E+00 0.  1.
          2   -1    0    0  501    0  0.00000000000E+00 -0.00000000000E+00 -0.99323351293E+02  0.99323351293E+02  0.00000000000E+00 0. -1.
         25    2    1    2    0    0  0.38120692201E+02 -0.64636688510E+02  0.76920384819E+02  0.16491040939E+03  0.12509040270E+03 0.  0.
          5    1    3    3  502    0  0.49632753527E+02 -0.89865224089E+02  0.24756712486E+02  0.10568602527E+03  0.41800000000E+01 0. -1.
         -5    1    3    3    0  502 -0.11512061327E+02  0.25228535579E+02  0.52163672333E+02  0.59224384122E+02  0.41800000000E+01 0. -1.
        -11    1    1    2    0    0  0.35084250292E+02  0.36394921802E+02  0.13075577613E+02  0.52215569339E+02  0.00000000000E+00 0.  1.
         11    1    1    2    0    0 -0.73204942493E+02  0.28241766709E+02  0.72844858194E+01  0.78801172110E+02  0.00000000000E+00 0. -1.
</event>
<event>
 7    1  0.2648915E-009  0.1505937E+03  0.7561462E-02  0.1199745E+00
         -1   -1    0    0    0  501 -0.00000000000E+00  0.00000000000E+00  0.31817573360E+02  0.31817573360E+02  0.00000000000E+00 0. -1.
          1   -1    0    0  501    0  0.00000000000E+00 -0.00000000000E+00 -0.10209023745E+04  0.10209023745E+04  0.00000000000E+00 0.  1.
         25    2    1    2    0    0  0.65605996308E+02 -0.11537701673E+03 -0.36236394693E+03  0.40567287133E+03  0.12508735250E+03 0.  0.
          5    1    3    3  502    0  0.23811899317E+02 -0.99227433891E+02 -0.34079726841E+03  0.35577147264E+03  0.41800000000E+01 0. -1.
         -5    1    3    3    0  502  0.41794096991E+02 -0.16149582835E+02 -0.21566678523E+02  0.49901398693E+02  0.41800000000E+01 0. -1.
        -11    1    1    2    0    0  0.58472723071E+00  0.78078368335E+02 -0.41066469451E+03  0.41802160808E+03  0.00000000000E+00 0.  1.
         11    1    1    2    0    0 -0.66190723539E+02  0.37298648391E+02 -0.21605615971E+03  0.22902546846E+03  0.00000000000E+00 0. -1.
</event>
<event>
 7    1  0.2648915E-009  0.1094825E+03  0.7561462E-02  0.1261531E+00
         -2   -1    0    0    0  501 -0.00000000000E+00  0.00000000000E+00  0.27485621227E+02  0.27485621227E+02  0.00000000000E+00 0. -1.
          2   -1    0    0  501    0  0.00000000000E+00 -0.00000000000E+00 -0.49599087113E+03  0.49599087113E+03  0.00000000000E+00 0.  1.
         25    2    1    2    0    0  0.18257099245E+02 -0.88522344178E+01 -0.19145731919E+03  0.22959871884E+03  0.12509189779E+03 0.  0.
          5    1    3    3  502    0  0.11729388814E+02 -0.66721646118E+02 -0.93051435659E+02  0.11517551259E+03  0.41800000000E+01 0. -1.
         -5    1    3    3    0  502  0.65277104310E+01  0.57869411700E+02 -0.98405883534E+02  0.11442320625E+03  0.41800000000E+01 0. -1.
        -11    1    1    2    0    0 -0.21367005186E+02  0.48467352793E+02 -0.20351217576E+03  0.21029227014E+03  0.00000000000E+00 0.  1.
         11    1    1    2    0    0  0.31099059412E+01 -0.39615118375E+02 -0.73535754952E+02  0.83585503379E+02  0.00000000000E+00 0. -1.
</event>
<event>
 7    1  0.2648915E-009  0.1508833E+03  0.7561462E-02  0.1199392E+00
         -2   -1    0    0    0  501 -0.00000000000E+00  0.00000000000E+00  0.13257813745E+03  0.13257813745E+03  0.00000000000E+00 0.  1.
          2   -1    0    0  501    0  0.00000000000E+00 -0.00000000000E+00 -0.18569874921E+03  0.18569874921E+03  0.00000000000E+00 0. -1.
         25    2    1    2    0    0 -0.83169405633E+02 -0.80015800544E+02 -0.46095842310E+02  0.17633015145E+03  0.12509123575E+03 0.  0.
          5    1    3    3  502    0 -0.34140201254E+02  0.27266780657E+02 -0.37944686400E+02  0.58019843976E+02  0.41800000000E+01 0. -1.
         -5    1    3    3    0  502 -0.49029204379E+02 -0.10728258120E+03 -0.81511559099E+01  0.11831030747E+03  0.41800000000E+01 0. -1.
        -11    1    1    2    0    0  0.76800884652E+02  0.19824613280E+02 -0.15531791855E+02  0.80824672800E+02  0.00000000000E+00 0.  1.
         11    1    1    2    0    0  0.63685209809E+01  0.60191187264E+02  0.85070224050E+01  0.61122062416E+02  0.00000000000E+00 0. -1.
</event>
<event>
 7    1  0.2648915E-009  0.1536036E+03  0.7561462E-02  0.1196114E+00
          3   -1    0    0  501    0  0.00000000000E+00  0.00000000000E+00  0.15842299901E+03  0.15842299901E+03  0.00000000000E+00 0. -1.
         -3   -1    0    0    0  501 -0.00000000000E+00 -0.00000000000E+00 -0.21024269224E+03  0.21024269224E+03  0.00000000000E+00 0.  1.
         25    2    1    2    0    0 -0.13657538743E+03 -0.48664479034E+02 -0.16386575159E+02  0.19219074719E+03  0.12509074902E+03 0.  0.
          5    1    3    3  502    0 -0.81694445572E+02 -0.29568242027E+02 -0.71043214331E+02  0.11230705266E+03  0.41800000000E+01 0. -1.
         -5    1    3    3    0  502 -0.54880941858E+02 -0.19096237006E+02  0.54656639172E+02  0.79883694535E+02  0.41800000000E+01 0. -1.
        -11    1    1    2    0    0  0.13691747318E+03  0.60812155675E+02 -0.12268849311E+02  0.15031645753E+03  0.00000000000E+00 0.  1.
         11    1    1    2    0    0 -0.34208575379E+00 -0.12147676641E+02 -0.23164268761E+02  0.26158486532E+02  0.00000000000E+00 0. -1.
</event>
<event>
 7    1  0.3107448E-009  0.1413604E+03  0.7561462E-02  0.1211510E+00
         -2   -1    0    0    0  501 -0.00000000000E+00  0.00000000000E+00  0.40186139728E+03  0.40186139728E+03  0.00000000000E+00 0.  1.
          2   -1    0    0  501    0  0.00000000000E+00 -0.00000000000E+00 -0.73861303609E+02  0.73861303609E+02  0.00000000000E+00 0. -1.
         25    2    1    2    0    0 -0.10121702984E+03  0.86630560705E+01  0.54370531995E+02  0.17006546928E+03  0.12508466502E+03 0.  0.
          5    1    3    3  502    0 -0.10541647959E+02 -0.45960487899E+02 -0.66578260723E+01  0.47804726102E+02  0.41800000000E+01 0.  1.
         -5    1    3    3    0  502 -0.90675381880E+02  0.54623543970E+02  0.61028358068E+02  0.12226074318E+03  0.41800000000E+01 0.  1.
        -11    1    1    2    0    0  0.77761022965E+02 -0.42232895840E+02  0.22677420959E+03  0.24342747650E+03  0.00000000000E+00 0.  1.
         11    1    1    2    0    0  0.23456006874E+02  0.33569839769E+02  0.46855352090E+02  0.62229755102E+02  0.00000000000E+00 0. -1.
</event>
<event>
 7    1  0.2648915E-009  0.1093119E+03  0.7561462E-02  0.1261850E+00
         -2   -1    0    0    0  501 -0.00000000000E+00  0.00000000000E+00  0.14736565082E+02  0.14736565082E+02  0.00000000000E+00 0.  1.
          2   -1    0    0  501    0  0.00000000000E+00 -0.00000000000E+00 -0.85617116465E+03  0.85617116465E+03  0.00000000000E+00 0. -1.
         25    2    1    2    0    0  0.22066850812E+02  0.76091628728E+01 -0.52221311870E+03  0.53749332005E+03  0.12509069709E+03 0.  0.
          5    1    3    3  502    0  0.67200505274E+02 -0.24199445444E+02 -0.31334748826E+03  0.32141195041E+03  0.41800000000E+01 0.  1.
         -5    1    3    3    0  502 -0.45133654461E+02  0.31808608317E+02 -0.20886563044E+03  0.21608136964E+03  0.41800000000E+01 0.  1.
        -11    1    1    2    0    0  0.31331985862E+02  0.13716184508E+02 -0.73699202391E+02  0.81248996847E+02  0.00000000000E+00 0.  1.
         11    1    1    2    0    0 -0.53398836674E+02 -0.21325347381E+02 -0.24552227848E+03  0.25216541283E+03  0.00000000000E+00 0. -1.
</event>
<event>
 7    1  0.2648915E-009  0.1305678E+03  0.7561462E-02  0.1226616E+00
         -1   -1    0    0    0  501 -0.00000000000E+00  0.00000000000E+00  0.21371494180E+03  0.21371494180E+03  0.00000000000E+00 0.  1.
          1   -1    0    0  501    0  0.00000000000E+00 -0.00000000000E+00 -0.14960600554E+03  0.14960600554E+03  0.00000000000E+00 0. -1.
         25    2    1    2    0    0 -0.34404185980E+02  0.98485883259E+02 -0.63628828794E+02  0.17487235859E+03  0.12509435132E+03 0.  0.
          5    1    3    3  502    0  0.25235897115E+02  0.75104202264E+01  0.23420645958E+02  0.35485996848E+02  0.41800000000E+01 0. -1.
         -5    1    3    3    0  502 -0.59640083095E+02  0.90975463032E+02 -0.87049474752E+02  0.13938636174E+03  0.41800000000E+01 0. -1.
        -11    1    1    2    0    0 -0.18019995834E+02 -0.53771775018E+02  0.19173158550E+02  0.59864296932E+02  0.00000000000E+00 0. -1.
         11    1    1    2    0    0  0.52424181814E+02 -0.44714108241E+02  0.10856460651E+03  0.12858429181E+03  0.00000000000E+00 0.  1.
</event>
<event>
 7    1  0.2648915E-009  0.1378874E+03  0.7561462E-02  0.1216200E+00
          2   -1    0    0  501    0  0.00000000000E+00  0.00000000000E+00  0.40821443187E+02  0.40821443187E+02  0.00000000000E+00 0. -1.
         -2   -1    0    0    0  501 -0.00000000000E+00 -0.00000000000E+00 -0.91868096228E+03  0.91868096228E+03  0.00000000000E+00 0.  1.
         25    2    1    2    0    0  0.12215570024E+03 -0.27430540495E+02 -0.70655321455E+03  0.72838131363E+03  0.12508974136E+03 0.  0.
          5    1    3    3  502    0  0.28887173819E+02  0.19082462351E+02 -0.45120320308E+03  0.45254879521E+03  0.41800000000E+01 0.  1.
         -5    1    3    3    0  502  0.93268526426E+02 -0.46513002846E+02 -0.25535001148E+03  0.27583251842E+03  0.41800000000E+01 0.  1.
        -11    1    1    2    0    0 -0.68895073523E+02  0.42867467460E+02 -0.44097373375E+02  0.92351119434E+02  0.00000000000E+00 0. -1.
         11    1    1    2    0    0 -0.53260626722E+02 -0.15436926965E+02 -0.12720893117E+03  0.13876997240E+03  0.00000000000E+00 0.  1.
</event>
<event>
 7    1  0.2648915E-009  0.1514965E+03  0.7561462E-02  0.1198646E+00
         -1   -1    0    0    0  501 -0.00000000000E+00  0.00000000000E+00  0.94334282301E+02  0.94334282301E+02  0.00000000000E+00 0.  1.
          1   -1    0    0  501    0  0.00000000000E+00 -0.00000000000E+00 -0.32154054788E+03  0.32154054788E+03  0.00000000000E+00 0. -1.
         25    2    1    2    0    0  0.12431905385E+03  0.13003715959E+02 -0.18815437294E+03  0.25822002843E+03  0.12510472112E+03 0.  0.
          5    1    3    3  502    0  0.81787608552E+02  0.68293091884E+02 -0.10582156153E+03  0.15022927343E+03  0.41800000000E+01 0.  1.
         -5    1    3    3    0  502  0.42531445299E+02 -0.55289375925E+02 -0.82332811415E+02  0.10799075500E+03  0.41800000000E+01 0.  1.
        -11    1    1    2    0    0 -0.18794658326E+02  0.49563659009E+01 -0.46454789610E+02  0.50357245976E+02  0.00000000000E+00 0. -1.
         11    1    1    2    0    0 -0.10552439552E+03 -0.17960081860E+02  0.74028969769E+01  0.10729755577E+03  0.00000000000E+00 0.  1.
</event>
<event>
 7    1  0.2648915E-009  0.1137714E+03  0.7561462E-02  0.1253741E+00
          3   -1    0    0  501    0  0.00000000000E+00  0.00000000000E+00  0.65541398868E+03  0.65541398868E+03  0.00000000000E+00 0. -1.
         -3   -1    0    0    0  501 -0.00000000000E+00 -0.00000000000E+00 -0.28759573624E+02  0.28759573624E+02  0.00000000000E+00 0.  1.
         25    2    1    2    0    0  0.58079598614E+02  0.59207027995E+02  0.36002606295E+03  0.39005520819E+03  0.12508232285E+03 0.  0.
          5    1    3    3  502    0  0.26189434780E+02 -0.19175805237E+02  0.17312592659E+02  0.37024265897E+02  0.41800000000E+01 0. -1.
         -5    1    3    3    0  502  0.31890163834E+02  0.78382833232E+02  0.34271347029E+03  0.35303094229E+03  0.41800000000E+01 0. -1.
        -11    1    1    2    0    0  0.85624573174E+01 -0.39756367811E+02  0.39794718538E+02  0.56899069240E+02  0.00000000000E+00 0.  1.
         11    1    1    2    0    0 -0.66642055931E+02 -0.19450660184E+02  0.22683363356E+03  0.23721928487E+03  0.00000000000E+00 0. -1.
</event>
<event>
 7    1  0.2648915E-009  0.1226411E+03  0.7561462E-02  0.1238803E+00
          1   -1    0    0  501    0  0.00000000000E+00  0.00000000000E+00  0.35031708080E+03  0.35031708080E+03  0.00000000000E+00 0. -1.
         -1   -1    0    0    0  501 -0.00000000000E+00 -0.00000000000E+00 -0.47867206752E+02  0.47867206752E+02  0.00000000000E+00 0.  1.
         25    2    1    2    0    0 -0.64803331667E+02 -0.94912920236E+01  0.12588730137E+03  0.18916595600E+03  0.12508632956E+03 0.  0.
          5    1    3    3  502    0 -0.50561546413E+02  0.53422545686E+02  0.85855843561E+02  0.11313326936E+03  0.41800000000E+01 0.  1.
         -5    1    3    3    0  502 -0.14241785254E+02 -0.62913837709E+02  0.40031457809E+02  0.76032686634E+02  0.41800000000E+01 0.  1.
        -11    1    1    2    0    0 -0.20863092974E+02  0.11348364378E+01  0.63961801787E+02  0.67287952785E+02  0.00000000000E+00 0.  1.
         11    1    1    2    0    0  0.85666424641E+02  0.83564555858E+01  0.11260077089E+03  0.14173037877E+03  0.00000000000E+00 0. -1.
</event>
<event>
 7    1  0.2648915E-009  0.2652153E+03  0.7561462E-02  0.1104050E+00
          4   -1    0    0  501    0  0.00000000000E+00  0.00000000000E+00  0.61983485434E+02  0.61983485434E+02  0.00000000000E+00 0. -1.
         -4   -1    0    0    0  501 -0.00000000000E+00 -0.00000000000E+00 -0.13156726968E+04  0.13156726968E+04  0.00000000000E+00 0.  1.
         25    2    1    2    0    0  0.78306384812E+02  0.23899175426E+03 -0.44821933282E+03  0.52895855833E+03  0.12509051766E+03 0.  0.
          5    1    3    3  502    0  0.74917513987E+02  0.90165472014E+02 -0.28398573580E+03  0.30725855038E+03  0.41800000000E+01 0. -1.
         -5    1    3    3    0  502  0.33888708256E+01  0.14882628225E+03 -0.16423359702E+03  0.22170000795E+03  0.41800000000E+01 0. -1.
        -11    1    1    2    0    0  0.10134709449E+02 -0.92731586688E+02 -0.22455961893E+03  0.24316431062E+03  0.00000000000E+00 0. -1.
         11    1    1    2    0    0 -0.88441094262E+02 -0.14626016757E+03 -0.58091025962E+03  0.60553331330E+03  0.00000000000E+00 0.  1.
</event>
<event>
 7    1  0.2648915E-009  0.1438634E+03  0.7561462E-02  0.1208223E+00
         -3   -1    0    0    0  501 -0.00000000000E+00  0.00000000000E+00  0.17363216613E+03  0.17363216613E+03  0.00000000000E+00 0.  1.
          3   -1    0    0  501    0  0.00000000000E+00 -0.00000000000E+00 -0.13142548835E+03  0.13142548835E+03  0.00000000000E+00 0. -1.
         25    2    1    2    0    0  0.43373879482E+02 -0.85945754773E+02 -0.82718571050E+01  0.15806321748E+03  0.12509033102E+03 0.  0.
          5    1    3    3  502    0 -0.47077568092E+01 -0.10513887696E+03 -0.11900193006E+02  0.10599732740E+03  0.41800000000E+01 0.  1.
         -5    1    3    3    0  502  0.48081636291E+02  0.19193122189E+02  0.36283359009E+01  0.52065890074E+02  0.41800000000E+01 0.  1.
        -11    1    1    2    0    0 -0.36435234229E+02 -0.71299570212E+01 -0.64303257148E+01  0.37679061416E+02  0.00000000000E+00 0. -1.
         11    1    1    2    0    0 -0.69386452535E+01  0.93075711794E+02  0.56908860607E+02  0.10931537559E+03  0.00000000000E+00 0.  1.
</event>
<event>
 7    1  0.2648915E-009  0.8329067E+02  0.7561462E-02  0.1319964E+00
          2   -1    0    0  501    0  0.00000000000E+00  0.00000000000E+00  0.83728986979E+02  0.83728986979E+02  0.00000000000E+00 0. -1.
         -2   -1    0    0    0  501 -0.00000000000E+00 -0.00000000000E+00 -0.20591668117E+03  0.20591668117E+03  0.00000000000E+00 0.  1.
         25    2    1    2    0    0  0.14824677900E+02 -0.10174084755E+02 -0.14820221960E+03  0.19476987592E+03  0.12509246019E+03 0.  0.
          5    1    3    3  502    0  0.36001892619E+02  0.28745434606E+02 -0.70817879718E+01  0.46798081197E+02  0.41800000000E+01 0. -1.
         -5    1    3    3    0  502 -0.21177214719E+02 -0.38919519361E+02 -0.14112043163E+03  0.14797179472E+03  0.41800000000E+01 0. -1.
        -11    1    1    2    0    0 -0.44964660548E+02  0.70872509652E+01  0.40831138806E+02  0.61149257727E+02  0.00000000000E+00 0.  1.
         11    1    1    2    0    0  0.30139982648E+02  0.30868337898E+01 -0.14816613396E+02  0.33726534500E+02  0.00000000000E+00 0. -1.
</event>
<event>
 7    1  0.2648915E-009  0.1470942E+03  0.7561462E-02  0.1204090E+00
          2   -1    0    0  501    0  0.00000000000E+00  0.00000000000E+00  0.11689215027E+04  0.11689215027E+04  0.00000000000E+00 0. -1.
         -2   -1    0    0    0  501 -0.00000000000E+00 -0.00000000000E+00 -0.19769630247E+02  0.19769630247E+02  0.00000000000E+00 0.  1.
         25    2    1    2    0    0  0.10368289638E+03 -0.93999326552E+01  0.69334188825E+03  0.71218701774E+03  0.12509545355E+03 0.  0.
          5    1    3    3  502    0  0.60515531292E+01  0.44833363226E+02  0.12597161616E+03  0.13391404792E+03  0.41800000000E+01 0.  1.
         -5    1    3    3    0  502  0.97631343254E+02 -0.54233295881E+02  0.56737027209E+03  0.57827296982E+03  0.41800000000E+01 0.  1.
        -11    1    1    2    0    0 -0.18366768560E+02  0.41859787202E+02  0.11699943881E+03  0.12561229500E+03  0.00000000000E+00 0.  1.
         11    1    1    2    0    0 -0.85316127822E+02 -0.32459854547E+02  0.33881054541E+03  0.35089182023E+03  0.00000000000E+00 0. -1.
</event>
<event>
 7    1  0.2648915E-009  0.1207840E+03  0.7561462E-02  0.1241809E+00
         -2   -1    0    0    0  501 -0.00000000000E+00  0.00000000000E+00  0.74185956662E+02  0.74185956662E+02  0.00000000000E+00 0.  1.
          2   -1    0    0  501    0  0.00000000000E+00 -0.00000000000E+00 -0.24564982217E+03  0.24564982217E+03  0.00000000000E+00 0. -1.
         25    2    1    2    0    0  0.55301154348E+01  0.79377505693E+02 -0.89997425504E+02  0.17343557585E+03  0.12509593033E+03 0.  0.
          5    1    3    3  502    0 -0.50526464730E+02  0.54367541861E+02 -0.83142775106E+02  0.11153002600E+03  0.41800000000E+01 0.  1.
         -5    1    3    3    0  502  0.56056580165E+02  0.25009963832E+02 -0.68546503970E+01  0.61905549854E+02  0.41800000000E+01 0.  1.
        -11    1    1    2    0    0 -0.86181975596E+01 -0.92156067361E+02 -0.91278883303E+02  0.12999557153E+03  0.00000000000E+00 0. -1.
         11    1    1    2    0    0  0.30880821248E+01  0.12778561668E+02  0.98124432998E+01  0.16404631450E+02  0.00000000000E+00 0.  1.
</event>
<event>
 7    1  0.5383935E-009  0.2028813E+03  0.7561462E-02  0.1147331E+00
          2   -1    0    0  501    0  0.00000000000E+00  0.00000000000E+00  0.18324526611E+04  0.18324526611E+04  0.00000000000E+00 0. -1.
         -2   -1    0    0    0  501 -0.00000000000E+00 -0.00000000000E+00 -0.24941128157E+02  0.24941128157E+02  0.00000000000E+00 0.  1.
         25    2    1    2    0    0 -0.17558668238E+02  0.18256857106E+03  0.99300485422E+03  0.10175186611E+04  0.12508395278E+03 0.  0.
          5    1    3    3  502    0 -0.61317206026E+02  0.10425446175E+03  0.72059117833E+03  0.73068318116E+03  0.41800000000E+01 0.  1.
         -5    1    3    3    0  502  0.43758537788E+02  0.78314109316E+02  0.27241367589E+03  0.28683547995E+03  0.41800000000E+01 0.  1.
        -11    1    1    2    0    0  0.40353396189E+02 -0.77015904002E+02  0.49593244812E+03  0.50349661285E+03  0.00000000000E+00 0.  1.
         11    1    1    2    0    0 -0.22794727951E+02 -0.10555266706E+03  0.31857423064E+03  0.33637851532E+03  0.00000000000E+00 0. -1.
</event>
<event>
 7    1  0.2648915E-009  0.1391861E+03  0.7561462E-02  0.1214428E+00
         -1   -1    0    0    0  501 -0.00000000000E+00  0.00000000000E+00  0.58724059141E+03  0.58724059141E+03  0.00000000000E+00 0.  1.
          1   -1    0    0  501    0  0.00000000000E+00 -0.00000000000E+00 -0.36186980762E+02  0.36186980762E+02  0.00000000000E+00 0. -1.
         25    2    1    2    0    0 -0.66121765338E+02  0.73112934327E+02  0.28506543336E+03  0.32653854678E+03  0.12509009642E+03 0.  0.
          5    1    3    3  502    0 -0.39990983890E+02  0.10060286166E+03  0.25780263084E+03  0.27964242067E+03  0.41800000000E+01 0. -1.
         -5    1    3    3    0  502 -0.26130781449E+02 -0.27489927333E+02  0.27262802516E+02  0.46896126119E+02  0.41800000000E+01 0. -1.
        -11    1    1    2    0    0  0.79492352402E+02 -0.27142114145E+02  0.16767529175E+03  0.18753861446E+03  0.00000000000E+00 0. -1.
         11    1    1    2    0    0 -0.13370587063E+02 -0.45970820183E+02  0.98312885540E+02  0.10935041093E+03  0.00000000000E+00 0.  1.
</event>
<event>
 7    1  0.2648915E-009  0.1291430E+03  0.7561462E-02  0.1228733E+00
         -2   -1    0    0    0  501 -0.00000000000E+00  0.00000000000E+00  0.90201212670E+02  0.90201212670E+02  0.00000000000E+00 0.  1.
          2   -1    0    0  501    0  0.00000000000E+00 -0.00000000000E+00 -0.27360159917E+03  0.27360159917E+03  0.00000000000E+00 0. -1.
         25    2    1    2    0    0 -0.92398454724E+02 -0.42772555815E+02 -0.15768425467E+03  0.22556447753E+03  0.12509213959E+03 0.  0.
          5    1    3    3  502    0 -0.42495761054E+01 -0.61587939517E+02 -0.10270138656E+03  0.11990071056E+03  0.41800000000E+01 0. -1.
         -5    1    3    3    0  502 -0.88148878619E+02  0.18815383702E+02 -0.54982868109E+02  0.10566376697E+03  0.41800000000E+01 0. -1.
        -11    1    1    2    0    0  0.75187369690E+02  0.46720364815E+02 -0.54874746359E+02  0.10414975198E+03  0.00000000000E+00 0. -1.
         11    1    1    2    0    0  0.17211085034E+02 -0.39478090000E+01  0.29158614528E+02  0.34088582328E+02  0.00000000000E+00 0.  1.
</event>
<event>
 7    1  0.2648915E-009  0.1290784E+03  0.7561462E-02  0.1228830E+00
          1   -1    0    0  501    0  0.00000000000E+00  0.00000000000E+00  0.97828172616E+03  0.97828172616E+03  0.00000000000E+00 0. -1.
         -1   -1    0    0    0  501 -0.00000000000E+00 -0.00000000000E+00 -0.23823614347E+02  0.23823614347E+02  0.00000000000E+00 0.  1.
         25    2    1    2    0    0 -0.76354447266E+02 -0.42550207866E+02  0.31745495289E+03  0.35223228078E+03  0.12509760471E+03 0.  0.
          5    1    3    3  502    0 -0.63453680552E+02 -0.74070798205E+02  0.13511964244E+03  0.16669625939E+03  0.41800000000E+01 0.  1.
         -5    1    3    3    0  502 -0.12900766715E+02  0.31520590339E+02  0.18233531045E+03  0.18553602139E+03  0.41800000000E+01 0.  1.
        -11    1    1    2    0    0  0.45618125021E+02 -0.24989863950E+02  0.20218299352E+03  0.20876654305E+03  0.00000000000E+00 0.  1.
         11    1    1    2    0    0  0.30736322245E+02  0.67540071816E+02  0.43482016540E+03  0.44110651667E+03  0.00000000000E+00 0. -1.
</event>
<event>
 7    1  0.2648915E-009  0.1960864E+03  0.7561462E-02  0.1153084E+00
          1   -1    0    0  501    0  0.00000000000E+00  0.00000000000E+00  0.11850170862E+04  0.11850170862E+04  0.00000000000E+00 0. -1.
         -1   -1    0    0    0  501 -0.00000000000E+00 -0.00000000000E+00 -0.33817604555E+02  0.33817604555E+02  0.00000000000E+00 0.  1.
         25    2    1    2    0    0  0.57767563414E+02  0.15712252482E+03  0.66226336297E+03  0.69445263867E+03  0.12508847361E+03 0.  0.
          5    1    3    3  502    0  0.43639062762E+02  0.17456564455E+03  0.51765265589E+03  0.54805043254E+03  0.41800000000E+01 0. -1.
         -5    1    3    3    0  502  0.14128500652E+02 -0.17443119731E+02  0.14461070708E+03  0.14640220613E+03  0.41800000000E+01 0. -1.
        -11    1    1    2    0    0  0.22046811464E+02 -0.58273200211E+02  0.15068714373E+03  0.16305963033E+03  0.00000000000E+00 0.  1.
         11    1    1    2    0    0 -0.79814374878E+02 -0.98849324607E+02  0.33824897494E+03  0.36132242175E+03  0.00000000000E+00 0. -1.
</event>
<event>
 7    1  0.2648915E-009  0.1280827E+03  0.7561462E-02  0.1230329E+00
         -1   -1    0    0    0  501 -0.00000000000E+00  0.00000000000E+00  0.75519692172E+02  0.75519692172E+02  0.00000000000E+00 0.  1.
          1   -1    0    0  501    0  0.00000000000E+00 -0.00000000000E+00 -0.53888532946E+03  0.53888532946E+03  0.00000000000E+00 0. -1.
         25    2    1    2    0    0 -0.25748193283E+02  0.67237471960E+02 -0.75052289776E+01  0.14452523073E+03  0.12508943505E+03 0.  0.
          5    1    3    3  502    0 -0.40238171638E+02  0.10019160060E+03 -0.70695563707E+01  0.10828166195E+03  0.41800000000E+01 0.  1.
         -5    1    3    3    0  502  0.14489978354E+02 -0.32954128640E+02 -0.43567260691E+00  0.36243568778E+02  0.41800000000E+01 0.  1.
        -11    1    1    2    0    0 -0.72390567400E+01 -0.77103568858E+02 -0.27136617671E+03  0.28220022348E+03  0.00000000000E+00 0.  1.
         11    1    1    2    0    0  0.32987250023E+02  0.98660968979E+01 -0.18449423160E+03  0.18767956742E+03  0.00000000000E+00 0. -1.
</event>
<event>
 7    1  0.2648915E-009  0.1070922E+03  0.7561462E-02  0.1266051E+00
          2   -1    0    0  501    0  0.00000000000E+00  0.00000000000E+00  0.53665659265E+03  0.53665659265E+03  0.00000000000E+00 0.  1.
         -2   -1    0    0    0  501 -0.00000000000E+00 -0.00000000000E+00 -0.27913688286E+02  0.27913688286E+02  0.00000000000E+00 0. -1.
         25    2    1    2    0    0  0.22975941768E+02  0.28910021111E+02  0.18387088790E+03  0.22542982638E+03  0.12508565058E+03 0.  0.
          5    1    3    3  502    0  0.51937442379E+02 -0.23807720935E+02  0.41265419477E+02  0.70601789933E+02  0.41800000000E+01 0.  1.
         -5    1    3    3    0  502 -0.28961500611E+02  0.52717742046E+02  0.14260546843E+03  0.15482803644E+03  0.41800000000E+01 0.  1.
        -11    1    1    2    0    0  0.26202371764E+02  0.15412513601E+02  0.12245294540E+03  0.12616986050E+03  0.00000000000E+00 0.  1.
         11    1    1    2    0    0 -0.49178313532E+02 -0.44322534712E+02  0.20241907106E+03  0.21297059406E+03  0.00000000000E+00 0. -1.
</event>
<event>
 7    1  0.2648915E-009  0.8020435E+02  0.7561462E-02  0.1328473E+00
         -2   -1    0    0    0  501 -0.00000000000E+00  0.00000000000E+00  0.91879195638E+02  0.91879195638E+02  0.00000000000E+00 0.  1.
          2   -1    0    0  501    0  0.00000000000E+00 -0.00000000000E+00 -0.16079130781E+03  0.16079130781E+03  0.00000000000E+00 0. -1.
         25    2    1    2    0    0  0.34860354473E+02 -0.66172539244E+01  0.54398978156E+01  0.13012736204E+03  0.12507799767E+03 0.  0.
          5    1    3    3  502    0  0.71431598956E+02  0.22223900654E+02  0.25635924145E+02  0.79189949466E+02  0.41800000000E+01 0. -1.
         -5    1    3    3    0  502 -0.36571244483E+02 -0.28841154578E+02 -0.20196026329E+02  0.50937412576E+02  0.41800000000E+01 0. -1.
        -11    1    1    2    0    0 -0.15745942791E+02 -0.47931995204E+01  0.19827212868E+02  0.25768737768E+02  0.00000000000E+00 0.  1.
         11    1    1    2    0    0 -0.19114411682E+02  0.11410453445E+02 -0.94179222853E+02  0.96774403635E+02  0.00000000000E+00 0. -1.
</event>
<event>
 7    1  0.2648915E-009  0.1079623E+03  0.7561462E-02  0.1264391E+00
         -2   -1    0    0    0  501 -0.00000000000E+00  0.00000000000E+00  0.45276956950E+02  0.45276956950E+02  0.00000000000E+00 0.  1.
          2   -1    0    0  501    0  0.00000000000E+00 -0.00000000000E+00 -0.26637695486E+03  0.26637695486E+03  0.00000000000E+00 0. -1.
         25    2    1    2    0    0 -0.20077136357E+02 -0.72368797087E+01 -0.13798596059E+03  0.18746359235E+03  0.12508800623E+03 0.  0.
          5    1    3    3  502    0 -0.71809756728E+02 -0.61310081695E+01 -0.60479111718E+02  0.94177628855E+02  0.41800000000E+01 0. -1.
         -5    1    3    3    0  502  0.51732620370E+02 -0.11058715392E+01 -0.77506848875E+02  0.93285963492E+02  0.41800000000E+01 0. -1.
        -11    1    1    2    0    0 -0.12524035212E+01  0.46829888521E+02 -0.48580268177E+02  0.67488142882E+02  0.00000000000E+00 0.  1.
         11    1    1    2    0    0  0.21329539879E+02 -0.39593008812E+02 -0.34533769144E+02  0.56702176586E+02  0.00000000000E+00 0. -1.
</event>
<event>
 7    1  0.2648915E-009  0.3095205E+03  0.7561462E-02  0.1080576E+00
          2   -1    0    0  501    0  0.00000000000E+00  0.00000000000E+00  0.11586540548E+04  0.11586540548E+04  0.00000000000E+00 0. -1.
         -2   -1    0    0    0  501 -0.00000000000E+00 -0.00000000000E+00 -0.93913259233E+02  0.93913259233E+02  0.00000000000E+00 0.  1.
         25    2    1    2    0    0 -0.28748589852E+03 -0.54511985131E+02  0.34132713454E+03  0.46666134900E+03  0.12509557747E+03 0.  0.
          5    1    3    3  502    0 -0.25016446212E+02 -0.42523010683E+02  0.91725477256E+02  0.10423562057E+03  0.41800000000E+01 0.  1.
         -5    1    3    3    0  502 -0.26246945230E+03 -0.11988974449E+02  0.24960165729E+03  0.36242572842E+03  0.41800000000E+01 0.  1.
        -11    1    1    2    0    0  0.15621279303E+03 -0.17219676805E+02  0.38975431846E+03  0.42024681168E+03  0.00000000000E+00 0.  1.
         11    1    1    2    0    0  0.13127310548E+03  0.71731661936E+02  0.33365934256E+03  0.36565915334E+03  0.00000000000E+00 0. -1.
</event>
<event>
 7    1  0.2648915E-009  0.1343230E+03  0.7561462E-02  0.1221179E+00
         -1   -1    0    0    0  501 -0.00000000000E+00  0.00000000000E+00  0.33379643750E+03  0.33379643750E+03  0.00000000000E+00 0.  1.
          1   -1    0    0  501    0  0.00000000000E+00 -0.00000000000E+00 -0.72724847156E+02  0.72724847156E+02  0.00000000000E+00 0. -1.
         25    2    1    2    0    0  0.78997652865E+02 -0.52606363015E+02  0.65577950792E+02  0.17016355962E+03  0.12508841196E+03 0.  0.
          5    1    3    3  502    0  0.70936112879E+02  0.26094587867E+02  0.18205879018E+02  0.77857472712E+02  0.41800000000E+01 0.  1.
         -5    1    3    3    0  502  0.80615399863E+01 -0.78700950882E+02  0.47372071774E+02  0.92306086912E+02  0.41800000000E+01 0.  1.
        -11    1    1    2    0    0 -0.24819886005E+02  0.54104085843E+02  0.40071276824E+02  0.71756435757E+02  0.00000000000E+00 0. -1.
         11    1    1    2    0    0 -0.54177766860E+02 -0.14977228279E+01  0.15542236273E+03  0.16460128928E+03  0.00000000000E+00 0.  1.
</event>
<event>
 7    1  0.2648915E-009  0.1037234E+03  0.7561462E-02  0.1272655E+00
         -1   -1    0    0    0  501 -0.00000000000E+00  0.00000000000E+00  0.55740544069E+02  0.55740544069E+02  0.00000000000E+00 0.  1.
          1   -1    0    0  501    0  0.00000000000E+00 -0.00000000000E+00 -0.24663852883E+03  0.24663852883E+03  0.00000000000E+00 0. -1.
         25    2    1    2    0    0 -0.40753199149E+02 -0.11925339292E+01 -0.86538258918E+02  0.15747865876E+03  0.12509361427E+03 0.  0.
          5    1    3    3  502    0 -0.31506292845E+02  0.51286301235E+02 -0.57502940261E+01  0.60609153307E+02  0.41800000000E+01 0. -1.
         -5    1    3    3    0  502 -0.92469063038E+01 -0.52478835164E+02 -0.80787964891E+02  0.96869505458E+02  0.41800000000E+01 0. -1.
        -11    1    1    2    0    0  0.67158181218E+02 -0.98599281096E+00 -0.47785891490E+02  0.82429878756E+02  0.00000000000E+00 0.  1.
         11    1    1    2    0    0 -0.26404982069E+02  0.21785267401E+01 -0.56573834352E+02  0.62470535376E+02  0.00000000000E+00 0. -1.
</event>
<event>
 7    1  0.2648915E-009  0.1343316E+03  0.7561462E-02  0.1221166E+00
          2   -1    0    0  501    0  0.00000000000E+00  0.00000000000E+00  0.89999131360E+03  0.89999131360E+03  0.00000000000E+00 0. -1.
         -2   -1    0    0    0  501 -0.00000000000E+00 -0.00000000000E+00 -0.25934509745E+02  0.25934509745E+02  0.00000000000E+00 0.  1.
         25    2    1    2    0    0 -0.23158237927E+02  0.87949806572E+02  0.62125600350E+03  0.64021720298E+03  0.12509025798E+03 0.  0.
          5    1    3    3  502    0 -0.59431171251E+02  0.88225780677E+02  0.33162631557E+03  0.34829490101E+03  0.41800000000E+01 0.  1.
         -5    1    3    3    0  502  0.36272933323E+02 -0.27597410505E+00  0.28962968794E+03  0.29192230197E+03  0.41800000000E+01 0.  1.
        -11    1    1    2    0    0  0.38528341113E+02 -0.99347061575E+02  0.24026376028E+03  0.26283254406E+03  0.00000000000E+00 0. -1.
         11    1    1    2    0    0 -0.15370103186E+02  0.11397255003E+02  0.12537040078E+02  0.22876076313E+02  0.00000000000E+00 0.  1.
</event>
<event>
 7    1  0.2648915E-009  0.2966630E+03  0.7561462E-02  0.1086921E+00
         -2   -1    0    0    0  501 -0.00000000000E+00  0.00000000000E+00  0.21006001538E+03  0.21006001538E+03  0.00000000000E+00 0.  1.
          2   -1    0    0  501    0  0.00000000000E+00 -0.00000000000E+00 -0.43970396932E+03  0.43970396932E+03  0.00000000000E+00 0. -1.
         25    2    1    2    0    0  0.24429827006E+03  0.14291547569E+03 -0.96020912975E+02  0.32399825671E+03  0.12509347175E+03 0.  0.
          5    1    3    3  502    0  0.38348949262E+02  0.85802820515E+02 -0.14343733873E+02  0.95162918300E+02  0.41800000000E+01 0.  1.
         -5    1    3    3    0  502  0.20594932080E+03  0.57112655177E+02 -0.81677179101E+02  0.22883533841E+03  0.41800000000E+01 0.  1.
        -11    1    1    2    0    0 -0.17401212174E+03 -0.81511099062E+02 -0.45641991264E+02  0.19750308643E+03  0.00000000000E+00 0.  1.
         11    1    1    2    0    0 -0.70286148327E+02 -0.61404376630E+02 -0.87981049693E+02  0.12826264156E+03  0.00000000000E+00 0. -1.
</event>
<event>
 7    1  0.2648915E-009  0.1588023E+03  0.7561462E-02  0.1190056E+00
          2   -1    0    0  501    0  0.00000000000E+00  0.00000000000E+00  0.59590116992E+03  0.59590116992E+03  0.00000000000E+00 0. -1.
         -2   -1    0    0    0  501 -0.00000000000E+00 -0.00000000000E+00 -0.54761932935E+02  0.54761932935E+02  0.00000000000E+00 0.  1.
         25    2    1    2    0    0 -0.12152954907E+03  0.80231598884E+02  0.27378763142E+03  0.33438635521E+03  0.12509207278E+03 0.  0.
          5    1    3    3  502    0 -0.11850634795E+03  0.56686684943E+02  0.28015727694E+03  0.30945550080E+03  0.41800000000E+01 0.  1.
         -5    1    3    3    0  502 -0.30232011241E+01  0.23544913941E+02 -0.63696455173E+01  0.24930854409E+02  0.41800000000E+01 0.  1.
        -11    1    1    2    0    0  0.24139321738E+02 -0.57065018493E+02  0.61124608895E+02  0.87036434912E+02  0.00000000000E+00 0. -1.
         11    1    1    2    0    0  0.97390227334E+02 -0.23166580391E+02  0.20622699667E+03  0.22924031273E+03  0.00000000000E+00 0.  1.
</event>
<event>
 7    1  0.2648915E-009  0.1304375E+03  0.7561462E-02  0.1226808E+00
          2   -1    0    0  501    0  0.00000000000E+00  0.00000000000E+00  0.25188788945E+03  0.25188788945E+03  0.00000000000E+00 0. -1.
         -2   -1    0    0    0  501 -0.00000000000E+00 -0.00000000000E+00 -0.10039849373E+03  0.10039849373E+03  0.00000000000E+00 0.  1.
         25    2    1    2    0    0  0.10012764733E+03 -0.58385207337E+02  0.74999715553E+02  0.18629743843E+03  0.12508956806E+03 0.  0.
          5    1    3    3  502    0  0.81500407739E+02 -0.42008730478E+02  0.10995764346E+03  0.14323130124E+03  0.41800000000E+01 0. -1.
         -5    1    3    3    0  502  0.18627239587E+02 -0.16376476860E+02 -0.34957927909E+02  0.43066137192E+02  0.41800000000E+01 0. -1.
        -11    1    1    2    0    0 -0.13997344833E+02  0.56054550290E+02  0.13706258548E+02  0.59379287584E+02  0.00000000000E+00 0.  1.
         11    1    1    2    0    0 -0.86130302493E+02  0.23306570468E+01  0.62783421621E+02  0.10660965716E+03  0.00000000000E+00 0. -1.
</event>
<event>
 7    1  0.2648915E-009  0.1382326E+03  0.7561462E-02  0.1215727E+00
         -2   -1    0    0    0  501 -0.00000000000E+00  0.00000000000E+00  0.16599849875E+03  0.16599849875E+03  0.00000000000E+00 0. -1.
          2   -1    0    0  501    0  0.00000000000E+00 -0.00000000000E+00 -0.17715158714E+03  0.17715158714E+03  0.00000000000E+00 0.  1.
         25    2    1    2    0    0  0.83714221104E+02  0.42963289124E+02  0.87856666137E+02  0.17949993578E+03  0.12509004010E+03 0.  0.
          5    1    3    3  502    0 -0.22117646873E+02 -0.14561842302E+02  0.43443478966E+02  0.51049444846E+02  0.41800000000E+01 0. -1.
         -5    1    3    3    0  502  0.10583186798E+03  0.57525131426E+02  0.44413187171E+02  0.12845049093E+03  0.41800000000E+01 0. -1.
        -11    1    1    2    0    0 -0.39597973610E+02  0.25921443571E+02 -0.47089319580E+02  0.66763199214E+02  0.00000000000E+00 0.  1.
         11    1    1    2    0    0 -0.44116247494E+02 -0.68884732695E+02 -0.51920434947E+02  0.96886950909E+02  0.00000000000E+00 0. -1.
</event>
<event>
 7    1  0.2648915E-009  0.9317145E+02  0.7561462E-02  0.1295348E+00
         -2   -1    0    0    0  501 -0.00000000000E+00  0.00000000000E+00  0.73964412373E+03  0.73964412373E+03  0.00000000000E+00 0.  1.
          2   -1    0    0  501    0  0.00000000000E+00 -0.00000000000E+00 -0.19878113939E+02  0.19878113939E+02  0.00000000000E+00 0. -1.
         25    2    1    2    0    0 -0.41245366339E+02 -0.37986194506E+01  0.36296878348E+03  0.38614839228E+03  0.12509449757E+03 0.  0.
          5    1    3    3  502    0 -0.54797177795E+02  0.22073887838E+02  0.69976316367E+02  0.91674121053E+02  0.41800000000E+01 0.  1.
         -5    1    3    3    0  502  0.13551811456E+02 -0.25872507288E+02  0.29299246712E+03  0.29447427123E+03  0.41800000000E+01 0.  1.
        -11    1    1    2    0    0 -0.11881293438E+02  0.34338285509E+02  0.58643628332E+02  0.68988101361E+02  0.00000000000E+00 0. -1.
         11    1    1    2    0    0  0.53126659776E+02 -0.30539666058E+02  0.29815359797E+03  0.30438574403E+03  0.00000000000E+00 0.  1.
</event>
<event>
 7    1  0.2648915E-009  0.1203452E+03  0.7561462E-02  0.1242529E+00
         -2   -1    0    0    0  501 -0.00000000000E+00  0.00000000000E+00  0.40449204715E+02  0.40449204715E+02  0.00000000000E+00 0.  1.
          2   -1    0    0  501    0  0.00000000000E+00 -0.00000000000E+00 -0.43985092326E+03  0.43985092326E+03  0.00000000000E+00 0. -1.
         25    2    1    2    0    0 -0.22303981613E+02  0.66662071445E+02 -0.28071490123E+03  0.31526106346E+03  0.12508949995E+03 0.  0.
          5    1    3    3  502    0  0.43183257975E+02 -0.16948216775E+01 -0.13168413979E+03  0.13865731593E+03  0.41800000000E+01 0. -1.
         -5    1    3    3    0  502 -0.65487239588E+02  0.68356893122E+02 -0.14903076144E+03  0.17660374753E+03  0.41800000000E+01 0. -1.
        -11    1    1    2    0    0 -0.27287636495E+02 -0.16050385436E+02 -0.64531741885E+01  0.32309030243E+02  0.00000000000E+00 0.  1.
         11    1    1    2    0    0  0.49591618108E+02 -0.50611686009E+02 -0.11223364313E+03  0.13273003427E+03  0.00000000000E+00 0. -1.
</event>
<event>
 7    1  0.2648915E-009  0.1050449E+03  0.7561462E-02  0.1270031E+00
         -2   -1    0    0    0  501 -0.00000000000E+00  0.00000000000E+00  0.43580742756E+02  0.43580742756E+02  0.00000000000E+00 0.  1.
          2   -1    0    0  501    0  0.00000000000E+00 -0.00000000000E+00 -0.33135848607E+03  0.33135848607E+03  0.00000000000E+00 0. -1.
         25    2    1    2    0    0 -0.39555685504E+01  0.31935754891E+02 -0.23080570400E+03  0.26448947915E+03  0.12509145702E+03 0.  0.
          5    1    3    3  502    0 -0.13570083985E+02  0.79097738695E+02 -0.15506540746E+03  0.17465208970E+03  0.41800000000E+01 0. -1.
         -5    1    3    3    0  502  0.96145154346E+01 -0.47161983803E+02 -0.75740296538E+02  0.89837389449E+02  0.41800000000E+01 0. -1.
        -11    1    1    2    0    0 -0.12002254701E+02  0.22058033139E+02  0.61623348240E+01  0.25857016734E+02  0.00000000000E+00 0.  1.
         11    1    1    2    0    0  0.15957823252E+02 -0.53993788031E+02 -0.63134374144E+02  0.84592732947E+02  0.00000000000E+00 0. -1.
</event>
<event>
 7    1  0.2648915E-009  0.4764996E+02  0.7561462E-02  0.1458445E+00
         -2   -1    0    0    0  501 -0.00000000000E+00  0.00000000000E+00  0.19465140157E+03  0.19465140157E+03  0.00000000000E+00 0.  1.
          2   -1    0    0  501    0  0.00000000000E+00 -0.00000000000E+00 -0.81619485324E+02  0.81619485324E+02  0.00000000000E+00 0. -1.
         25    2    1    2    0    0 -0.23294900993E+01 -0.12802591500E+02  0.13347507076E+03  0.18338958177E+03  0.12508721483E+03 0.  0.
          5    1    3    3  502    0  0.75705727945E+01 -0.10509094676E+02  0.15691381836E+03  0.15750293151E+03  0.41800000000E+01 0.  1.
         -5    1    3    3    0  502 -0.99000628938E+01 -0.22934968238E+01 -0.23438747593E+02  0.25886650261E+02  0.41800000000E+01 0.  1.
        -11    1    1    2    0    0  0.28141896824E+02 -0.15718784482E+02  0.19300193160E+02  0.37570520338E+02  0.00000000000E+00 0.  1.
         11    1    1    2    0    0 -0.25812406725E+02  0.28521375981E+02 -0.39743347678E+02  0.55310784784E+02  0.00000000000E+00 0. -1.
</event>
<event>
 7    1  0.2648915E-009  0.2252701E+03  0.7561462E-02  0.1130014E+00
          2   -1    0    0  501    0  0.00000000000E+00  0.00000000000E+00  0.82112686974E+03  0.82112686974E+03  0.00000000000E+00 0. -1.
         -2   -1    0    0    0  501 -0.00000000000E+00 -0.00000000000E+00 -0.10807227401E+03  0.10807227401E+03  0.00000000000E+00 0.  1.
         25    2    1    2    0    0  0.20268969769E+03  0.24991056889E+01  0.68942577486E+02  0.24797753674E+03  0.12510164130E+03 0.  0.
          5    1    3    3  502    0  0.18424844579E+03  0.38344124522E+02  0.82101893787E+02  0.20536785295E+03  0.41800000000E+01 0. -1.
         -5    1    3    3    0  502  0.18441251901E+02 -0.35845018833E+02 -0.13159316301E+02  0.42609683786E+02  0.41800000000E+01 0. -1.
        -11    1    1    2    0    0 -0.18624177896E+03  0.26810433834E+02  0.54704930004E+03  0.57850474178E+03  0.00000000000E+00 0. -1.
         11    1    1    2    0    0 -0.16447918728E+02 -0.29309539523E+02  0.97062718202E+02  0.10271686523E+03  0.00000000000E+00 0.  1.
</event>
<event>
 7    1  0.2648915E-009  0.1061315E+03  0.7561462E-02  0.1267906E+00
          2   -1    0    0  501    0  0.00000000000E+00  0.00000000000E+00  0.26586849110E+03  0.26586849110E+03  0.00000000000E+00 0.  1.
         -2   -1    0    0    0  501 -0.00000000000E+00 -0.00000000000E+00 -0.68360860736E+02  0.68360860736E+02  0.00000000000E+00 0. -1.
         25    2    1    2    0    0  0.30789504080E+02  0.63699870462E+02  0.62225442576E+02  0.15660680938E+03  0.12509204604E+03 0.  0.
          5    1    3    3  502    0  0.76129735573E+00  0.66663836047E+02 -0.19336822188E+02  0.69541582542E+02  0.41800000000E+01 0.  1.
         -5    1    3    3    0  502  0.30028206724E+02 -0.29639655849E+01  0.81562264764E+02  0.87065226839E+02  0.41800000000E+01 0.  1.
        -11    1    1    2    0    0 -0.33179099475E+02 -0.86205142541E+02  0.10563515401E+03  0.14032449895E+03  0.00000000000E+00 0.  1.
         11    1    1    2    0    0  0.23895953953E+01  0.22505272079E+02  0.29647033780E+02  0.37298043507E+02  0.00000000000E+00 0. -1.
</event>
<event>
 7    1  0.2648915E-009  0.1559429E+03  0.7561462E-02  0.1193355E+00
         -2   -1    0    0    0  501 -0.00000000000E+00  0.00000000000E+00  0.53332103929E+02  0.53332103929E+02  0.00000000000E+00 0.  1.
          2   -1    0    0  501    0  0.00000000000E+00 -0.00000000000E+00 -0.87826733956E+03  0.87826733956E+03  0.00000000000E+00 0. -1.
         25    2    1    2    0    0  0.10728809084E+03 -0.76995100612E+02 -0.71188822949E+03  0.73475971194E+03  0.12509197834E+03 0.  0.
          5    1    3    3  502    0  0.45420125629E+02 -0.77714049800E+02 -0.20292678629E+03  0.22203426389E+03  0.41800000000E+01 0.  1.
         -5    1    3    3    0  502  0.61867965206E+02  0.71894918794E+00 -0.50896144321E+03  0.51272544805E+03  0.41800000000E+01 0.  1.
        -11    1    1    2    0    0 -0.11863994957E+03  0.46859036696E+02 -0.10004118823E+03  0.16210936523E+03  0.00000000000E+00 0.  1.
         11    1    1    2    0    0  0.11351858733E+02  0.30136063916E+02 -0.13005817910E+02  0.34730366317E+02  0.00000000000E+00 0. -1.
</event>
<event>
 7    1  0.2648915E-009  0.9929914E+02  0.7561462E-02  0.1281777E+00
          1   -1    0    0  501    0  0.00000000000E+00  0.00000000000E+00  0.63710603363E+02  0.63710603363E+02  0.00000000000E+00 0. -1.
         -1   -1    0    0    0  501 -0.00000000000E+00 -0.00000000000E+00 -0.31601671670E+03  0.31601671670E+03  0.00000000000E+00 0.  1.
         25    2    1    2    0    0 -0.60568157755E+02  0.56101815397E+02 -0.10586013696E+03  0.18349610736E+03  0.12509411415E+03 0.  0.
          5    1    3    3  502    0 -0.69154607475E+02  0.69539301910E+02 -0.12454524851E+03  0.15857826324E+03  0.41800000000E+01 0. -1.
         -5    1    3    3    0  502  0.85864497200E+01 -0.13437486513E+02  0.18685111544E+02  0.24917844128E+02  0.41800000000E+01 0. -1.
        -11    1    1    2    0    0  0.20485428343E+02 -0.29235965713E+02  0.61171787220E+01  0.36218977637E+02  0.00000000000E+00 0. -1.
         11    1    1    2    0    0  0.40082729412E+02 -0.26865849684E+02 -0.15256315510E+03  0.16001223506E+03  0.00000000000E+00 0.  1.
</event>
<event>
 7    1  0.2648915E-009  0.8815530E+02  0.7561462E-02  0.1307381E+00
          1   -1    0    0  501    0  0.00000000000E+00  0.00000000000E+00  0.42212987272E+03  0.42212987272E+03  0.00000000000E+00 0. -1.
         -1   -1    0    0    0  501 -0.00000000000E+00 -0.00000000000E+00 -0.63456441015E+02  0.63456441015E+02  0.00000000000E+00 0.  1.
         25    2    1    2    0    0  0.61592967849E+02 -0.23553592357E+02  0.39471592635E+02  0.14681059857E+03  0.12508748869E+03 0.  0.
          5    1    3    3  502    0  0.57279461346E+02 -0.16973875468E+02 -0.36621814277E+02  0.70197427456E+02  0.41800000000E+01 0.  1.
         -5    1    3    3    0  502  0.43135065025E+01 -0.65797168888E+01  0.76093406912E+02  0.76613171114E+02  0.41800000000E+01 0.  1.
        -11    1    1    2    0    0 -0.77922211327E+02  0.37094204759E+02  0.20189803652E+03  0.21956927881E+03  0.00000000000E+00 0.  1.
         11    1    1    2    0    0  0.16329243478E+02 -0.13540612402E+02  0.11730380255E+03  0.11920643636E+03  0.00000000000E+00 0. -1.
</event>
<event>
 7    1  0.2648915E-009  0.1576309E+03  0.7561462E-02  0.1191398E+00
         -2   -1    0    0    0  501 -0.00000000000E+00  0.00000000000E+00  0.18368491131E+02  0.18368491131E+02  0.00000000000E+00 0.  1.
          2   -1    0    0  501    0  0.00000000000E+00 -0.00000000000E+00 -0.13806741775E+04  0.13806741775E+04  0.00000000000E+00 0. -1.
         25    2    1    2    0    0 -0.94441930578E+02  0.65049785735E+02 -0.63975975964E+03  0.66188461176E+03  0.12509171177E+03 0.  0.
          5    1    3    3  502    0 -0.11761647164E+03  0.79536306788E+02 -0.53786664753E+03  0.55630716463E+03  0.41800000000E+01 0. -1.
         -5    1    3    3    0  502  0.23174541063E+02 -0.14486521053E+02 -0.10189311211E+03  0.10557744713E+03  0.41800000000E+01 0. -1.
        -11    1    1    2    0    0 -0.11476119482E+02 -0.32952025442E+02 -0.14895876239E+03  0.15299101344E+03  0.00000000000E+00 0.  1.
         11    1    1    2    0    0  0.10591805006E+03 -0.32097760293E+02 -0.57358716434E+03  0.58416704344E+03  0.00000000000E+00 0. -1.
</event>
<event>
 7    1  0.2648915E-009  0.2250863E+03  0.7561462E-02  0.1130147E+00
          2   -1    0    0  501    0  0.00000000000E+00  0.00000000000E+00  0.87702198341E+03  0.87702198341E+03  0.00000000000E+00 0. -1.
         -2   -1    0    0    0  501 -0.00000000000E+00 -0.00000000000E+00 -0.11120736962E+03  0.11120736962E+03  0.00000000000E+00 0.  1.
         25    2    1    2    0    0 -0.11502111311E+03 -0.19098462464E+03  0.90286606796E+02  0.27111573784E+03  0.12508832329E+03 0.  0.
          5    1    3    3  502    0 -0.10515675583E+03 -0.15482828812E+03  0.16106402818E+02  0.18790058731E+03  0.41800000000E+01 0.  1.
         -5    1    3    3    0  502 -0.98643572874E+01 -0.36156336520E+02  0.74180203978E+02  0.83215150529E+02  0.41800000000E+01 0.  1.
        -11    1    1    2    0    0  0.67085832745E+02  0.14017209831E+03  0.33218392409E+03  0.36673544351E+03  0.00000000000E+00 0.  1.
         11    1    1    2    0    0  0.47935280369E+02  0.50812526329E+02  0.34334408289E+03  0.35037817168E+03  0.00000000000E+00 0. -1.
</event>
<event>
 7    1  0.2648915E-009  0.1091146E+03  0.7561462E-02  0.1262218E+00
         -1   -1    0    0    0  501 -0.00000000000E+00  0.00000000000E+00  0.13797747391E+02  0.13797747391E+02  0.00000000000E+00 0.  1.
          1   -1    0    0  501    0  0.00000000000E+00 -0.00000000000E+00 -0.92110670597E+03  0.92110670597E+03  0.00000000000E+00 0. -1.
         25    2    1    2    0    0 -0.14064887969E+02 -0.82926381727E+01 -0.57155113593E+03  0.58530400343E+03  0.12507392427E+03 0.  0.
          5    1    3    3  502    0 -0.39212636222E+01  0.55655571165E+02 -0.18263663993E+03  0.19101448520E+03  0.41800000000E+01 0.  1.
         -5    1    3    3    0  502 -0.10143624347E+02 -0.63948209338E+02 -0.38891449600E+03  0.39428951824E+03  0.41800000000E+01 0.  1.
        -11    1    1    2    0    0 -0.39986284449E+02 -0.83350955950E+01 -0.13900781882E+03  0.14488461083E+03  0.00000000000E+00 0.  1.
         11    1    1    2    0    0  0.54051172418E+02  0.16627733768E+02 -0.19675000383E+03  0.20471583910E+03  0.00000000000E+00 0. -1.
</event>
<event>
 7    1  0.2648915E-009  0.1099846E+03  0.7561462E-02  0.1260598E+00
          1   -1    0    0  501    0  0.00000000000E+00  0.00000000000E+00  0.17025373739E+04  0.17025373739E+04  0.00000000000E+00 0. -1.
         -1   -1    0    0    0  501 -0.00000000000E+00 -0.00000000000E+00 -0.14468960483E+02  0.14468960483E+02  0.00000000000E+00 0.  1.
         25    2    1    2    0    0 -0.69822929492E+02 -0.74944542130E+02  0.11594935941E+04  0.11707093938E+04  0.12507263526E+03 0.  0.
          5    1    3    3  502    0 -0.10469857847E+02 -0.24470364682E+02  0.38428103008E+02  0.46931952567E+02  0.41800000000E+01 0. -1.
         -5    1    3    3    0  502 -0.59353071645E+02 -0.50474177448E+02  0.11210654911E+04  0.11237774412E+04  0.41800000000E+01 0. -1.
        -11    1    1    2    0    0 -0.73468877826E+01  0.16936014708E+02  0.15170239393E+02  0.23894382552E+02  0.00000000000E+00 0.  1.
         11    1    1    2    0    0  0.77169817275E+02  0.58008527422E+02  0.51340457991E+03  0.52240255802E+03  0.00000000000E+00 0. -1.
</event>
<event>
 7    1  0.2648915E-009  0.8971042E+02  0.7561462E-02  0.1303554E+00
         -1   -1    0    0    0  501 -0.00000000000E+00  0.00000000000E+00  0.55643533567E+02  0.55643533567E+02  0.00000000000E+00 0.  1.
          1   -1    0    0  501    0  0.00000000000E+00 -0.00000000000E+00 -0.26397059227E+03  0.26397059227E+03  0.00000000000E+00 0. -1.
         25    2    1    2    0    0  0.39061621759E+02  0.30763818452E+02 -0.84111422714E+02  0.15872897915E+03  0.12509170464E+03 0.  0.
          5    1    3    3  502    0  0.67725871750E+02 -0.11643694631E+02 -0.82356113935E+02  0.10734230867E+03  0.41800000000E+01 0.  1.
         -5    1    3    3    0  502 -0.28664249991E+02  0.42407513083E+02 -0.17553087790E+01  0.51386670474E+02  0.41800000000E+01 0.  1.
        -11    1    1    2    0    0  0.15398000823E+01 -0.15910139096E+02  0.10684478066E+02  0.19226585289E+02  0.00000000000E+00 0.  1.
         11    1    1    2    0    0 -0.40601421841E+02 -0.14853679356E+02 -0.13490011405E+03  0.14165856140E+03  0.00000000000E+00 0. -1.
</event>
<event>
 7    1  0.2648915E-009  0.9687274E+02  0.7561462E-02  0.1287013E+00
          2   -1    0    0  501    0  0.00000000000E+00  0.00000000000E+00  0.30989001560E+03  0.30989001560E+03  0.00000000000E+00 0. -1.
         -2   -1    0    0    0  501 -0.00000000000E+00 -0.00000000000E+00 -0.42397731919E+02  0.42397731919E+02  0.00000000000E+00 0.  1.
         25    2    1    2    0    0  0.10483605619E+02 -0.34977917244E+02  0.13334534017E+03  0.18644446489E+03  0.12508876074E+03 0.  0.
          5    1    3    3  502    0 -0.20923124491E+02  0.22492382695E+02  0.11383365202E+03  0.11797990146E+03  0.41800000000E+01 0.  1.
         -5    1    3    3    0  502  0.31406730109E+02 -0.57470299939E+02  0.19511688149E+02  0.68464563430E+02  0.41800000000E+01 0.  1.
        -11    1    1    2    0    0  0.37233838457E+02  0.32355940422E+02  0.60677680489E+02  0.78198762882E+02  0.00000000000E+00 0.  1.
         11    1    1    2    0    0 -0.47717444076E+02  0.26219768222E+01  0.73469263026E+02  0.87644519744E+02  0.00000000000E+00 0. -1.
</event>
<event>
 7    1  0.2648915E-009  0.8058652E+02  0.7561462E-02  0.1327395E+00
          1   -1    0    0  501    0  0.00000000000E+00  0.00000000000E+00  0.84305908794E+03  0.84305908794E+03  0.00000000000E+00 0. -1.
         -1   -1    0    0    0  501 -0.00000000000E+00 -0.00000000000E+00 -0.15808328965E+02  0.15808328965E+02  0.00000000000E+00 0.  1.
         25    2    1    2    0    0 -0.90073345887E+01 -0.35584809199E+02  0.53055366967E+03  0.54633544552E+03  0.12509121440E+03 0.  0.
          5    1    3    3  502    0 -0.14802577655E+02 -0.60511942115E+02  0.50842953597E+03  0.51224884274E+03  0.41800000000E+01 0.  1.
         -5    1    3    3    0  502  0.57952430662E+01  0.24927132915E+02  0.22124133698E+02  0.34086602785E+02  0.41800000000E+01 0.  1.
        -11    1    1    2    0    0 -0.17951060011E+02 -0.94743071556E+01  0.13198163467E+02  0.24211455356E+02  0.00000000000E+00 0.  1.
         11    1    1    2    0    0  0.26958394599E+02  0.45059116355E+02  0.28349892584E+03  0.28832051603E+03  0.00000000000E+00 0. -1.
</event>
<event>
 7    1  0.2648915E-009  0.1201261E+03  0.7561462E-02  0.1242889E+00
         -1   -1    0    0    0  501 -0.00000000000E+00  0.00000000000E+00  0.37643865302E+03  0.37643865302E+03  0.00000000000E+00 0.  1.
          1   -1    0    0  501    0  0.00000000000E+00 -0.00000000000E+00 -0.46156761339E+02  0.46156761339E+02  0.00000000000E+00 0. -1.
         25    2    1    2    0    0 -0.43985075553E+02  0.50719669705E+02  0.22917439188E+03  0.26958490794E+03  0.12509176203E+03 0.  0.
          5    1    3    3  502    0  0.11545425054E+02 -0.32550877977E+02  0.10153140230E+03  0.10732639261E+03  0.41800000000E+01 0. -1.
         -5    1    3    3    0  502 -0.55530500607E+02  0.83270547682E+02  0.12764298957E+03  0.16225851533E+03  0.41800000000E+01 0. -1.
        -11    1    1    2    0    0  0.28689873844E+02  0.18671231849E+02  0.64636049463E+02  0.73140567746E+02  0.00000000000E+00 0.  1.
         11    1    1    2    0    0  0.15295201709E+02 -0.69390901554E+02  0.36471450336E+02  0.79869938672E+02  0.00000000000E+00 0. -1.
</event>
<event>
 7    1  0.2648915E-009  0.1091451E+03  0.7561462E-02  0.1262161E+00
         -2   -1    0    0    0  501 -0.00000000000E+00  0.00000000000E+00  0.16728225960E+02  0.16728225960E+02  0.00000000000E+00 0.  1.
          2   -1    0    0  501    0  0.00000000000E+00 -0.00000000000E+00 -0.90339560573E+03  0.90339560573E+03  0.00000000000E+00 0. -1.
         25    2    1    2    0    0  0.29526753905E+02 -0.42407202837E+02 -0.61300655621E+03  0.62776939410E+03  0.12508866522E+03 0.  0.
          5    1    3    3  502    0  0.69482553079E+01  0.38918677213E+02 -0.96058644871E+02  0.10395997952E+03  0.41800000000E+01 0. -1.
         -5    1    3    3    0  502  0.22578498597E+02 -0.81325880050E+02 -0.51694791134E+03  0.52380941458E+03  0.41800000000E+01 0. -1.
        -11    1    1    2    0    0  0.15561223926E+02 -0.14606666315E+02 -0.12574808414E+03  0.12754641137E+03  0.00000000000E+00 0. -1.
         11    1    1    2    0    0 -0.45087977830E+02  0.57013869152E+02 -0.14791273943E+03  0.16480802622E+03  0.00000000000E+00 0.  1.
</event>
<event>
 7    1  0.2648915E-009  0.1192512E+03  0.7561462E-02  0.1244337E+00
          2   -1    0    0  501    0  0.00000000000E+00  0.00000000000E+00  0.13059040203E+04  0.13059040203E+04  0.00000000000E+00 0. -1.
         -2   -1    0    0    0  501 -0.00000000000E+00 -0.00000000000E+00 -0.12698588077E+02  0.12698588077E+02  0.00000000000E+00 0.  1.
         25    2    1    2    0    0  0.48949574356E+02  0.47248225379E+02  0.80594224661E+03  0.81842500502E+03  0.12509247920E+03 0.  0.
          5    1    3    3  502    0  0.82142585753E+02  0.41917484105E+02  0.72241238883E+03  0.72828676481E+03  0.41800000000E+01 0.  1.
         -5    1    3    3    0  502 -0.33193011397E+02  0.53307412734E+01  0.83529857779E+02  0.90138240213E+02  0.41800000000E+01 0.  1.
        -11    1    1    2    0    0  0.18602565435E+02 -0.40319817033E+02  0.16771037525E+03  0.17348923037E+03  0.00000000000E+00 0.  1.
         11    1    1    2    0    0 -0.67552139791E+02 -0.69284083458E+01  0.31955281038E+03  0.32668837300E+03  0.00000000000E+00 0. -1.
</event>
<event>
 7    1  0.2648915E-009  0.2186737E+03  0.7561462E-02  0.1134876E+00
          2   -1    0    0  501    0  0.00000000000E+00  0.00000000000E+00  0.14068975448E+04  0.14068975448E+04  0.00000000000E+00 0. -1.
         -2   -1    0    0    0  501 -0.00000000000E+00 -0.00000000000E+00 -0.35133438107E+02  0.35133438107E+02  0.00000000000E+00 0.  1.
         25    2    1    2    0    0  0.58772984372E+02 -0.18574608973E+03  0.67273730782E+03  0.71146178747E+03  0.12508603506E+03 0.  0.
          5    1    3    3  502    0  0.93941790191E+02 -0.12599096691E+03  0.52818877066E+03  0.55108949685E+03  0.41800000000E+01 0. -1.
         -5    1    3    3    0  502 -0.35168805819E+02 -0.59755122819E+02  0.14454853716E+03  0.16037229063E+03  0.41800000000E+01 0. -1.
        -11    1    1    2    0    0 -0.26953669131E+02  0.53362665595E+01  0.64065724123E+02  0.69709346775E+02  0.00000000000E+00 0. -1.
         11    1    1    2    0    0 -0.31819315240E+02  0.18040982317E+03  0.63496107473E+03  0.66085984864E+03  0.00000000000E+00 0.  1.
</event>
<event>
 7    1  0.2648915E-009  0.8758606E+02  0.7561462E-02  0.1308805E+00
         -3   -1    0    0    0  501 -0.00000000000E+00  0.00000000000E+00  0.36225144887E+02  0.36225144887E+02  0.00000000000E+00 0.  1.
          3   -1    0    0  501    0  0.00000000000E+00 -0.00000000000E+00 -0.50763328196E+03  0.50763328196E+03  0.00000000000E+00 0. -1.
         25    2    1    2    0    0  0.28965521826E+02 -0.38697927984E+02 -0.14001514098E+03  0.19387792444E+03  0.12509148170E+03 0.  0.
          5    1    3    3  502    0  0.25326043887E+02 -0.52704762634E+02 -0.15910452549E+03  0.16956097114E+03  0.41800000000E+01 0.  1.
         -5    1    3    3    0  502  0.36394779387E+01  0.14006834650E+02  0.19089384508E+02  0.24316953294E+02  0.41800000000E+01 0.  1.
        -11    1    1    2    0    0  0.83348468678E+01  0.58612252211E+02 -0.11338909359E+03  0.12791384728E+03  0.00000000000E+00 0.  1.
         11    1    1    2    0    0 -0.37300368694E+02 -0.19914324227E+02 -0.21800390250E+03  0.22206665513E+03  0.00000000000E+00 0. -1.
</event>
<event>
 7    1  0.2648915E-009  0.8939012E+02  0.7561462E-02  0.1304335E+00
          1   -1    0    0  501    0  0.00000000000E+00  0.00000000000E+00  0.40309993509E+02  0.40309993509E+02  0.00000000000E+00 0. -1.
         -1   -1    0    0    0  501 -0.00000000000E+00 -0.00000000000E+00 -0.29661454656E+03  0.29661454656E+03  0.00000000000E+00 0.  1.
         25    2    1    2    0    0  0.43756965248E+01 -0.48647936306E+01 -0.16450027574E+03  0.20676598000E+03  0.12509603044E+03 0.  0.
          5    1    3    3  502    0  0.20250080562E+02 -0.51364972632E+02 -0.14228735310E+03  0.15268133294E+03  0.41800000000E+01 0.  1.
         -5    1    3    3    0  502 -0.15874384037E+02  0.46500179001E+02 -0.22212922637E+02  0.54084647061E+02  0.41800000000E+01 0.  1.
        -11    1    1    2    0    0  0.34779419602E+02  0.26010947877E+01 -0.54299652670E+01  0.35296717195E+02  0.00000000000E+00 0. -1.
         11    1    1    2    0    0 -0.39155116127E+02  0.22636988429E+01 -0.86374312048E+02  0.94861842872E+02  0.00000000000E+00 0.  1.
</event>
<event>
 7    1  0.2648915E-009  0.1034484E+03  0.7561462E-02  0.1273207E+00
         -1   -1    0    0    0  501 -0.00000000000E+00  0.00000000000E+00  0.36337167288E+03  0.36337167288E+03  0.00000000000E+00 0.  1.
          1   -1    0    0  501    0  0.00000000000E+00 -0.00000000000E+00 -0.53519568957E+02  0.53519568957E+02  0.00000000000E+00 0. -1.
         25    2    1    2    0    0  0.60082190622E+02  0.32135545989E+02  0.88194708095E+02  0.16754050303E+03  0.12509576601E+03 0.  0.
          5    1    3    3  502    0  0.53572730637E+02 -0.12841087748E+02 -0.12801181279E+02  0.56712200139E+02  0.41800000000E+01 0. -1.
         -5    1    3    3    0  502  0.65094599847E+01  0.44976633737E+02  0.10099588937E+03  0.11082830289E+03  0.41800000000E+01 0. -1.
        -11    1    1    2    0    0 -0.79748054385E+02 -0.17896408245E+02  0.20266611740E+03  0.21852594526E+03  0.00000000000E+00 0.  1.
         11    1    1    2    0    0  0.19665863763E+02 -0.14239137744E+02  0.18991278428E+02  0.30824793553E+02  0.00000000000E+00 0. -1.
</event>
<event>
 7    1  0.2648915E-009  0.1479419E+03  0.7561462E-02  0.1203025E+00
          1   -1    0    0  501    0  0.00000000000E+00  0.00000000000E+00  0.33459408671E+03  0.33459408671E+03  0.00000000000E+00 0. -1.
         -1   -1    0    0    0  501 -0.00000000000E+00 -0.00000000000E+00 -0.95737489008E+02  0.95737489008E+02  0.00000000000E+00 0.  1.
         25    2    1    2    0    0  0.91600313490E+02  0.61800763085E+02  0.18893749564E+02  0.16797153549E+03  0.12509001244E+03 0.  0.
          5    1    3    3  502    0  0.67743353699E+02  0.92160856170E+02 -0.16237026796E+02  0.11560233051E+03  0.41800000000E+01 0.  1.
         -5    1    3    3    0  502  0.23856959790E+02 -0.30360093085E+02  0.35130776360E+02  0.52369204980E+02  0.41800000000E+01 0.  1.
        -11    1    1    2    0    0 -0.22118119026E+02  0.23699327972E+02  0.42014668432E+02  0.53066954869E+02  0.00000000000E+00 0.  1.
         11    1    1    2    0    0 -0.69482194463E+02 -0.85500091057E+02  0.17794817971E+03  0.20929308536E+03  0.00000000000E+00 0. -1.
</event>
<event>
 7    1  0.2648915E-009  0.1807416E+03  0.7561462E-02  0.1167087E+00
          3   -1    0    0  501    0  0.00000000000E+00  0.00000000000E+00  0.15736111409E+03  0.15736111409E+03  0.00000000000E+00 0. -1.
         -3   -1    0    0    0  501 -0.00000000000E+00 -0.00000000000E+00 -0.22848465234E+03  0.22848465234E+03  0.00000000000E+00 0.  1.
         25    2    1    2    0    0 -0.13612148275E+03 -0.67086675212E+02 -0.33659717520E+01  0.19669319810E+03  0.12508878590E+03 0.  0.
          5    1    3    3  502    0 -0.61155371629E+02 -0.87985404601E+02 -0.34679313128E+02  0.11270110053E+03  0.41800000000E+01 0. -1.
         -5    1    3    3    0  502 -0.74966111118E+02  0.20898729389E+02  0.31313341376E+02  0.83992097571E+02  0.41800000000E+01 0. -1.
        -11    1    1    2    0    0 -0.10318472082E+02  0.19973572018E+02 -0.12321906590E+02  0.25636767099E+02  0.00000000000E+00 0.  1.
         11    1    1    2    0    0  0.14643995483E+03  0.47113103194E+02 -0.55435659900E+02  0.16351580123E+03  0.00000000000E+00 0. -1.
</event>
<event>
 7    1  0.2648915E-009  0.1209605E+03  0.7561462E-02  0.1241521E+00
         -2   -1    0    0    0  501 -0.00000000000E+00  0.00000000000E+00  0.43352523349E+02  0.43352523349E+02  0.00000000000E+00 0.  1.
          2   -1    0    0  501    0  0.00000000000E+00 -0.00000000000E+00 -0.40695223029E+03  0.40695223029E+03  0.00000000000E+00 0. -1.
         25    2    1    2    0    0 -0.12751052087E+02 -0.73546714878E+02 -0.17706491386E+03  0.22928446935E+03  0.12509066938E+03 0.  0.
          5    1    3    3  502    0  0.12894159723E+02 -0.10334119033E+03 -0.11075918402E+03  0.15208790294E+03  0.41800000000E+01 0. -1.
         -5    1    3    3    0  502 -0.25645211810E+02  0.29794475457E+02 -0.66305729839E+02  0.77196566413E+02  0.41800000000E+01 0. -1.
        -11    1    1    2    0    0 -0.25640697740E+02  0.21346311643E+02 -0.13253889433E+03  0.13667358527E+03  0.00000000000E+00 0. -1.
         11    1    1    2    0    0  0.38391749828E+02  0.52200403235E+02 -0.53995898753E+02  0.84346699016E+02  0.00000000000E+00 0.  1.
</event>
<event>
 7    1  0.2648915E-009  0.7423460E+02  0.7561462E-02  0.1346258E+00
          1   -1    0    0  501    0  0.00000000000E+00  0.00000000000E+00  0.44766439591E+02  0.44766439591E+02  0.00000000000E+00 0. -1.
         -1   -1    0    0    0  501 -0.00000000000E+00 -0.00000000000E+00 -0.27202975166E+03  0.27202975166E+03  0.00000000000E+00 0.  1.
         25    2    1    2    0    0 -0.74080380416E+01 -0.15520617241E+02 -0.11264070786E+03  0.16920760505E+03  0.12509003139E+03 0.  0.
          5    1    3    3  502    0  0.36465520510E+02 -0.42504263017E+02 -0.14042583820E+02  0.57887935885E+02  0.41800000000E+01 0. -1.
         -5    1    3    3    0  502 -0.43873558551E+02  0.26983645776E+02 -0.98598124037E+02  0.11131966916E+03  0.41800000000E+01 0. -1.
        -11    1    1    2    0    0 -0.10656573249E+02  0.19421158896E+02 -0.12462220442E+03  0.12657581839E+03  0.00000000000E+00 0.  1.
         11    1    1    2    0    0  0.18064611291E+02 -0.39005416541E+01  0.99996002175E+01  0.21012767804E+02  0.00000000000E+00 0. -1.
</event>
<event>
 7    1  0.2648915E-009  0.1538324E+03  0.7561462E-02  0.1195841E+00
          2   -1    0    0  501    0  0.00000000000E+00  0.00000000000E+00  0.32267251782E+03  0.32267251782E+03  0.00000000000E+00 0. -1.
         -2   -1    0    0    0  501 -0.00000000000E+00 -0.00000000000E+00 -0.83283432419E+02  0.83283432419E+02  0.00000000000E+00 0.  1.
         25    2    1    2    0    0  0.10742055138E+03  0.50005241814E+02  0.17041129359E+03  0.24233609360E+03  0.12508826569E+03 0.  0.
          5    1    3    3  502    0  0.13020611665E+03  0.22478134558E+02  0.15350627754E+03  0.20258467116E+03  0.41800000000E+01 0. -1.
         -5    1    3    3    0  502 -0.22785565268E+02  0.27527107256E+02  0.16905016049E+02  0.39751422441E+02  0.41800000000E+01 0. -1.
        -11    1    1    2    0    0 -0.84547729376E+02 -0.51724741382E-01  0.13640929841E+02  0.85641089350E+02  0.00000000000E+00 0.  1.
         11    1    1    2    0    0 -0.22872822005E+02 -0.49953517072E+02  0.55336861977E+02  0.77978767288E+02  0.00000000000E+00 0. -1.
</event>
<event>
 7    1  0.2648915E-009  0.8564357E+02  0.7561462E-02  0.1313758E+00
         -2   -1    0    0    0  501 -0.00000000000E+00  0.00000000000E+00  0.32690696602E+02  0.32690696602E+02  0.00000000000E+00 0.  1.
          2   -1    0    0  501    0  0.00000000000E+00 -0.00000000000E+00 -0.42909567859E+03  0.42909567859E+03  0.00000000000E+00 0. -1.
         25    2    1    2    0    0 -0.33582723315E+02 -0.56576371354E+01 -0.29105829859E+03  0.31861794648E+03  0.12507059796E+03 0.  0.
          5    1    3    3  502    0  0.97964337376E+01  0.47153784828E+02 -0.56944183562E+02  0.74696465640E+02  0.41800000000E+01 0. -1.
         -5    1    3    3    0  502 -0.43379157053E+02 -0.52811421964E+02 -0.23411411503E+03  0.24392148083E+03  0.41800000000E+01 0. -1.
        -11    1    1    2    0    0  0.28641477973E+02 -0.15624638354E+02  0.28851048458E+01  0.32753433624E+02  0.00000000000E+00 0.  1.
         11    1    1    2    0    0  0.49412453421E+01  0.21282275490E+02 -0.10823178824E+03  0.11041499510E+03  0.00000000000E+00 0. -1.
</event>
<event>
 7    1  0.2648915E-009  0.5566051E+02  0.7561462E-02  0.1417001E+00
          2   -1    0    0  501    0  0.00000000000E+00  0.00000000000E+00  0.95680908004E+02  0.95680908004E+02  0.00000000000E+00 0. -1.
         -2   -1    0    0    0  501 -0.00000000000E+00 -0.00000000000E+00 -0.14610875663E+03  0.14610875663E+03  0.00000000000E+00 0.  1.
         25    2    1    2    0    0 -0.27028934742E+02 -0.24790193890E+02 -0.25279562171E+02  0.13277493977E+03  0.12508001975E+03 0.  0.
          5    1    3    3  502    0 -0.26916957959E+02 -0.15886927724E+02  0.48769039166E+02  0.58075887247E+02  0.41800000000E+01 0.  1.
         -5    1    3    3    0  502 -0.11197678281E+00 -0.89032661656E+01 -0.74048601337E+02  0.74699052519E+02  0.41800000000E+01 0.  1.
        -11    1    1    2    0    0  0.22231668742E+02  0.44457790078E+02 -0.54240800071E+02  0.73571778462E+02  0.00000000000E+00 0.  1.
         11    1    1    2    0    0  0.47972659998E+01 -0.19667596188E+02  0.29092513621E+02  0.35442946402E+02  0.00000000000E+00 0. -1.
</event>
<event>
 7    1  0.2648915E-009  0.2295509E+03  0.7561462E-02  0.1126956E+00
         -3   -1    0    0    0  501 -0.00000000000E+00  0.00000000000E+00  0.20734314480E+03  0.20734314480E+03  0.00000000000E+00 0.  1.
          3   -1    0    0  501    0  0.00000000000E+00 -0.00000000000E+00 -0.28698884620E+03  0.28698884620E+03  0.00000000000E+00 0. -1.
         25    2    1    2    0    0 -0.13185139850E+03  0.15367248311E+03 -0.12368861091E+03  0.26823250666E+03  0.12509908796E+03 0.  0.
          5    1    3    3  502    0 -0.13754029310E+03  0.71437694102E+02 -0.88347361556E+02  0.17844720524E+03  0.41800000000E+01 0. -1.
         -5    1    3    3    0  502  0.56888945989E+01  0.82234789009E+02 -0.35341249357E+02  0.89785301421E+02  0.41800000000E+01 0. -1.
        -11    1    1    2    0    0 -0.17574543412E+01  0.10049519076E+02  0.43164458742E+01  0.11077598314E+02  0.00000000000E+00 0. -1.
         11    1    1    2    0    0  0.13360885284E+03 -0.16372200219E+03  0.39726463641E+02  0.21502188603E+03  0.00000000000E+00 0.  1.
</event>
<event>
 7    1  0.2648915E-009  0.2048703E+03  0.7561462E-02  0.1145694E+00
         -1   -1    0    0    0  501 -0.00000000000E+00  0.00000000000E+00  0.10485305086E+03  0.10485305086E+03  0.00000000000E+00 0.  1.
          1   -1    0    0  501    0  0.00000000000E+00 -0.00000000000E+00 -0.50106983685E+03  0.50106983685E+03  0.00000000000E+00 0. -1.
         25    2    1    2    0    0  0.10771823811E+03 -0.16044945020E+03 -0.13001387963E+03  0.26438282165E+03  0.12508965823E+03 0.  0.
          5    1    3    3  502    0  0.80987156932E+02 -0.14141806269E+03 -0.39107403885E+02  0.16764501031E+03  0.41800000000E+01 0.  1.
         -5    1    3    3    0  502  0.26731081182E+02 -0.19031387509E+02 -0.90906475740E+02  0.96737811342E+02  0.41800000000E+01 0.  1.
        -11    1    1    2    0    0 -0.38679662450E+02  0.13439522053E+03 -0.16505809083E+03  0.21633854242E+03  0.00000000000E+00 0. -1.
         11    1    1    2    0    0 -0.69038575664E+02  0.26054229666E+02 -0.10114481554E+03  0.12520152365E+03  0.00000000000E+00 0.  1.
</event>
<event>
 7    1  0.2648915E-009  0.1034775E+03  0.7561462E-02  0.1273149E+00
          1   -1    0    0  501    0  0.00000000000E+00  0.00000000000E+00  0.45723524985E+03  0.45723524985E+03  0.00000000000E+00 0. -1.
         -1   -1    0    0    0  501 -0.00000000000E+00 -0.00000000000E+00 -0.39635088488E+02  0.39635088488E+02  0.00000000000E+00 0.  1.
         25    2    1    2    0    0 -0.57881089930E+02 -0.24621138647E+02  0.13886636314E+03  0.19720359235E+03  0.12509583919E+03 0.  0.
          5    1    3    3  502    0 -0.70892348424E+02 -0.23208260467E+01  0.15211001314E+03  0.16788698519E+03  0.41800000000E+01 0. -1.
         -5    1    3    3    0  502  0.13011258494E+02 -0.22300312601E+02 -0.13243650000E+02  0.29316607154E+02  0.41800000000E+01 0. -1.
        -11    1    1    2    0    0 -0.22617608242E+02 -0.63557628293E+01  0.51189146657E+02  0.56323002931E+02  0.00000000000E+00 0. -1.
         11    1    1    2    0    0  0.80498698172E+02  0.30976901477E+02  0.22754465156E+03  0.24334374306E+03  0.00000000000E+00 0.  1.
</event>
<event>
 7    1  0.2648915E-009  0.1146709E+03  0.7561462E-02  0.1252157E+00
          1   -1    0    0  501    0  0.00000000000E+00  0.00000000000E+00  0.56790052595E+02  0.56790052595E+02  0.00000000000E+00 0. -1.
         -1   -1    0    0    0  501 -0.00000000000E+00 -0.00000000000E+00 -0.29806875939E+03  0.29806875939E+03  0.00000000000E+00 0.  1.
         25    2    1    2    0    0 -0.69194380959E+02 -0.18494989513E+02 -0.14114737347E+03  0.20174397896E+03  0.12509246586E+03 0.  0.
          5    1    3    3  502    0  0.34491295360E+01  0.40871242442E+02 -0.79065193697E+02  0.89169121380E+02  0.41800000000E+01 0.  1.
         -5    1    3    3    0  502 -0.72643510495E+02 -0.59366231955E+02 -0.62082179768E+02  0.11257485758E+03  0.41800000000E+01 0.  1.
        -11    1    1    2    0    0 -0.11318594055E+02  0.57258328257E+01  0.99600721211E+01  0.16127577921E+02  0.00000000000E+00 0. -1.
         11    1    1    2    0    0  0.80512975014E+02  0.12769156688E+02 -0.11009140545E+03  0.13698725511E+03  0.00000000000E+00 0.  1.
</event>
<event>
 7    1  0.2648915E-009  0.1335557E+03  0.7561462E-02  0.1222273E+00
          2   -1    0    0  501    0  0.00000000000E+00  0.00000000000E+00  0.18079880873E+03  0.18079880873E+03  0.00000000000E+00 0.  1.
         -2   -1    0    0    0  501 -0.00000000000E+00 -0.00000000000E+00 -0.11761202100E+03  0.11761202100E+03  0.00000000000E+00 0. -1.
         25    2    1    2    0    0 -0.61586938998E+01 -0.81277687015E+02 -0.18378217704E+02  0.15042740196E+03  0.12508657984E+03 0.  0.
          5    1    3    3  502    0  0.58827938663E+02 -0.40699183348E+02 -0.56853624406E+00  0.71658534216E+02  0.41800000000E+01 0. -1.
         -5    1    3    3    0  502 -0.64986632562E+02 -0.40578503667E+02 -0.17809681460E+02  0.78768867742E+02  0.41800000000E+01 0. -1.
        -11    1    1    2    0    0  0.33155747872E+02  0.85219989147E+02  0.43792897166E+02  0.10138820449E+03  0.00000000000E+00 0. -1.
         11    1    1    2    0    0 -0.26997053972E+02 -0.39423021319E+01  0.37772108272E+02  0.46595223280E+02  0.00000000000E+00 0.  1.
</event>
<event>
 7    1  0.2648915E-009  0.1249546E+03  0.7561462E-02  0.1235140E+00
         -3   -1    0    0    0  501 -0.00000000000E+00  0.00000000000E+00  0.12835999313E+03  0.12835999313E+03  0.00000000000E+00 0.  1.
          3   -1    0    0  501    0  0.00000000000E+00 -0.00000000000E+00 -0.14869752117E+03  0.14869752117E+03  0.00000000000E+00 0. -1.
         25    2    1    2    0    0  0.48711351362E+02  0.61320273289E+02 -0.44109825968E+02  0.15403389166E+03  0.12509113223E+03 0.  0.
          5    1    3    3  502    0 -0.13434903427E+02 -0.21709492035E+02  0.19411916515E+02  0.32343369912E+02  0.41800000000E+01 0. -1.
         -5    1    3    3    0  502  0.62146254788E+02  0.83029765324E+02 -0.63521742483E+02  0.12169052174E+03  0.41800000000E+01 0. -1.
        -11    1    1    2    0    0 -0.16221232239E+02  0.23987749463E+02  0.10375319175E+02  0.30760164948E+02  0.00000000000E+00 0.  1.
         11    1    1    2    0    0 -0.32490119123E+02 -0.85308022752E+02  0.13396978748E+02  0.92263457696E+02  0.00000000000E+00 0. -1.
</event>
<event>
 7    1  0.2648915E-009  0.1027456E+03  0.7561462E-02  0.1274626E+00
         -2   -1    0    0    0  501 -0.00000000000E+00  0.00000000000E+00  0.16292373340E+02  0.16292373340E+02  0.00000000000E+00 0. -1.
          2   -1    0    0  501    0  0.00000000000E+00 -0.00000000000E+00 -0.13681743887E+04  0.13681743887E+04  0.00000000000E+00 0.  1.
         25    2    1    2    0    0  0.14427069222E+02  0.13249429308E+02 -0.12321265738E+04  0.12386129846E+04  0.12507015673E+03 0.  0.
          5    1    3    3  502    0 -0.33500189656E+02  0.51539860188E+02 -0.76117986536E+03  0.76366935236E+03  0.41800000000E+01 0. -1.
         -5    1    3    3    0  502  0.47927258878E+02 -0.38290430880E+02 -0.47094670842E+03  0.47494363224E+03  0.41800000000E+01 0. -1.
        -11    1    1    2    0    0 -0.33280221957E+02 -0.38492973185E+02 -0.63462673288E+02  0.81343672520E+02  0.00000000000E+00 0.  1.
         11    1    1    2    0    0  0.18853152735E+02  0.25243543877E+02 -0.56292768340E+02  0.64510104968E+02  0.00000000000E+00 0. -1.
</event>
<event>
 7    1  0.2648915E-009  0.6017870E+02  0.7561462E-02  0.1397083E+00
          1   -1    0    0  501    0  0.00000000000E+00  0.00000000000E+00  0.14421335529E+03  0.14421335529E+03  0.00000000000E+00 0. -1.
         -1   -1    0    0    0  501 -0.00000000000E+00 -0.00000000000E+00 -0.11187139200E+03  0.11187139200E+03  0.00000000000E+00 0.  1.
         25    2    1    2    0    0 -0.36724000448E+01  0.48524075670E+02 -0.26245839265E+02  0.13675754162E+03  0.12508280725E+03 0.  0.
          5    1    3    3  502    0  0.90893770261E+01  0.35941415407E+02  0.47699472829E+02  0.60556702555E+02  0.41800000000E+01 0. -1.
         -5    1    3    3    0  502 -0.12761777071E+02  0.12582660263E+02 -0.73945312094E+02  0.76200839063E+02  0.41800000000E+01 0. -1.
        -11    1    1    2    0    0 -0.58847618140E+01 -0.53533822440E+02  0.79366197121E+02  0.95913991743E+02  0.00000000000E+00 0. -1.
         11    1    1    2    0    0  0.95571618588E+01  0.50097467703E+01 -0.20778394568E+02  0.23413213926E+02  0.00000000000E+00 0.  1.
</event>
<event>
 7    1  0.2648915E-009  0.1562682E+03  0.7561462E-02  0.1192976E+00
          1   -1    0    0  501    0  0.00000000000E+00  0.00000000000E+00  0.14774138913E+04  0.14774138913E+04  0.00000000000E+00 0.  1.
         -1   -1    0    0    0  501 -0.00000000000E+00 -0.00000000000E+00 -0.25195261332E+02  0.25195261332E+02  0.00000000000E+00 0. -1.
         25    2    1    2    0    0  0.11348819427E+03  0.88054584958E+02  0.48373486076E+03  0.51988475905E+03  0.12509023547E+03 0.  0.
          5    1    3    3  502    0  0.87640969313E+02  0.79500384461E+02  0.47707263639E+03  0.49154554562E+03  0.41800000000E+01 0. -1.
         -5    1    3    3    0  502  0.25847224958E+02  0.85542004970E+01  0.66622243697E+01  0.28339213429E+02  0.41800000000E+01 0. -1.
        -11    1    1    2    0    0 -0.62870661573E+02 -0.96599433536E+02  0.68569189265E+03  0.69531111187E+03  0.00000000000E+00 0. -1.
         11    1    1    2    0    0 -0.50617532698E+02  0.85448485786E+01  0.28279187657E+03  0.28741328171E+03  0.00000000000E+00 0.  1.
</event>
<event>
 7    1  0.2648915E-009  0.5930868E+03  0.7561462E-02  0.9919853E-01
          2   -1    0    0  501    0  0.00000000000E+00  0.00000000000E+00  0.27394654457E+03  0.27394654457E+03  0.00000000000E+00 0.  1.
         -2   -1    0    0    0  501 -0.00000000000E+00 -0.00000000000E+00 -0.13587540054E+04  0.13587540054E+04  0.00000000000E+00 0. -1.
         25    2    1    2    0    0  0.57551982791E+03  0.13162914231E+03 -0.69055333803E+03  0.91709489170E+03  0.12509925773E+03 0.  0.
          5    1    3    3  502    0  0.42838249369E+03  0.13277474154E+03 -0.45184506688E+03  0.63664914180E+03  0.41800000000E+01 0.  1.
         -5    1    3    3    0  502  0.14713733423E+03 -0.11455992336E+01 -0.23870827115E+03  0.28044574990E+03  0.41800000000E+01 0.  1.
        -11    1    1    2    0    0 -0.38938703752E+02 -0.11509291059E+02 -0.29270210010E+01  0.40709383225E+02  0.00000000000E+00 0.  1.
         11    1    1    2    0    0 -0.53658112416E+03 -0.12011985125E+03 -0.39132710177E+03  0.67489627503E+03  0.00000000000E+00 0. -1.
</event>
<event>
 7    1  0.2648915E-009  0.1319188E+03  0.7561462E-02  0.1224636E+00
          2   -1    0    0  501    0  0.00000000000E+00  0.00000000000E+00  0.28442287749E+04  0.28442287749E+04  0.00000000000E+00 0. -1.
         -2   -1    0    0    0  501 -0.00000000000E+00 -0.00000000000E+00 -0.91702905059E+01  0.91702905059E+01  0.00000000000E+00 0.  1.
         25    2    1    2    0    0 -0.56568351460E+02 -0.65041811588E+02  0.22521057665E+04  0.22572236458E+04  0.12509112023E+03 0.  0.
          5    1    3    3  502    0  0.23545334454E+02  0.21463330713E+02  0.35421757726E+03  0.35567207057E+03  0.41800000000E+01 0. -1.
         -5    1    3    3    0  502 -0.80113685914E+02 -0.86505142300E+02  0.18978881892E+04  0.19015515753E+04  0.41800000000E+01 0. -1.
        -11    1    1    2    0    0  0.67908257987E+02  0.73130202179E+02  0.56338901750E+03  0.57215971809E+03  0.00000000000E+00 0. -1.
         11    1    1    2    0    0 -0.11339906527E+02 -0.80883905911E+01  0.19563700422E+02  0.24015701460E+02  0.00000000000E+00 0.  1.
</event>
<event>
 7    1  0.2648915E-009  0.7490750E+02  0.7561462E-02  0.1344158E+00
          3   -1    0    0  501    0  0.00000000000E+00  0.00000000000E+00  0.30441103372E+02  0.30441103372E+02  0.00000000000E+00 0.  1.
         -3   -1    0    0    0  501 -0.00000000000E+00 -0.00000000000E+00 -0.40744645338E+03  0.40744645338E+03  0.00000000000E+00 0. -1.
         25    2    1    2    0    0  0.47249552433E+01 -0.14317498381E+02 -0.17323512789E+03  0.21420922707E+03  0.12509143641E+03 0.  0.
          5    1    3    3  502    0  0.87634616136E+01 -0.34885841784E+02  0.33212903153E+01  0.36363767486E+02  0.41800000000E+01 0.  1.
         -5    1    3    3    0  502 -0.40385063703E+01  0.20568343402E+02 -0.17655641821E+03  0.17784545958E+03  0.41800000000E+01 0.  1.
        -11    1    1    2    0    0  0.36912877084E+02  0.30172219266E+02 -0.10757312084E+03  0.11766435160E+03  0.00000000000E+00 0. -1.
         11    1    1    2    0    0 -0.41637832327E+02 -0.15854720884E+02 -0.96197101274E+02  0.10601397808E+03  0.00000000000E+00 0.  1.
</event>
<event>
 7    1  0.2648915E-009  0.1585168E+03  0.7561462E-02  0.1190382E+00
          2   -1    0    0  501    0  0.00000000000E+00  0.00000000000E+00  0.40083171429E+03  0.40083171429E+03  0.00000000000E+00 0. -1.
         -2   -1    0    0    0  501 -0.00000000000E+00 -0.00000000000E+00 -0.71075450653E+02  0.71075450653E+02  0.00000000000E+00 0.  1.
         25    2    1    2    0    0 -0.11799213070E+03  0.49332174672E+02  0.19580168503E+03  0.26521908862E+03  0.12508820385E+03 0.  0.
          5    1    3    3  502    0 -0.77572183999E+02 -0.25652332604E+02  0.48776656835E+02  0.95247680027E+02  0.41800000000E+01 0.  1.
         -5    1    3    3    0  502 -0.40419946703E+02  0.74984507276E+02  0.14702502820E+03  0.16997140859E+03  0.41800000000E+01 0.  1.
        -11    1    1    2    0    0 -0.11268198679E+02 -0.93234039853E+01  0.38254853236E+02  0.40955243369E+02  0.00000000000E+00 0. -1.
         11    1    1    2    0    0  0.12926032938E+03 -0.40008770687E+02  0.95699725373E+02  0.16573283296E+03  0.00000000000E+00 0.  1.
</event>
<event>
 7    1  0.2648915E-009  0.1488250E+03  0.7561462E-02  0.1201924E+00
          1   -1    0    0  501    0  0.00000000000E+00  0.00000000000E+00  0.35458898668E+02  0.35458898668E+02  0.00000000000E+00 0. -1.
         -1   -1    0    0    0  501 -0.00000000000E+00 -0.00000000000E+00 -0.78807308806E+03  0.78807308806E+03  0.00000000000E+00 0.  1.
         25    2    1    2    0    0  0.95292679378E+02  0.79228555204E+02 -0.46397110735E+03  0.49626055251E+03  0.12508992291E+03 0.  0.
          5    1    3    3  502    0  0.77110798450E+02  0.10864396708E+03 -0.41698501851E+03  0.43777113300E+03  0.41800000000E+01 0. -1.
         -5    1    3    3    0  502  0.18181880928E+02 -0.29415411878E+02 -0.46986088840E+02  0.58489419509E+02  0.41800000000E+01 0. -1.
        -11    1    1    2    0    0 -0.30892168257E+02 -0.50063311822E+02 -0.22358821431E+03  0.23119764451E+03  0.00000000000E+00 0.  1.
         11    1    1    2    0    0 -0.64400511121E+02 -0.29165243382E+02 -0.65054867733E+02  0.96073789713E+02  0.00000000000E+00 0. -1.
</event>
<event>
 7    1  0.2648915E-009  0.1718689E+03  0.7561462E-02  0.1175913E+00
          2   -1    0    0  501    0  0.00000000000E+00  0.00000000000E+00  0.53243977717E+03  0.53243977717E+03  0.00000000000E+00 0. -1.
         -2   -1    0    0    0  501 -0.00000000000E+00 -0.00000000000E+00 -0.66228132411E+02  0.66228132411E+02  0.00000000000E+00 0.  1.
         25    2    1    2    0    0  0.17333626390E+02 -0.13390862661E+03  0.36041290386E+03  0.40469432896E+03  0.12509222096E+03 0.  0.
          5    1    3    3  502    0 -0.17425413600E+02  0.19602638152E+02  0.48662940996E+02  0.55438819324E+02  0.41800000000E+01 0.  1.
         -5    1    3    3    0  502  0.34759039990E+02 -0.15351126476E+03  0.31174996286E+03  0.34925550964E+03  0.41800000000E+01 0.  1.
        -11    1    1    2    0    0  0.17002146042E+02 -0.41171822061E+01  0.14205188828E+01  0.17551126267E+02  0.00000000000E+00 0.  1.
         11    1    1    2    0    0 -0.34335772433E+02  0.13802580881E+03  0.10437822202E+03  0.17642245435E+03  0.00000000000E+00 0. -1.
</event>
<event>
 7    1  0.2648915E-009  0.1230565E+03  0.7561462E-02  0.1238138E+00
          2   -1    0    0  501    0  0.00000000000E+00  0.00000000000E+00  0.30315709800E+03  0.30315709800E+03  0.00000000000E+00 0. -1.
         -2   -1    0    0    0  501 -0.00000000000E+00 -0.00000000000E+00 -0.69463135781E+02  0.69463135781E+02  0.00000000000E+00 0.  1.
         25    2    1    2    0    0 -0.80199212171E+02  0.53084121836E+02  0.12269075498E+03  0.19986808607E+03  0.12507754734E+03 0.  0.
          5    1    3    3  502    0 -0.75474632963E+02  0.84113102724E+02  0.56330994770E+02  0.12634115577E+03  0.41800000000E+01 0. -1.
         -5    1    3    3    0  502 -0.47245792083E+01 -0.31028980888E+02  0.66359760213E+02  0.73526930299E+02  0.41800000000E+01 0. -1.
        -11    1    1    2    0    0  0.31317974799E+02 -0.39919463591E+02 -0.13392023954E-01  0.50738341500E+02  0.00000000000E+00 0.  1.
         11    1    1    2    0    0  0.48881237373E+02 -0.13164658245E+02  0.11101659926E+03  0.12201380621E+03  0.00000000000E+00 0. -1.
</event>
<event>
 7    1  0.2648915E-009  0.1455614E+03  0.7561462E-02  0.1206036E+00
         -1   -1    0    0    0  501 -0.00000000000E+00  0.00000000000E+00  0.57589161019E+03  0.57589161019E+03  0.00000000000E+00 0.  1.
          1   -1    0    0  501    0  0.00000000000E+00 -0.00000000000E+00 -0.59926437232E+02  0.59926437232E+02  0.00000000000E+00 0. -1.
         25    2    1    2    0    0 -0.41170579705E+02  0.12015199246E+03  0.40814810879E+03  0.44537961894E+03  0.12508640347E+03 0.  0.
          5    1    3    3  502    0 -0.10411744500E+02 -0.10296901803E+02  0.18074905365E+03  0.18138942474E+03  0.41800000000E+01 0.  1.
         -5    1    3    3    0  502 -0.30758835205E+02  0.13044889427E+03  0.22739905514E+03  0.26399019420E+03  0.41800000000E+01 0.  1.
        -11    1    1    2    0    0 -0.91086625604E+01 -0.70685318391E+02  0.94980878961E+02  0.11874657611E+03  0.00000000000E+00 0.  1.
         11    1    1    2    0    0  0.50279242265E+02 -0.49466674071E+02  0.12836185213E+02  0.71691852377E+02  0.00000000000E+00 0. -1.
</event>
<event>
 7    1  0.2648915E-009  0.1803165E+03  0.7561462E-02  0.1167497E+00
          3   -1    0    0  501    0  0.00000000000E+00  0.00000000000E+00  0.31578594975E+03  0.31578594975E+03  0.00000000000E+00 0. -1.
         -3   -1    0    0    0  501 -0.00000000000E+00 -0.00000000000E+00 -0.13259659289E+03  0.13259659289E+03  0.00000000000E+00 0.  1.
         25    2    1    2    0    0  0.14327774891E+03 -0.81143359041E+02  0.36592578590E+02  0.20999722244E+03  0.12508820318E+03 0.  0.
          5    1    3    3  502    0  0.11039871235E+03 -0.88707522017E+02 -0.20888451934E+02  0.14321557169E+03  0.41800000000E+01 0.  1.
         -5    1    3    3    0  502  0.32879036558E+02  0.75641629765E+01  0.57481030523E+02  0.66781650748E+02  0.41800000000E+01 0.  1.
        -11    1    1    2    0    0 -0.13884250024E+03  0.41287723506E+02  0.95791549138E+02  0.17366040675E+03  0.00000000000E+00 0. -1.
         11    1    1    2    0    0 -0.44352486667E+01  0.39855635535E+02  0.50805229131E+02  0.64724913454E+02  0.00000000000E+00 0.  1.
</event>
<event>
 7    1  0.2648915E-009  0.1211873E+03  0.7561462E-02  0.1241151E+00
         -1   -1    0    0    0  501 -0.00000000000E+00  0.00000000000E+00  0.41819850733E+03  0.41819850733E+03  0.00000000000E+00 0.  1.
          1   -1    0    0  501    0  0.00000000000E+00 -0.00000000000E+00 -0.38238937430E+02  0.38238937430E+02  0.00000000000E+00 0. -1.
         25    2    1    2    0    0  0.65249322205E+01  0.58563109931E+02  0.22756582101E+03  0.26628204121E+03  0.12509080699E+03 0.  0.
          5    1    3    3  502    0  0.62295579841E+02  0.44586738041E+02  0.97912716329E+02  0.12439087143E+03  0.41800000000E+01 0.  1.
         -5    1    3    3    0  502 -0.55770647621E+02  0.13976371889E+02  0.12965310468E+03  0.14189116978E+03  0.41800000000E+01 0.  1.
        -11    1    1    2    0    0  0.32716469438E+02 -0.60432580319E+02  0.12369927206E+03  0.14150609190E+03  0.00000000000E+00 0.  1.
         11    1    1    2    0    0 -0.39241401659E+02  0.18694703880E+01  0.28694476835E+02  0.48649311655E+02  0.00000000000E+00 0. -1.
</event>
<event>
 7    1  0.2648915E-009  0.1318812E+03  0.7561462E-02  0.1224691E+00
          3   -1    0    0  501    0  0.00000000000E+00  0.00000000000E+00  0.63765711970E+02  0.63765711970E+02  0.00000000000E+00 0. -1.
         -3   -1    0    0    0  501 -0.00000000000E+00 -0.00000000000E+00 -0.53365569519E+03  0.53365569519E+03  0.00000000000E+00 0.  1.
         25    2    1    2    0    0  0.85679862025E+02 -0.83389283565E+02 -0.39231006695E+03  0.42877761012E+03  0.12509292123E+03 0.  0.
          5    1    3    3  502    0  0.45815816619E+02 -0.66190736519E+02 -0.80462637079E+02  0.11389473657E+03  0.41800000000E+01 0. -1.
         -5    1    3    3    0  502  0.39864045406E+02 -0.17198547045E+02 -0.31184742987E+03  0.31488287355E+03  0.41800000000E+01 0. -1.
        -11    1    1    2    0    0 -0.73910102135E+02  0.96737466430E+02 -0.85903350239E+02  0.14899740330E+03  0.00000000000E+00 0.  1.
         11    1    1    2    0    0 -0.11769759890E+02 -0.13348182866E+02  0.83234339701E+01  0.19646393734E+02  0.00000000000E+00 0. -1.
</event>
<event>
 7    1  0.2648915E-009  0.1011993E+03  0.7561462E-02  0.1277794E+00
         -2   -1    0    0    0  501 -0.00000000000E+00  0.00000000000E+00  0.17162763093E+02  0.17162763093E+02  0.00000000000E+00 0.  1.
          2   -1    0    0  501    0  0.00000000000E+00 -0.00000000000E+00 -0.67746084781E+03  0.67746084781E+03  0.00000000000E+00 0. -1.
         25    2    1    2    0    0  0.19185828706E+02 -0.80126878691E+01 -0.38330332131E+03  0.40373448914E+03  0.12509117636E+03 0.  0.
          5    1    3    3  502    0  0.27545023010E+01 -0.62002883580E+02 -0.12904994754E+03  0.14325957635E+03  0.41800000000E+01 0. -1.
         -5    1    3    3    0  502  0.16431326405E+02  0.53990195710E+02 -0.25425337377E+03  0.26047491279E+03  0.41800000000E+01 0. -1.
        -11    1    1    2    0    0 -0.48807488534E+02 -0.87243476612E+01 -0.11294705998E+03  0.12335040955E+03  0.00000000000E+00 0.  1.
         11    1    1    2    0    0  0.29621659829E+02  0.16737035530E+02 -0.16404770343E+03  0.16753871221E+03  0.00000000000E+00 0. -1.
</event>
<event>
 7    1  0.2648915E-009  0.1227062E+03  0.7561462E-02  0.1238698E+00
         -1   -1    0    0    0  501 -0.00000000000E+00  0.00000000000E+00  0.18211299327E+02  0.18211299327E+02  0.00000000000E+00 0.  1.
          1   -1    0    0  501    0  0.00000000000E+00 -0.00000000000E+00 -0.88108236704E+03  0.88108236704E+03  0.00000000000E+00 0. -1.
         25    2    1    2    0    0 -0.64134237994E+02  0.17136869210E+02 -0.49347192298E+03  0.51338955288E+03  0.12508965371E+03 0.  0.
          5    1    3    3  502    0 -0.96516981567E+02 -0.33467319144E+01 -0.41301371630E+03  0.42417511784E+03  0.41800000000E+01 0. -1.
         -5    1    3    3    0  502  0.32382743573E+02  0.20483601124E+02 -0.80458206688E+02  0.89214435041E+02  0.41800000000E+01 0. -1.
        -11    1    1    2    0    0  0.57259313113E+02  0.28563166777E+02 -0.24432009967E+03  0.25256047699E+03  0.00000000000E+00 0.  1.
         11    1    1    2    0    0  0.68749248812E+01 -0.45700035987E+02 -0.12507904505E+03  0.13334363649E+03  0.00000000000E+00 0. -1.
</event>
<event>
 7    1  0.2648915E-009  0.9362153E+02  0.7561462E-02  0.1294311E+00
          2   -1    0    0  501    0  0.00000000000E+00  0.00000000000E+00  0.64336117841E+02  0.64336117841E+02  0.00000000000E+00 0. -1.
         -2   -1    0    0    0  501 -0.00000000000E+00 -0.00000000000E+00 -0.27067680186E+03  0.27067680186E+03  0.00000000000E+00 0.  1.
         25    2    1    2    0    0 -0.10807365548E+02  0.67818006498E+02 -0.71248836218E+02  0.15949877482E+03  0.12508949337E+03 0.  0.
          5    1    3    3  502    0  0.40167597301E+02  0.45002096891E+02 -0.82589443820E+02  0.10235777073E+03  0.41800000000E+01 0.  1.
         -5    1    3    3    0  502 -0.50974962849E+02  0.22815909607E+02  0.11340607602E+02  0.57141004099E+02  0.41800000000E+01 0.  1.
        -11    1    1    2    0    0  0.15316486985E+02 -0.45646039473E+02 -0.14351131798E+03  0.15137256714E+03  0.00000000000E+00 0.  1.
         11    1    1    2    0    0 -0.45091214369E+01 -0.22171967025E+02  0.84194701755E+01  0.24141577743E+02  0.00000000000E+00 0. -1.
</event>
<event>
 7    1  0.2648915E-009  0.9765587E+02  0.7561462E-02  0.1285304E+00
          4   -1    0    0  501    0  0.00000000000E+00  0.00000000000E+00  0.40272784700E+03  0.40272784700E+03  0.00000000000E+00 0. -1.
         -4   -1    0    0    0  501 -0.00000000000E+00 -0.00000000000E+00 -0.36606762322E+02  0.36606762322E+02  0.00000000000E+00 0.  1.
         25    2    1    2    0    0 -0.42921201587E+02 -0.61581834978E+00  0.14044845686E+03  0.19291259365E+03  0.12508753326E+03 0.  0.
          5    1    3    3  502    0 -0.76242594435E+02  0.33622921547E+02  0.78378966623E+02  0.11447344176E+03  0.41800000000E+01 0. -1.
         -5    1    3    3    0  502  0.33321392848E+02 -0.34238739897E+02  0.62069490241E+02  0.78439151894E+02  0.41800000000E+01 0. -1.
        -11    1    1    2    0    0  0.53415564693E+02  0.88139103465E+00  0.22920298158E+03  0.23534656608E+03  0.00000000000E+00 0. -1.
         11    1    1    2    0    0 -0.10494363107E+02 -0.26557268487E+00 -0.35303537634E+01  0.11075449587E+02  0.00000000000E+00 0.  1.
</event>
<event>
 7    1  0.2724010E-009  0.1108079E+03  0.7561462E-02  0.1259081E+00
         -1   -1    0    0    0  501 -0.00000000000E+00  0.00000000000E+00  0.53452165116E+02  0.53452165116E+02  0.00000000000E+00 0.  1.
          1   -1    0    0  501    0  0.00000000000E+00 -0.00000000000E+00 -0.34110007153E+03  0.34110007153E+03  0.00000000000E+00 0. -1.
         25    2    1    2    0    0  0.70920244952E+02  0.28398472896E+02 -0.19499212351E+03  0.24393585547E+03  0.12508644588E+03 0.  0.
          5    1    3    3  502    0  0.89024283965E+02 -0.10709295510E+02 -0.17406344763E+03  0.19584577694E+03  0.41800000000E+01 0.  1.
         -5    1    3    3    0  502 -0.18104039013E+02  0.39107768406E+02 -0.20928675884E+02  0.48090078525E+02  0.41800000000E+01 0.  1.
        -11    1    1    2    0    0 -0.42422019519E+02  0.71218723688E+01 -0.95753354180E+02  0.10497168019E+03  0.00000000000E+00 0. -1.
         11    1    1    2    0    0 -0.28498225433E+02 -0.35520345265E+02  0.30975712752E+01  0.45644700989E+02  0.00000000000E+00 0.  1.
</event>
<event>
 7    1  0.2648915E-009  0.1297217E+03  0.7561462E-02  0.1227869E+00
          2   -1    0    0  501    0  0.00000000000E+00  0.00000000000E+00  0.12039220387E+03  0.12039220387E+03  0.00000000000E+00 0. -1.
         -2   -1    0    0    0  501 -0.00000000000E+00 -0.00000000000E+00 -0.22974781397E+03  0.22974781397E+03  0.00000000000E+00 0.  1.
         25    2    1    2    0    0  0.75182605169E+01 -0.99641293282E+02  0.22201523260E+02  0.16163555093E+03  0.12509289396E+03 0.  0.
          5    1    3    3  502    0 -0.35874581243E+02 -0.29388253889E+02 -0.37391245939E+02  0.59717943023E+02  0.41800000000E+01 0.  1.
         -5    1    3    3    0  502  0.43392841760E+02 -0.70253039392E+02  0.59592769200E+02  0.10191760790E+03  0.41800000000E+01 0.  1.
        -11    1    1    2    0    0  0.37668554805E+02  0.55152812032E+02 -0.42450601300E+02  0.79137893875E+02  0.00000000000E+00 0. -1.
         11    1    1    2    0    0 -0.45186815322E+02  0.44488481249E+02 -0.89106532061E+02  0.10936657304E+03  0.00000000000E+00 0.  1.
</event>
<event>
 7    1  0.2648915E-009  0.1110728E+03  0.7561462E-02  0.1258596E+00
         -1   -1    0    0    0  501 -0.00000000000E+00  0.00000000000E+00  0.97042143773E+02  0.97042143773E+02  0.00000000000E+00 0.  1.
          1   -1    0    0  501    0  0.00000000000E+00 -0.00000000000E+00 -0.18481912215E+03  0.18481912215E+03  0.00000000000E+00 0. -1.
         25    2    1    2    0    0  0.30990705236E+02 -0.37163327684E+02 -0.11366555924E+03  0.17581088573E+03  0.12509225175E+03 0.  0.
          5    1    3    3  502    0 -0.34251504373E+02  0.16462419441E+02 -0.72058288951E+02  0.81572337298E+02  0.41800000000E+01 0.  1.
         -5    1    3    3    0  502  0.65242209608E+02 -0.53625747125E+02 -0.41607270286E+02  0.94238548429E+02  0.41800000000E+01 0.  1.
        -11    1    1    2    0    0  0.29058266472E+02  0.62236856269E+00  0.20467789775E+02  0.35548566937E+02  0.00000000000E+00 0.  1.
         11    1    1    2    0    0 -0.60048971708E+02  0.36540959121E+02  0.54207910866E+01  0.70501813258E+02  0.00000000000E+00 0. -1.
</event>
<event>
 7    1  0.2648915E-009  0.2039676E+03  0.7561462E-02  0.1146434E+00
          1   -1    0    0  501    0  0.00000000000E+00  0.00000000000E+00  0.19703034077E+03  0.19703034077E+03  0.00000000000E+00 0. -1.
         -1   -1    0    0    0  501 -0.00000000000E+00 -0.00000000000E+00 -0.32570214956E+03  0.32570214956E+03  0.00000000000E+00 0.  1.
         25    2    1    2    0    0  0.10965643962E+03 -0.14876872024E+03  0.73015066590E+02  0.23481348548E+03  0.12509798617E+03 0.  0.
          5    1    3    3  502    0  0.54965802300E+02 -0.15814080290E+03  0.57048507659E+02  0.17692302731E+03  0.41800000000E+01 0.  1.
         -5    1    3    3    0  502  0.54690637319E+02  0.93720826637E+01  0.15966558930E+02  0.57890458177E+02  0.41800000000E+01 0.  1.
        -11    1    1    2    0    0 -0.39195578354E+02  0.52505690835E+02 -0.16388961755E+02  0.67540647021E+02  0.00000000000E+00 0.  1.
         11    1    1    2    0    0 -0.70460861266E+02  0.96263029405E+02 -0.18529791363E+03  0.22037835782E+03  0.00000000000E+00 0. -1.
</event>
<event>
 7    1  0.2648915E-009  0.6769336E+02  0.7561462E-02  0.1368117E+00
          2   -1    0    0  501    0  0.00000000000E+00  0.00000000000E+00  0.18377496049E+03  0.18377496049E+03  0.00000000000E+00 0.  1.
         -2   -1    0    0    0  501 -0.00000000000E+00 -0.00000000000E+00 -0.69953820293E+02  0.69953820293E+02  0.00000000000E+00 0. -1.
         25    2    1    2    0    0 -0.76832264198E+01  0.83264619005E+00  0.10157771803E+03  0.16132346920E+03  0.12508998220E+03 0.  0.
          5    1    3    3  502    0 -0.14305773809E+02 -0.41660207090E+02  0.10885754047E+03  0.11750601915E+03  0.41800000000E+01 0. -1.
         -5    1    3    3    0  502  0.66225473889E+01  0.42492853280E+02 -0.72798224413E+01  0.43817450047E+02  0.41800000000E+01 0. -1.
        -11    1    1    2    0    0 -0.19845479841E+02 -0.39269047044E+01 -0.33379024333E+02  0.39031050666E+02  0.00000000000E+00 0. -1.
         11    1    1    2    0    0  0.27528706260E+02  0.30942585144E+01  0.45622446496E+02  0.53374260917E+02  0.00000000000E+00 0.  1.
</event>
<event>
 7    1  0.2648915E-009  0.1629615E+03  0.7561462E-02  0.1185393E+00
          1   -1    0    0  501    0  0.00000000000E+00  0.00000000000E+00  0.12327330561E+04  0.12327330561E+04  0.00000000000E+00 0. -1.
         -1   -1    0    0    0  501 -0.00000000000E+00 -0.00000000000E+00 -0.31071484747E+02  0.31071484747E+02  0.00000000000E+00 0.  1.
         25    2    1    2    0    0 -0.13710982703E+03  0.17944585022E+01  0.88728669742E+03  0.90649151092E+03  0.12508737431E+03 0.  0.
          5    1    3    3  502    0 -0.26485064527E+01  0.42803943506E+02  0.26754446539E+03  0.27099207650E+03  0.41800000000E+01 0. -1.
         -5    1    3    3    0  502 -0.13446132057E+03 -0.41009485004E+02  0.61974223203E+03  0.63549943442E+03  0.41800000000E+01 0. -1.
        -11    1    1    2    0    0  0.53552507024E+02  0.17686710052E+02  0.38198159108E+02  0.68116004582E+02  0.00000000000E+00 0.  1.
         11    1    1    2    0    0  0.83557320002E+02 -0.19481168554E+02  0.27617671486E+03  0.28919702538E+03  0.00000000000E+00 0. -1.
</event>
<event>
 7    1  0.2648915E-009  0.1215574E+03  0.7561462E-02  0.1240550E+00
          2   -1    0    0  501    0  0.00000000000E+00  0.00000000000E+00  0.16005602092E+03  0.16005602092E+03  0.00000000000E+00 0. -1.
         -2   -1    0    0    0  501 -0.00000000000E+00 -0.00000000000E+00 -0.12993971081E+03  0.12993971081E+03  0.00000000000E+00 0.  1.
         25    2    1    2    0    0 -0.84865400334E+02 -0.27952827475E+02  0.45545948189E+02  0.16033710276E+03  0.12510018540E+03 0.  0.
          5    1    3    3  502    0 -0.27728562187E+01 -0.36232551445E+02 -0.30821982238E+02  0.47832556955E+02  0.41800000000E+01 0.  1.
         -5    1    3    3    0  502 -0.82092544116E+02  0.82797239700E+01  0.76367930427E+02  0.11250454580E+03  0.41800000000E+01 0.  1.
        -11    1    1    2    0    0  0.24496623189E+02 -0.31021686177E+02 -0.21590667178E+02  0.45039832039E+02  0.00000000000E+00 0.  1.
         11    1    1    2    0    0  0.60368777145E+02  0.58974513652E+02  0.61610291056E+01  0.84618796931E+02  0.00000000000E+00 0. -1.
</event>
<event>
 7    1  0.2648915E-009  0.1821630E+03  0.7561462E-02  0.1165726E+00
          2   -1    0    0  501    0  0.00000000000E+00  0.00000000000E+00  0.19994943170E+03  0.19994943170E+03  0.00000000000E+00 0.  1.
         -2   -1    0    0    0  501 -0.00000000000E+00 -0.00000000000E+00 -0.21632241231E+03  0.21632241231E+03  0.00000000000E+00 0. -1.
         25    2    1    2    0    0 -0.63582727535E+02  0.15502393676E+03 -0.65302369654E+02  0.21906807618E+03  0.12510490922E+03 0.  0.
          5    1    3    3  502    0 -0.90282462841E+02  0.13700239741E+03 -0.80958675825E+02  0.18300917896E+03  0.41800000000E+01 0.  1.
         -5    1    3    3    0  502  0.26699735307E+02  0.18021539342E+02  0.15656306170E+02  0.36058897218E+02  0.41800000000E+01 0.  1.
        -11    1    1    2    0    0  0.99864791739E+01 -0.32031743336E+02  0.53286917358E+02  0.62970293861E+02  0.00000000000E+00 0.  1.
         11    1    1    2    0    0  0.53596248361E+02 -0.12299219342E+03 -0.43575283113E+01  0.13423347397E+03  0.00000000000E+00 0. -1.
</event>
<event>
 7    1  0.2648915E-009  0.1144374E+03  0.7561462E-02  0.1252566E+00
          3   -1    0    0  501    0  0.00000000000E+00  0.00000000000E+00  0.20894416245E+02  0.20894416245E+02  0.00000000000E+00 0. -1.
         -3   -1    0    0    0  501 -0.00000000000E+00 -0.00000000000E+00 -0.13473928968E+04  0.13473928968E+04  0.00000000000E+00 0.  1.
         25    2    1    2    0    0  0.36962141402E+01 -0.71801543175E+02 -0.11473964335E+04  0.11564320340E+04  0.12508936848E+03 0.  0.
          5    1    3    3  502    0  0.28212336814E+02 -0.91222212088E+02 -0.55299922609E+03  0.56119786563E+03  0.41800000000E+01 0.  1.
         -5    1    3    3    0  502 -0.24516122674E+02  0.19420668913E+02 -0.59439720743E+03  0.59523416841E+03  0.41800000000E+01 0.  1.
        -11    1    1    2    0    0 -0.36448040821E+02  0.51898887532E+02 -0.15261726490E+03  0.16526942776E+03  0.00000000000E+00 0.  1.
         11    1    1    2    0    0  0.32751826680E+02  0.19902655643E+02 -0.26484782170E+02  0.46585851277E+02  0.00000000000E+00 0. -1.
</event>
<event>
 7    1  0.2648915E-009  0.2046492E+03  0.7561462E-02  0.1145875E+00
         -1   -1    0    0    0  501 -0.00000000000E+00  0.00000000000E+00  0.48052292635E+02  0.48052292635E+02  0.00000000000E+00 0.  1.
          1   -1    0    0  501    0  0.00000000000E+00 -0.00000000000E+00 -0.95685677376E+03  0.95685677376E+03  0.00000000000E+00 0. -1.
         25    2    1    2    0    0 -0.16704132378E+03  0.73510565976E+02 -0.53831511376E+03  0.58201058867E+03  0.12508619611E+03 0.  0.
          5    1    3    3  502    0  0.16845349809E+02  0.25791863730E+02 -0.83197569965E+02  0.88816068889E+02  0.41800000000E+01 0. -1.
         -5    1    3    3    0  502 -0.18388667359E+03  0.47718702246E+02 -0.45511754380E+03  0.49319451978E+03  0.41800000000E+01 0. -1.
        -11    1    1    2    0    0  0.83461497334E+02 -0.61667697830E+02 -0.12041370962E+03  0.15895970545E+03  0.00000000000E+00 0.  1.
         11    1    1    2    0    0  0.83579826447E+02 -0.11842868146E+02 -0.25007565774E+03  0.26393877227E+03  0.00000000000E+00 0. -1.
</event>
<event>
 7    1  0.2648915E-009  0.1531174E+03  0.7561462E-02  0.1196694E+00
         -2   -1    0    0    0  501 -0.00000000000E+00  0.00000000000E+00  0.36419648329E+03  0.36419648329E+03  0.00000000000E+00 0.  1.
          2   -1    0    0  501    0  0.00000000000E+00 -0.00000000000E+00 -0.80529308254E+02  0.80529308254E+02  0.00000000000E+00 0. -1.
         25    2    1    2    0    0  0.12743132632E+03 -0.25248433152E+02  0.11646301212E+03  0.21467945505E+03  0.12508960358E+03 0.  0.
          5    1    3    3  502    0  0.33829242662E+02 -0.64493835371E+02  0.75973652459E+02  0.10532492928E+03  0.41800000000E+01 0. -1.
         -5    1    3    3    0  502  0.93602083660E+02  0.39245402220E+02  0.40489359659E+02  0.10935452577E+03  0.41800000000E+01 0. -1.
        -11    1    1    2    0    0 -0.30614906538E+02  0.15735174176E+02  0.11417118515E+03  0.11924733845E+03  0.00000000000E+00 0.  1.
         11    1    1    2    0    0 -0.96816419784E+02  0.95132589751E+01  0.53032977766E+02  0.11079899804E+03  0.00000000000E+00 0. -1.
</event>
<event>
 7    1  0.2648915E-009  0.1250611E+03  0.7561462E-02  0.1234974E+00
         -4   -1    0    0    0  501 -0.00000000000E+00  0.00000000000E+00  0.17242626178E+03  0.17242626178E+03  0.00000000000E+00 0.  1.
          4   -1    0    0  501    0  0.00000000000E+00 -0.00000000000E+00 -0.11634840995E+03  0.11634840995E+03  0.00000000000E+00 0. -1.
         25    2    1    2    0    0 -0.80246389250E+02  0.39202394278E+02  0.16278611678E+02  0.15456021549E+03  0.12509019270E+03 0.  0.
          5    1    3    3  502    0 -0.83184765135E+02 -0.18872063064E+02 -0.17509986507E+02  0.87177588533E+02  0.41800000000E+01 0.  1.
         -5    1    3    3    0  502  0.29383758857E+01  0.58074457341E+02  0.33788598185E+02  0.67382626957E+02  0.41800000000E+01 0.  1.
        -11    1    1    2    0    0  0.59983925354E+02  0.25234787903E+01  0.58849270536E+02  0.84069470610E+02  0.00000000000E+00 0.  1.
         11    1    1    2    0    0  0.20262463896E+02 -0.41725873068E+02 -0.19050030382E+02  0.50144985631E+02  0.00000000000E+00 0. -1.
</event>
<event>
 7    1  0.3166984E-009  0.1110618E+03  0.7561462E-02  0.1258616E+00
          2   -1    0    0  501    0  0.00000000000E+00  0.00000000000E+00  0.52079556034E+03  0.52079556034E+03  0.00000000000E+00 0.  1.
         -2   -1    0    0    0  501 -0.00000000000E+00 -0.00000000000E+00 -0.49338111674E+02  0.49338111674E+02  0.00000000000E+00 0. -1.
         25    2    1    2    0    0  0.44220257889E+02 -0.66156919217E+02  0.40698697792E+03  0.43314945870E+03  0.12509150332E+03 0.  0.
          5    1    3    3  502    0  0.78596923425E+02 -0.72865733391E+02  0.24637861399E+03  0.26871320270E+03  0.41800000000E+01 0.  1.
         -5    1    3    3    0  502 -0.34376665537E+02  0.67088141740E+01  0.16060836393E+03  0.16443625599E+03  0.41800000000E+01 0.  1.
        -11    1    1    2    0    0 -0.26961309235E+02  0.41750608814E+02 -0.15133900335E+02  0.51952482821E+02  0.00000000000E+00 0. -1.
         11    1    1    2    0    0 -0.17258948654E+02  0.24406310403E+02  0.79604371075E+02  0.85031730491E+02  0.00000000000E+00 0.  1.
</event>
<event>
 7    1  0.2648915E-009  0.8924249E+02  0.7561462E-02  0.1304697E+00
         -2   -1    0    0    0  501 -0.00000000000E+00  0.00000000000E+00  0.86607015864E+02  0.86607015864E+02  0.00000000000E+00 0.  1.
          2   -1    0    0  501    0  0.00000000000E+00 -0.00000000000E+00 -0.17466457063E+03  0.17466457063E+03  0.00000000000E+00 0. -1.
         25    2    1    2    0    0  0.37267300723E+02 -0.32747555448E+02 -0.81034420592E+02  0.15708417728E+03  0.12509039667E+03 0.  0.
          5    1    3    3  502    0  0.12641214903E+01 -0.53079393300E+02 -0.98522474842E+02  0.11199629657E+03  0.41800000000E+01 0. -1.
         -5    1    3    3    0  502  0.36003179233E+02  0.20331837852E+02  0.17488054250E+02  0.45087880708E+02  0.41800000000E+01 0. -1.
        -11    1    1    2    0    0 -0.46778825485E+02 -0.28072364856E+01 -0.34554072108E+02  0.58224762684E+02  0.00000000000E+00 0. -1.
         11    1    1    2    0    0  0.95115247616E+01  0.35554791933E+02  0.27530937934E+02  0.45962646532E+02  0.00000000000E+00 0.  1.
</event>
<event>
 7    1  0.2648915E-009  0.2958993E+03  0.7561462E-02  0.1087309E+00
         -1   -1    0    0    0  501 -0.00000000000E+00  0.00000000000E+00  0.12611102554E+03  0.12611102554E+03  0.00000000000E+00 0.  1.
          1   -1    0    0  501    0  0.00000000000E+00 -0.00000000000E+00 -0.10943701167E+04  0.10943701167E+04  0.00000000000E+00 0. -1.
         25    2    1    2    0    0  0.27523372144E+03 -0.73848487042E+02 -0.83762931583E+03  0.89357597395E+03  0.12509176637E+03 0.  0.
          5    1    3    3  502    0  0.13695147864E+03 -0.89726939128E+02 -0.34949946986E+03  0.38597147944E+03  0.41800000000E+01 0. -1.
         -5    1    3    3    0  502  0.13828224280E+03  0.15878452085E+02 -0.48812984598E+03  0.50760449451E+03  0.41800000000E+01 0. -1.
        -11    1    1    2    0    0 -0.21002479556E+03  0.35175520282E+02 -0.13296913857E+03  0.25105482228E+03  0.00000000000E+00 0. -1.
         11    1    1    2    0    0 -0.65208925878E+02  0.38672966760E+02  0.23393632207E+01  0.75850346027E+02  0.00000000000E+00 0.  1.
</event>
<event>
 7    1  0.2648915E-009  0.7602617E+02  0.7561462E-02  0.1340722E+00
         -2   -1    0    0    0  501 -0.00000000000E+00  0.00000000000E+00  0.13952909522E+03  0.13952909522E+03  0.00000000000E+00 0.  1.
          2   -1    0    0  501    0  0.00000000000E+00 -0.00000000000E+00 -0.12615555551E+03  0.12615555551E+03  0.00000000000E+00 0. -1.
         25    2    1    2    0    0 -0.38190548826E+02  0.10262605585E+02 -0.57553735163E+02  0.14326074324E+03  0.12508944412E+03 0.  0.
          5    1    3    3  502    0 -0.34703112696E+02  0.45399077098E+02 -0.82055950786E+02  0.10008013635E+03  0.41800000000E+01 0. -1.
         -5    1    3    3    0  502 -0.34874361292E+01 -0.35136471513E+02  0.24502215624E+02  0.43180606892E+02  0.41800000000E+01 0. -1.
        -11    1    1    2    0    0  0.18378363049E+02  0.17310791815E+02  0.82715316990E+02  0.86482665352E+02  0.00000000000E+00 0.  1.
         11    1    1    2    0    0  0.19812185777E+02 -0.27573397400E+02 -0.11788042118E+02  0.35941242138E+02  0.00000000000E+00 0. -1.
</event>
<event>
 7    1  0.2648915E-009  0.9474454E+02  0.7561462E-02  0.1291752E+00
          2   -1    0    0  501    0  0.00000000000E+00  0.00000000000E+00  0.12409523870E+03  0.12409523870E+03  0.00000000000E+00 0. -1.
         -2   -1    0    0    0  501 -0.00000000000E+00 -0.00000000000E+00 -0.13428165177E+03  0.13428165177E+03  0.00000000000E+00 0.  1.
         25    2    1    2    0    0  0.13930212741E+02 -0.51329354318E+02 -0.51375984442E+02  0.14531084211E+03  0.12508795152E+03 0.  0.
          5    1    3    3  502    0  0.33311601907E+02 -0.58974691762E+02 -0.82999797140E+02  0.10721061428E+03  0.41800000000E+01 0.  1.
         -5    1    3    3    0  502 -0.19381389167E+02  0.76453374446E+01  0.31623812698E+02  0.38100227824E+02  0.41800000000E+01 0.  1.
        -11    1    1    2    0    0 -0.23916259954E+02 -0.18250931474E+02  0.28880335836E+02  0.41703210762E+02  0.00000000000E+00 0. -1.
         11    1    1    2    0    0  0.99860472131E+01  0.69580285792E+02  0.12309235538E+02  0.71362837593E+02  0.00000000000E+00 0.  1.
</event>
<event>
 7    1  0.2648915E-009  0.9956621E+02  0.7561462E-02  0.1281211E+00
          1   -1    0    0  501    0  0.00000000000E+00  0.00000000000E+00  0.26697637935E+03  0.26697637935E+03  0.00000000000E+00 0. -1.
         -1   -1    0    0    0  501 -0.00000000000E+00 -0.00000000000E+00 -0.44356842749E+02  0.44356842749E+02  0.00000000000E+00 0.  1.
         25    2    1    2    0    0  0.83331048197E+01 -0.15852372153E+01  0.12952006258E+03  0.18026736077E+03  0.12509564795E+03 0.  0.
          5    1    3    3  502    0 -0.12109878181E+02 -0.60946569785E+02  0.59565138569E+02  0.86177790938E+02  0.41800000000E+01 0.  1.
         -5    1    3    3    0  502  0.20442983001E+02  0.59361332570E+02  0.69954924007E+02  0.94089569832E+02  0.41800000000E+01 0.  1.
        -11    1    1    2    0    0 -0.48189527529E+01 -0.35930480873E+02  0.85164815066E+02  0.92559534822E+02  0.00000000000E+00 0. -1.
         11    1    1    2    0    0 -0.35141520668E+01  0.37515718088E+02  0.79346589630E+01  0.38506326510E+02  0.00000000000E+00 0.  1.
</event>
<event>
 7    1  0.2648915E-009  0.1090663E+03  0.7561462E-02  0.1262309E+00
          1   -1    0    0  501    0  0.00000000000E+00  0.00000000000E+00  0.17423446031E+04  0.17423446031E+04  0.00000000000E+00 0. -1.
         -1   -1    0    0    0  501 -0.00000000000E+00 -0.00000000000E+00 -0.78634367612E+01  0.78634367612E+01  0.00000000000E+00 0.  1.
         25    2    1    2    0    0 -0.24647548322E+02 -0.25092644140E+02  0.11643537821E+04  0.11715819838E+04  0.12508985804E+03 0.  0.
          5    1    3    3  502    0 -0.55910891676E+02 -0.53043147364E+02  0.50303236228E+03  0.50891908315E+03  0.41800000000E+01 0.  1.
         -5    1    3    3    0  502  0.31263343353E+02  0.27950503223E+02  0.66132141980E+03  0.66266290070E+03  0.41800000000E+01 0.  1.
        -11    1    1    2    0    0 -0.15381770573E+02 -0.28219471917E+02  0.18642580382E+03  0.18917589114E+03  0.00000000000E+00 0. -1.
         11    1    1    2    0    0  0.40029318895E+02  0.53312116058E+02  0.38370158044E+03  0.38945016488E+03  0.00000000000E+00 0.  1.
</event>
<event>
 7    1  0.2807195E-009  0.1155936E+03  0.7561462E-02  0.1250548E+00
          1   -1    0    0  501    0  0.00000000000E+00  0.00000000000E+00  0.13055496157E+03  0.13055496157E+03  0.00000000000E+00 0. -1.
         -1   -1    0    0    0  501 -0.00000000000E+00 -0.00000000000E+00 -0.18615135775E+03  0.18615135775E+03  0.00000000000E+00 0.  1.
         25    2    1    2    0    0  0.81736625672E+02  0.70414890832E+00 -0.10708841028E+03  0.18383816226E+03  0.12508865050E+03 0.  0.
          5    1    3    3  502    0  0.97144154745E+02  0.24519737795E+02 -0.34922008882E+02  0.10618485507E+03  0.41800000000E+01 0.  1.
         -5    1    3    3    0  502 -0.15407529073E+02 -0.23815588886E+02 -0.72166401394E+02  0.77653307182E+02  0.41800000000E+01 0.  1.
        -11    1    1    2    0    0 -0.23343831969E+02 -0.29100558282E+02 -0.14743907316E+02  0.40114333925E+02  0.00000000000E+00 0.  1.
         11    1    1    2    0    0 -0.58392793703E+02  0.28396409374E+02  0.66235921407E+02  0.92753823136E+02  0.00000000000E+00 0. -1.
</event>
<event>
 7    1  0.2648915E-009  0.1401817E+03  0.7561462E-02  0.1213085E+00
         -1   -1    0    0    0  501 -0.00000000000E+00  0.00000000000E+00  0.58558861841E+03  0.58558861841E+03  0.00000000000E+00 0.  1.
          1   -1    0    0  501    0  0.00000000000E+00 -0.00000000000E+00 -0.36508337014E+02  0.36508337014E+02  0.00000000000E+00 0. -1.
         25    2    1    2    0    0 -0.32613570498E+02 -0.84816807975E+02  0.35939712461E+03  0.39124348648E+03  0.12509051380E+03 0.  0.
          5    1    3    3  502    0  0.21820982999E+01  0.30578650953E+02  0.45946102484E+02  0.55392528202E+02  0.41800000000E+01 0. -1.
         -5    1    3    3    0  502 -0.34795668798E+02 -0.11539545893E+03  0.31345102212E+03  0.33585095828E+03  0.41800000000E+01 0. -1.
        -11    1    1    2    0    0  0.48201719296E+02  0.61095466941E+01  0.95325976402E+02  0.10699427125E+03  0.00000000000E+00 0.  1.
         11    1    1    2    0    0 -0.15588148797E+02  0.78707261281E+02  0.94357180389E+02  0.12385919769E+03  0.00000000000E+00 0. -1.
</event>
<event>
 7    1  0.2648915E-009  0.1173921E+03  0.7561462E-02  0.1247462E+00
         -2   -1    0    0    0  501 -0.00000000000E+00  0.00000000000E+00  0.24064846172E+02  0.24064846172E+02  0.00000000000E+00 0.  1.
          2   -1    0    0  501    0  0.00000000000E+00 -0.00000000000E+00 -0.11888990450E+04  0.11888990450E+04  0.00000000000E+00 0. -1.
         25    2    1    2    0    0  0.38523720838E+02 -0.10525282701E+03 -0.85272811967E+03  0.86911144689E+03  0.12508887391E+03 0.  0.
          5    1    3    3  502    0  0.12621675477E+02 -0.52469707443E+02 -0.73932799570E+03  0.74130677490E+03  0.41800000000E+01 0. -1.
         -5    1    3    3    0  502  0.25902045361E+02 -0.52783119570E+02 -0.11340012398E+03  0.12780467200E+03  0.41800000000E+01 0. -1.
        -11    1    1    2    0    0 -0.27995808803E+02  0.16832005739E+02 -0.19605075314E+02  0.38097778226E+02  0.00000000000E+00 0.  1.
         11    1    1    2    0    0 -0.10527912035E+02  0.88420821275E+02 -0.29250100389E+03  0.30575466610E+03  0.00000000000E+00 0. -1.
</event>
<event>
 7    1  0.2648915E-009  0.2002232E+03  0.7561462E-02  0.1149551E+00
         -1   -1    0    0    0  501 -0.00000000000E+00  0.00000000000E+00  0.17192927933E+03  0.17192927933E+03  0.00000000000E+00 0.  1.
          1   -1    0    0  501    0  0.00000000000E+00 -0.00000000000E+00 -0.35195793664E+03  0.35195793664E+03  0.00000000000E+00 0. -1.
         25    2    1    2    0    0  0.18699776880E+03  0.68686092996E+02  0.71298053222E+01  0.23533804575E+03  0.12508883541E+03 0.  0.
          5    1    3    3  502    0  0.56974519259E+02  0.33881483089E+02 -0.55749682181E+02  0.86715340075E+02  0.41800000000E+01 0.  1.
         -5    1    3    3    0  502  0.13002324954E+03  0.34804609907E+02  0.62879487503E+02  0.14862270567E+03  0.41800000000E+01 0.  1.
        -11    1    1    2    0    0 -0.12005391301E+03 -0.48003383465E+02 -0.17476758807E+03  0.21739589852E+03  0.00000000000E+00 0. -1.
         11    1    1    2    0    0 -0.66943855788E+02 -0.20682709531E+02 -0.12390874563E+02  0.71153271701E+02  0.00000000000E+00 0.  1.
</event>
<event>
 7    1  0.2648915E-009  0.1262957E+03  0.7561462E-02  0.1233058E+00
          2   -1    0    0  501    0  0.00000000000E+00  0.00000000000E+00  0.27488903272E+03  0.27488903272E+03  0.00000000000E+00 0. -1.
         -2   -1    0    0    0  501 -0.00000000000E+00 -0.00000000000E+00 -0.93966625804E+02  0.93966625804E+02  0.00000000000E+00 0.  1.
         25    2    1    2    0    0 -0.61966116807E+02  0.88021386534E+02  0.43381168114E+02  0.17064094747E+03  0.12509533599E+03 0.  0.
          5    1    3    3  502    0 -0.68063254516E+02  0.54731261563E+02 -0.27767529771E+02  0.91742169787E+02  0.41800000000E+01 0.  1.
         -5    1    3    3    0  502  0.60971377088E+01  0.33290124971E+02  0.71148697885E+02  0.78898777681E+02  0.41800000000E+01 0.  1.
        -11    1    1    2    0    0 -0.47777445290E+01 -0.57434217875E+02  0.22766077874E+02  0.61966204721E+02  0.00000000000E+00 0.  1.
         11    1    1    2    0    0  0.66743861336E+02 -0.30587168659E+02  0.11477516093E+03  0.13624850634E+03  0.00000000000E+00 0. -1.
</event>
<event>
 7    1  0.2648915E-009  0.1801404E+03  0.7561462E-02  0.1167667E+00
          2   -1    0    0  501    0  0.00000000000E+00  0.00000000000E+00  0.18756376314E+03  0.18756376314E+03  0.00000000000E+00 0.  1.
         -2   -1    0    0    0  501 -0.00000000000E+00 -0.00000000000E+00 -0.19479187604E+03  0.19479187604E+03  0.00000000000E+00 0. -1.
         25    2    1    2    0    0  0.14056589755E+03 -0.61788904468E+02 -0.33739783360E+02  0.20090610852E+03  0.12509297019E+03 0.  0.
          5    1    3    3  502    0 -0.47524797405E+01  0.25032138059E+02  0.69834621911E+01  0.26747619401E+02  0.41800000000E+01 0.  1.
         -5    1    3    3    0  502  0.14531837729E+03 -0.86821042527E+02 -0.40723245551E+02  0.17415848912E+03  0.41800000000E+01 0.  1.
        -11    1    1    2    0    0 -0.47206214931E+02  0.53582379105E+02  0.47035004922E+02  0.85509004009E+02  0.00000000000E+00 0.  1.
         11    1    1    2    0    0 -0.93359682615E+02  0.82065253632E+01 -0.20523334457E+02  0.95940526649E+02  0.00000000000E+00 0. -1.
</event>
<event>
 7    1  0.2648915E-009  0.2675787E+03  0.7561462E-02  0.1102673E+00
         -2   -1    0    0    0  501 -0.00000000000E+00  0.00000000000E+00  0.39372156120E+02  0.39372156120E+02  0.00000000000E+00 0.  1.
          2   -1    0    0  501    0  0.00000000000E+00 -0.00000000000E+00 -0.19274497609E+04  0.19274497609E+04  0.00000000000E+00 0. -1.
         25    2    1    2    0    0 -0.24809842004E+03  0.49238359390E+02 -0.95703353172E+03  0.99776555169E+03  0.12508266563E+03 0.  0.
          5    1    3    3  502    0 -0.22077571200E+03  0.11640069430E+02 -0.63566543413E+03  0.67302705947E+03  0.41800000000E+01 0. -1.
         -5    1    3    3    0  502 -0.27322708037E+02  0.37598289959E+02 -0.32136809759E+03  0.32473849222E+03  0.41800000000E+01 0. -1.
        -11    1    1    2    0    0  0.14705434195E+03  0.14714012488E+02 -0.46535002192E+03  0.48825415979E+03  0.00000000000E+00 0.  1.
         11    1    1    2    0    0  0.10104407809E+03 -0.63952371878E+02 -0.46569405113E+03  0.48080220553E+03  0.00000000000E+00 0. -1.
</event>
<event>
 7    1  0.2648915E-009  0.8978716E+02  0.7561462E-02  0.1303368E+00
          2   -1    0    0  501    0  0.00000000000E+00  0.00000000000E+00  0.10099075703E+04  0.10099075703E+04  0.00000000000E+00 0. -1.
         -2   -1    0    0    0  501 -0.00000000000E+00 -0.00000000000E+00 -0.15991266727E+02  0.15991266727E+02  0.00000000000E+00 0.  1.
         25    2    1    2    0    0 -0.60607889868E+02  0.25506103685E+02  0.56031777259E+03  0.57786364534E+03  0.12508600519E+03 0.  0.
          5    1    3    3  502    0 -0.54886139434E+02  0.20628272595E+02  0.90180129353E+02  0.10764730402E+03  0.41800000000E+01 0.  1.
         -5    1    3    3    0  502 -0.57217504344E+01  0.48778310898E+01  0.47013764323E+03  0.47021634133E+03  0.41800000000E+01 0.  1.
        -11    1    1    2    0    0 -0.23506351725E+02 -0.13815318113E+02  0.86307892971E+02  0.90512231080E+02  0.00000000000E+00 0. -1.
         11    1    1    2    0    0  0.84114241593E+02 -0.11690785572E+02  0.34729063806E+03  0.35752296065E+03  0.00000000000E+00 0.  1.
</event>
<event>
 7    1  0.2648915E-009  0.8713777E+02  0.7561462E-02  0.1309935E+00
          2   -1    0    0  501    0  0.00000000000E+00  0.00000000000E+00  0.30836941249E+03  0.30836941249E+03  0.00000000000E+00 0. -1.
         -2   -1    0    0    0  501 -0.00000000000E+00 -0.00000000000E+00 -0.45278250336E+02  0.45278250336E+02  0.00000000000E+00 0.  1.
         25    2    1    2    0    0 -0.23780317169E+02 -0.40596019575E+02  0.21527654308E+03  0.25338365891E+03  0.12508296571E+03 0.  0.
          5    1    3    3  502    0 -0.40034652775E+02  0.27024822298E+02  0.15099292185E+03  0.15858577898E+03  0.41800000000E+01 0.  1.
         -5    1    3    3    0  502  0.16254335606E+02 -0.67620841873E+02  0.64283621229E+02  0.94797879934E+02  0.41800000000E+01 0.  1.
        -11    1    1    2    0    0  0.16128882268E+01  0.32470429320E+02 -0.13010688357E+02  0.35017255749E+02  0.00000000000E+00 0.  1.
         11    1    1    2    0    0  0.22167428942E+02  0.81255902552E+01  0.60825307424E+02  0.65246748165E+02  0.00000000000E+00 0. -1.
</event>
<event>
 7    1  0.2648915E-009  0.1861711E+03  0.7561462E-02  0.1161961E+00
         -2   -1    0    0    0  501 -0.00000000000E+00  0.00000000000E+00  0.20338850656E+03  0.20338850656E+03  0.00000000000E+00 0.  1.
          2   -1    0    0  501    0  0.00000000000E+00 -0.00000000000E+00 -0.18205491096E+03  0.18205491096E+03  0.00000000000E+00 0. -1.
         25    2    1    2    0    0  0.14321552329E+03  0.52615695637E+02 -0.32566189144E+02  0.19996706767E+03  0.12508866431E+03 0.  0.
          5    1    3    3  502    0  0.15673159292E+03  0.18036871271E+02 -0.14555069281E+02  0.15849114608E+03  0.41800000000E+01 0.  1.
         -5    1    3    3    0  502 -0.13516069634E+02  0.34578824366E+02 -0.18011119862E+02  0.41475921588E+02  0.41800000000E+01 0.  1.
        -11    1    1    2    0    0 -0.21889852921E+02  0.24924429372E+02  0.14447220436E+02  0.36181694526E+02  0.00000000000E+00 0. -1.
         11    1    1    2    0    0 -0.12132567037E+03 -0.77540125009E+02  0.39452564315E+02  0.14929465532E+03  0.00000000000E+00 0.  1.
</event>
<event>
 7    1  0.2648915E-009  0.1073864E+03  0.7561462E-02  0.1265488E+00
          2   -1    0    0  501    0  0.00000000000E+00  0.00000000000E+00  0.57809326206E+03  0.57809326206E+03  0.00000000000E+00 0. -1.
         -2   -1    0    0    0  501 -0.00000000000E+00 -0.00000000000E+00 -0.28484108293E+02  0.28484108293E+02  0.00000000000E+00 0.  1.
         25    2    1    2    0    0  0.42807742022E+02  0.50095402880E+02  0.35273446842E+03  0.38001320756E+03  0.12508549294E+03 0.  0.
          5    1    3    3  502    0  0.54695360348E+01  0.87180220606E+02  0.19593396540E+03  0.21456443761E+03  0.41800000000E+01 0. -1.
         -5    1    3    3    0  502  0.37338205987E+02 -0.37084817726E+02  0.15680050302E+03  0.16544876995E+03  0.41800000000E+01 0. -1.
        -11    1    1    2    0    0  0.13415727396E+01 -0.22341721253E+02 -0.52942986829E+00  0.22388225073E+02  0.00000000000E+00 0.  1.
         11    1    1    2    0    0 -0.44149314762E+02 -0.27753681628E+02  0.19740411522E+03  0.20417593772E+03  0.00000000000E+00 0. -1.
</event>
<event>
 7    1  0.2648915E-009  0.1698586E+03  0.7561462E-02  0.1177995E+00
         -1   -1    0    0    0  501 -0.00000000000E+00  0.00000000000E+00  0.28478819011E+03  0.28478819011E+03  0.00000000000E+00 0.  1.
          1   -1    0    0  501    0  0.00000000000E+00 -0.00000000000E+00 -0.10231819523E+03  0.10231819523E+03  0.00000000000E+00 0. -1.
         25    2    1    2    0    0 -0.11444820218E+03  0.63879891038E+02  0.11362156059E+03  0.21386124103E+03  0.12509092662E+03 0.  0.
          5    1    3    3  502    0 -0.79796353110E+02 -0.26314097447E+02  0.46314294097E+02  0.96033202237E+02  0.41800000000E+01 0.  1.
         -5    1    3    3    0  502 -0.34651849070E+02  0.90193988484E+02  0.67307266497E+02  0.11782803879E+03  0.41800000000E+01 0.  1.
        -11    1    1    2    0    0  0.47235788194E+02 -0.77060742164E+02  0.42187830595E+02  0.99746632622E+02  0.00000000000E+00 0. -1.
         11    1    1    2    0    0  0.67212413986E+02  0.13180851126E+02  0.26660603693E+02  0.73498511682E+02  0.00000000000E+00 0.  1.
</event>
<event>
 7    1  0.2648915E-009  0.1282377E+03  0.7561462E-02  0.1230094E+00
          2   -1    0    0  501    0  0.00000000000E+00  0.00000000000E+00  0.60663822476E+03  0.60663822476E+03  0.00000000000E+00 0. -1.
         -2   -1    0    0    0  501 -0.00000000000E+00 -0.00000000000E+00 -0.36152749540E+02  0.36152749540E+02  0.00000000000E+00 0.  1.
         25    2    1    2    0    0  0.35565867515E+02  0.88403405702E+02  0.38978529107E+03  0.42030996136E+03  0.12509115642E+03 0.  0.
          5    1    3    3  502    0  0.27751740324E+01  0.11393379432E+03  0.30884760172E+03  0.32923080744E+03  0.41800000000E+01 0.  1.
         -5    1    3    3    0  502  0.32790693483E+02 -0.25530388618E+02  0.80937689345E+02  0.91079153919E+02  0.41800000000E+01 0.  1.
        -11    1    1    2    0    0 -0.41831039151E+02 -0.75272550761E+02  0.18756861226E+03  0.20639228919E+03  0.00000000000E+00 0. -1.
         11    1    1    2    0    0  0.62651716362E+01 -0.13130854941E+02 -0.68684281057E+01  0.16088723745E+02  0.00000000000E+00 0.  1.
</event>
<event>
 7    1  0.2648915E-009  0.2825766E+03  0.7561462E-02  0.1094290E+00
         -2   -1    0    0    0  501 -0.00000000000E+00  0.00000000000E+00  0.15901389165E+03  0.15901389165E+03  0.00000000000E+00 0.  1.
          2   -1    0    0  501    0  0.00000000000E+00 -0.00000000000E+00 -0.59404555140E+03  0.59404555140E+03  0.00000000000E+00 0. -1.
         25    2    1    2    0    0  0.16066000607E+03  0.22078571473E+03 -0.29783901280E+03  0.42298279546E+03  0.12509355831E+03 0.  0.
          5    1    3    3  502    0  0.96142108101E+02  0.20199354134E+03 -0.17957430852E+03  0.28689562627E+03  0.41800000000E+01 0.  1.
         -5    1    3    3    0  502  0.64517897970E+02  0.18792173388E+02 -0.11826470428E+03  0.13608716919E+03  0.41800000000E+01 0.  1.
        -11    1    1    2    0    0 -0.13035149668E+02 -0.31066546382E+02 -0.74324198666E+02  0.81603504448E+02  0.00000000000E+00 0. -1.
         11    1    1    2    0    0 -0.14762485640E+03 -0.18971916835E+03 -0.62868448280E+02  0.24847314313E+03  0.00000000000E+00 0.  1.
</event>
<event>
 7    1  0.2648915E-009  0.1001772E+03  0.7561462E-02  0.1279924E+00
         -2   -1    0    0    0  501 -0.00000000000E+00  0.00000000000E+00  0.10570207193E+03  0.10570207193E+03  0.00000000000E+00 0.  1.
          2   -1    0    0  501    0  0.00000000000E+00 -0.00000000000E+00 -0.13244815783E+03  0.13244815783E+03  0.00000000000E+00 0. -1.
         25    2    1    2    0    0 -0.40931822992E+02 -0.13790300943E+02 -0.73646442210E+01  0.13254054970E+03  0.12508865975E+03 0.  0.
          5    1    3    3  502    0 -0.73146017762E+02  0.26673659576E+02  0.81148806747E+01  0.78390992582E+02  0.41800000000E+01 0. -1.
         -5    1    3    3    0  502  0.32214194770E+02 -0.40463960520E+02 -0.15479524896E+02  0.54149557123E+02  0.41800000000E+01 0. -1.
        -11    1    1    2    0    0  0.29131214512E+02 -0.19579664966E+02 -0.48436159594E+02  0.59816824517E+02  0.00000000000E+00 0. -1.
         11    1    1    2    0    0  0.11800608481E+02  0.33369965909E+02  0.29054717909E+02  0.45792855535E+02  0.00000000000E+00 0.  1.
</event>
<event>
 7    1  0.2648915E-009  0.1764919E+03  0.7561462E-02  0.1171242E+00
          1   -1    0    0  501    0  0.00000000000E+00  0.00000000000E+00  0.11528932532E+04  0.11528932532E+04  0.00000000000E+00 0. -1.
         -1   -1    0    0    0  501 -0.00000000000E+00 -0.00000000000E+00 -0.31622259519E+02  0.31622259519E+02  0.00000000000E+00 0.  1.
         25    2    1    2    0    0 -0.14513974448E+03 -0.13035456890E+02  0.41163183873E+03  0.45422849409E+03  0.12508911072E+03 0.  0.
          5    1    3    3  502    0 -0.13806307906E+03 -0.52317542003E+02  0.27937194192E+03  0.31601375497E+03  0.41800000000E+01 0.  1.
         -5    1    3    3    0  502 -0.70766654221E+01  0.39282085113E+02  0.13225989681E+03  0.13821473912E+03  0.41800000000E+01 0.  1.
        -11    1    1    2    0    0  0.51221538932E+02  0.42669794408E+02  0.18893896946E+03  0.20035541317E+03  0.00000000000E+00 0.  1.
         11    1    1    2    0    0  0.93918205553E+02 -0.29634337519E+02  0.52070018544E+03  0.52993160541E+03  0.00000000000E+00 0. -1.
</event>
<event>
 7    1  0.2648915E-009  0.1266894E+03  0.7561462E-02  0.1232452E+00
         -1   -1    0    0    0  501 -0.00000000000E+00  0.00000000000E+00  0.16289129705E+03  0.16289129705E+03  0.00000000000E+00 0.  1.
          1   -1    0    0  501    0  0.00000000000E+00 -0.00000000000E+00 -0.16183875580E+03  0.16183875580E+03  0.00000000000E+00 0. -1.
         25    2    1    2    0    0  0.89021068880E+02  0.53199185228E+02  0.58480577461E+02  0.17269238578E+03  0.12509107942E+03 0.  0.
          5    1    3    3  502    0 -0.20338127110E+02 -0.29555854128E+01  0.44120997223E+02  0.48851915985E+02  0.41800000000E+01 0.  1.
         -5    1    3    3    0  502  0.10935919599E+03  0.56154770641E+02  0.14359580238E+02  0.12384046979E+03  0.41800000000E+01 0.  1.
        -11    1    1    2    0    0 -0.79621062920E+02 -0.58321567619E+02 -0.80005810004E+02  0.12705057475E+03  0.00000000000E+00 0. -1.
         11    1    1    2    0    0 -0.94000059596E+01  0.51223823907E+01  0.22577773797E+02  0.24987092328E+02  0.00000000000E+00 0.  1.
</event>
<event>
 7    1  0.2648915E-009  0.8808843E+02  0.7561462E-02  0.1307548E+00
          2   -1    0    0  501    0  0.00000000000E+00  0.00000000000E+00  0.39613344524E+03  0.39613344524E+03  0.00000000000E+00 0. -1.
         -2   -1    0    0    0  501 -0.00000000000E+00 -0.00000000000E+00 -0.29962642973E+02  0.29962642973E+02  0.00000000000E+00 0.  1.
         25    2    1    2    0    0  0.43419932158E+01 -0.64786414579E+01  0.22540828135E+03  0.25791097068E+03  0.12509336431E+03 0.  0.
          5    1    3    3  502    0 -0.54544810580E+02  0.16739302001E+02  0.72405990952E+02  0.92279144548E+02  0.41800000000E+01 0. -1.
         -5    1    3    3    0  502  0.58886803796E+02 -0.23217943459E+02  0.15300229040E+03  0.16563182613E+03  0.41800000000E+01 0. -1.
        -11    1    1    2    0    0 -0.65996395475E+01 -0.24040148933E+02  0.13470089194E+03  0.13698837284E+03  0.00000000000E+00 0. -1.
         11    1    1    2    0    0  0.22576463318E+01  0.30518790390E+02  0.60616289741E+01  0.31196744697E+02  0.00000000000E+00 0.  1.
</event>
<event>
 7    1  0.2648915E-009  0.1142891E+03  0.7561462E-02  0.1252827E+00
          4   -1    0    0  501    0  0.00000000000E+00  0.00000000000E+00  0.45200811387E+03  0.45200811387E+03  0.00000000000E+00 0. -1.
         -4   -1    0    0    0  501 -0.00000000000E+00 -0.00000000000E+00 -0.35769169401E+02  0.35769169401E+02  0.00000000000E+00 0.  1.
         25    2    1    2    0    0 -0.32678558001E+02 -0.15360144010E+02  0.33696636139E+03  0.36124506491E+03  0.12509135075E+03 0.  0.
          5    1    3    3  502    0 -0.73967466993E+02  0.18635895075E+02  0.20665170530E+03  0.22031995476E+03  0.41800000000E+01 0.  1.
         -5    1    3    3    0  502  0.41288908992E+02 -0.33996039085E+02  0.13031465609E+03  0.14092511015E+03  0.41800000000E+01 0.  1.
        -11    1    1    2    0    0  0.43582215313E+02 -0.29332983360E+02  0.39658064602E+02  0.65822454317E+02  0.00000000000E+00 0.  1.
         11    1    1    2    0    0 -0.10903657312E+02  0.44693127370E+02  0.39614518476E+02  0.60709764050E+02  0.00000000000E+00 0. -1.
</event>
<event>
 7    1  0.2648915E-009  0.1898722E+03  0.7561462E-02  0.1158577E+00
          2   -1    0    0  501    0  0.00000000000E+00  0.00000000000E+00  0.19305362917E+03  0.19305362917E+03  0.00000000000E+00 0.  1.
         -2   -1    0    0    0  501 -0.00000000000E+00 -0.00000000000E+00 -0.19253015094E+03  0.19253015094E+03  0.00000000000E+00 0. -1.
         25    2    1    2    0    0  0.15052775366E+03  0.49274872656E+02  0.28074003525E+01  0.20185076835E+03  0.12509689639E+03 0.  0.
          5    1    3    3  502    0  0.11699008694E+03 -0.20288287065E+02 -0.21589042718E+02  0.12075534854E+03  0.41800000000E+01 0.  1.
         -5    1    3    3    0  502  0.33537666722E+02  0.69563159721E+02  0.24396443070E+02  0.81095419809E+02  0.41800000000E+01 0.  1.
        -11    1    1    2    0    0  0.10156319370E+02 -0.16848023245E+02 -0.23269921645E+01  0.19809634094E+02  0.00000000000E+00 0.  1.
         11    1    1    2    0    0 -0.16068407303E+03 -0.32426849411E+02  0.43070042644E-01  0.16392337766E+03  0.00000000000E+00 0. -1.
</event>
<event>
 7    1  0.2648915E-009  0.2514623E+03  0.7561462E-02  0.1112384E+00
         -1   -1    0    0    0  501 -0.00000000000E+00  0.00000000000E+00  0.87060582504E+02  0.87060582504E+02  0.00000000000E+00 0.  1.
          1   -1    0    0  501    0  0.00000000000E+00 -0.00000000000E+00 -0.78150109595E+03  0.78150109595E+03  0.00000000000E+00 0. -1.
         25    2    1    2    0    0  0.11489051287E+03 -0.19814448905E+03 -0.25401715111E+03  0.36418851156E+03  0.12508992928E+03 0.  0.
          5    1    3    3  502    0 -0.24356620725E+02 -0.17134567292E+02 -0.47723956663E+02  0.56408215793E+02  0.41800000000E+01 0. -1.
         -5    1    3    3    0  502  0.13924713359E+03 -0.18100992175E+03 -0.20629319445E+03  0.30778029577E+03  0.41800000000E+01 0. -1.
        -11    1    1    2    0    0 -0.60156669802E+02  0.17493591929E+03 -0.30925952185E+03  0.36036488818E+03  0.00000000000E+00 0. -1.
         11    1    1    2    0    0 -0.54733843065E+02  0.23208569754E+02 -0.13116384048E+03  0.14400827871E+03  0.00000000000E+00 0.  1.
</event>
<event>
 7    1  0.2648915E-009  0.9336922E+02  0.7561462E-02  0.1294892E+00
         -3   -1    0    0    0  501 -0.00000000000E+00  0.00000000000E+00  0.14923794831E+03  0.14923794831E+03  0.00000000000E+00 0.  1.
          3   -1    0    0  501    0  0.00000000000E+00 -0.00000000000E+00 -0.84399115099E+02  0.84399115099E+02  0.00000000000E+00 0. -1.
         25    2    1    2    0    0 -0.11646885415E+02  0.18006333506E+02  0.12368364138E+02  0.12752087515E+03  0.12509484075E+03 0.  0.
          5    1    3    3  502    0  0.34395116879E+02 -0.29415711915E+02 -0.24591898535E+02  0.51677287527E+02  0.41800000000E+01 0. -1.
         -5    1    3    3    0  502 -0.46042002295E+02  0.47422045422E+02  0.36960262673E+02  0.75843587627E+02  0.41800000000E+01 0. -1.
        -11    1    1    2    0    0  0.34558456802E+02 -0.32914247796E+02  0.88127539626E+00  0.47732706720E+02  0.00000000000E+00 0. -1.
         11    1    1    2    0    0 -0.22911571386E+02  0.14907914290E+02  0.51589193674E+02  0.58383481532E+02  0.00000000000E+00 0.  1.
</event>
<event>
 7    1  0.2648915E-009  0.1310540E+03  0.7561462E-02  0.1225900E+00
         -1   -1    0    0    0  501 -0.00000000000E+00  0.00000000000E+00  0.33522977208E+03  0.33522977208E+03  0.00000000000E+00 0.  1.
          1   -1    0    0  501    0  0.00000000000E+00 -0.00000000000E+00 -0.79619524325E+02  0.79619524325E+02  0.00000000000E+00 0. -1.
         25    2    1    2    0    0  0.38993761327E+02 -0.87345025071E+02  0.40774169585E+02  0.16266479459E+03  0.12509050990E+03 0.  0.
          5    1    3    3  502    0  0.19177148239E+02 -0.10887615062E+03  0.61487923608E+02  0.12657020320E+03  0.41800000000E+01 0. -1.
         -5    1    3    3    0  502  0.19816613088E+02  0.21531125553E+02 -0.20713754023E+02  0.36094591390E+02  0.41800000000E+01 0. -1.
        -11    1    1    2    0    0 -0.38031759355E+02  0.36385456358E+01  0.11876373274E+03  0.12475767691E+03  0.00000000000E+00 0.  1.
         11    1    1    2    0    0 -0.96200197148E+00  0.83706479436E+02  0.96072345425E+02  0.12742682489E+03  0.00000000000E+00 0. -1.
</event>
<event>
 7    1  0.2648915E-009  0.1552155E+03  0.7561462E-02  0.1194207E+00
          1   -1    0    0  501    0  0.00000000000E+00  0.00000000000E+00  0.43939620295E+02  0.43939620295E+02  0.00000000000E+00 0. -1.
         -1   -1    0    0    0  501 -0.00000000000E+00 -0.00000000000E+00 -0.73015931982E+03  0.73015931982E+03  0.00000000000E+00 0.  1.
         25    2    1    2    0    0 -0.99254495070E+02  0.10262469859E+03 -0.35887364784E+03  0.40598168995E+03  0.12509018311E+03 0.  0.
          5    1    3    3  502    0 -0.59751432650E+02  0.32517147161E+02 -0.44383323983E+02  0.81332345416E+02  0.41800000000E+01 0. -1.
         -5    1    3    3    0  502 -0.39503062421E+02  0.70107551429E+02 -0.31449032386E+03  0.32464934453E+03  0.41800000000E+01 0. -1.
        -11    1    1    2    0    0 -0.11871134610E+02 -0.19857175151E+02 -0.93342771662E+02  0.96167064338E+02  0.00000000000E+00 0.  1.
         11    1    1    2    0    0  0.11112562968E+03 -0.82767523438E+02 -0.23400328002E+03  0.27195018582E+03  0.00000000000E+00 0. -1.
</event>
<event>
 7    1  0.2648915E-009  0.1939601E+03  0.7561462E-02  0.1154937E+00
         -2   -1    0    0    0  501 -0.00000000000E+00  0.00000000000E+00  0.34671306926E+02  0.34671306926E+02  0.00000000000E+00 0.  1.
          2   -1    0    0  501    0  0.00000000000E+00 -0.00000000000E+00 -0.14004334758E+04  0.14004334758E+04  0.00000000000E+00 0. -1.
         25    2    1    2    0    0 -0.10923075155E+03 -0.13255503899E+03 -0.98150543677E+03  0.10042427088E+04  0.12509316686E+03 0.  0.
          5    1    3    3  502    0 -0.79170987504E+02 -0.15471479806E+02 -0.24776925947E+03  0.26060408725E+03  0.41800000000E+01 0.  1.
         -5    1    3    3    0  502 -0.30059764045E+02 -0.11708355918E+03 -0.73373617729E+03  0.74363862158E+03  0.41800000000E+01 0.  1.
        -11    1    1    2    0    0  0.73588951375E+02  0.13131269181E+03 -0.24882211170E+03  0.29081059140E+03  0.00000000000E+00 0. -1.
         11    1    1    2    0    0  0.35641800174E+02  0.12423471749E+01 -0.13543462045E+03  0.14005148255E+03  0.00000000000E+00 0.  1.
</event>
<event>
 7    1  0.2648915E-009  0.1843685E+03  0.7561462E-02  0.1163641E+00
          3   -1    0    0  501    0  0.00000000000E+00  0.00000000000E+00  0.12906868079E+03  0.12906868079E+03  0.00000000000E+00 0. -1.
         -3   -1    0    0    0  501 -0.00000000000E+00 -0.00000000000E+00 -0.28102345480E+03  0.28102345480E+03  0.00000000000E+00 0.  1.
         25    2    1    2    0    0  0.11915408257E+03  0.10044453114E+03 -0.67133725341E+02  0.21081078581E+03  0.12508977220E+03 0.  0.
          5    1    3    3  502    0  0.13836146535E+03  0.11102835486E+03 -0.61243118532E+02  0.18772155615E+03  0.41800000000E+01 0. -1.
         -5    1    3    3    0  502 -0.19207382775E+02 -0.10583823726E+02 -0.58906068091E+01  0.23089229661E+02  0.41800000000E+01 0. -1.
        -11    1    1    2    0    0 -0.12430107966E+03 -0.79862806688E+02 -0.95100204047E+02  0.17570678731E+03  0.00000000000E+00 0.  1.
         11    1    1    2    0    0  0.51469970908E+01 -0.20581724451E+02  0.10279155378E+02  0.23574562472E+02  0.00000000000E+00 0. -1.
</event>
<event>
 7    1  0.2648915E-009  0.9681304E+02  0.7561462E-02  0.1287144E+00
         -2   -1    0    0    0  501 -0.00000000000E+00  0.00000000000E+00  0.82036027696E+01  0.82036027696E+01  0.00000000000E+00 0.  1.
          2   -1    0    0  501    0  0.00000000000E+00 -0.00000000000E+00 -0.16227216139E+04  0.16227216139E+04  0.00000000000E+00 0. -1.
         25    2    1    2    0    0 -0.22376315963E+02 -0.10435789527E+02 -0.11605127214E+04  0.11674962438E+04  0.12509235562E+03 0.  0.
          5    1    3    3  502    0  0.22402331406E+02 -0.41195352069E+02 -0.20108284304E+03  0.20652046787E+03  0.41800000000E+01 0. -1.
         -5    1    3    3    0  502 -0.44778647369E+02  0.30759562541E+02 -0.95942987839E+03  0.96097577591E+03  0.41800000000E+01 0. -1.
        -11    1    1    2    0    0  0.56333694124E+02  0.13614231531E+02 -0.31608830404E+03  0.32135750862E+03  0.00000000000E+00 0.  1.
         11    1    1    2    0    0 -0.33957378161E+02 -0.31784420040E+01 -0.13791698565E+03  0.14207146426E+03  0.00000000000E+00 0. -1.
</event>
<event>
 7    1  0.2648915E-009  0.1350301E+03  0.7561462E-02  0.1220177E+00
         -2   -1    0    0    0  501 -0.00000000000E+00  0.00000000000E+00  0.23493588908E+03  0.23493588908E+03  0.00000000000E+00 0.  1.
          2   -1    0    0  501    0  0.00000000000E+00 -0.00000000000E+00 -0.96217970992E+02  0.96217970992E+02  0.00000000000E+00 0. -1.
         25    2    1    2    0    0 -0.48672649028E+02  0.85913673206E+02  0.10692546773E+03  0.19191152007E+03  0.12508712915E+03 0.  0.
          5    1    3    3  502    0 -0.20378920856E+02 -0.31295478174E+02  0.16029084333E+02  0.40854758767E+02  0.41800000000E+01 0. -1.
         -5    1    3    3    0  502 -0.28293728173E+02  0.11720915138E+03  0.90896383396E+02  0.15105676130E+03  0.41800000000E+01 0. -1.
        -11    1    1    2    0    0  0.55568623331E+01 -0.62545146203E+02  0.56374270789E+02  0.84385024972E+02  0.00000000000E+00 0.  1.
         11    1    1    2    0    0  0.43115786695E+02 -0.23368527003E+02 -0.24581820428E+02  0.54857315029E+02  0.00000000000E+00 0. -1.
</event>
<event>
 7    1  0.2648915E-009  0.1046938E+03  0.7561462E-02  0.1270724E+00
         -1   -1    0    0    0  501 -0.00000000000E+00  0.00000000000E+00  0.39891814407E+02  0.39891814407E+02  0.00000000000E+00 0.  1.
          1   -1    0    0  501    0  0.00000000000E+00 -0.00000000000E+00 -0.36279850737E+03  0.36279850737E+03  0.00000000000E+00 0. -1.
         25    2    1    2    0    0 -0.11758269284E+02 -0.12170531166E+02 -0.10013173378E+03  0.16112180318E+03  0.12508993814E+03 0.  0.
          5    1    3    3  502    0  0.25236334212E+02  0.48208494309E+02 -0.35093221016E+02  0.64884035397E+02  0.41800000000E+01 0. -1.
         -5    1    3    3    0  502 -0.36994603496E+02 -0.60379025475E+02 -0.65038512766E+02  0.96237767784E+02  0.41800000000E+01 0. -1.
        -11    1    1    2    0    0  0.28777380781E+02  0.41183751752E+02 -0.18148909300E+03  0.18831497532E+03  0.00000000000E+00 0. -1.
         11    1    1    2    0    0 -0.17019111497E+02 -0.29013220586E+02 -0.41285866179E+02  0.53253543273E+02  0.00000000000E+00 0.  1.
</event>
<event>
 7    1  0.3108387E-009  0.1273339E+03  0.7561462E-02  0.1231466E+00
         -2   -1    0    0    0  501 -0.00000000000E+00  0.00000000000E+00  0.13897962715E+03  0.13897962715E+03  0.00000000000E+00 0.  1.
          2   -1    0    0  501    0  0.00000000000E+00 -0.00000000000E+00 -0.27412107025E+03  0.27412107025E+03  0.00000000000E+00 0. -1.
         25    2    1    2    0    0  0.10367468181E+03  0.37178928755E+02  0.54517530624E+02  0.17535706924E+03  0.12508888118E+03 0.  0.
          5    1    3    3  502    0  0.12111724975E+03  0.34704244863E+02  0.90126601811E+01  0.12638225050E+03  0.41800000000E+01 0. -1.
         -5    1    3    3    0  502 -0.17442567937E+02  0.24746838919E+01  0.45504870443E+02  0.48974818740E+02  0.41800000000E+01 0. -1.
        -11    1    1    2    0    0 -0.45980087110E+02 -0.11792387437E+02 -0.11611287774E+02  0.48867686828E+02  0.00000000000E+00 0.  1.
         11    1    1    2    0    0 -0.57694594704E+02 -0.25386541318E+02 -0.17804768595E+03  0.18887594132E+03  0.00000000000E+00 0. -1.
</event>
<event>
 7    1  0.2648915E-009  0.1127079E+03  0.7561462E-02  0.1255636E+00
         -2   -1    0    0    0  501 -0.00000000000E+00  0.00000000000E+00  0.47802024090E+02  0.47802024090E+02  0.00000000000E+00 0.  1.
          2   -1    0    0  501    0  0.00000000000E+00 -0.00000000000E+00 -0.60424361169E+03  0.60424361169E+03  0.00000000000E+00 0. -1.
         25    2    1    2    0    0  0.43022929587E+01  0.72611833729E+02 -0.87858897789E+02  0.16928624350E+03  0.12509059995E+03 0.  0.
          5    1    3    3  502    0 -0.41518670012E+02  0.51119847427E+02 -0.97365962355E+02  0.11762075406E+03  0.41800000000E+01 0. -1.
         -5    1    3    3    0  502  0.45820962971E+02  0.21491986302E+02  0.95070645662E+01  0.51665489443E+02  0.41800000000E+01 0. -1.
        -11    1    1    2    0    0 -0.27693362764E+02 -0.79560542604E+02 -0.42031710496E+03  0.42867618432E+03  0.00000000000E+00 0.  1.
         11    1    1    2    0    0  0.23391069806E+02  0.69487088748E+01 -0.48265584844E+02  0.54083207948E+02  0.00000000000E+00 0. -1.
</event>
<event>
 7    1  0.2648915E-009  0.1180256E+03  0.7561462E-02  0.1246390E+00
          3   -1    0    0  501    0  0.00000000000E+00  0.00000000000E+00  0.28148545401E+03  0.28148545401E+03  0.00000000000E+00 0. -1.
         -3   -1    0    0    0  501 -0.00000000000E+00 -0.00000000000E+00 -0.74675536556E+02  0.74675536556E+02  0.00000000000E+00 0.  1.
         25    2    1    2    0    0  0.80397121057E+02 -0.49729217332E+02  0.12912067704E+03  0.20311641327E+03  0.12508971169E+03 0.  0.
          5    1    3    3  502    0  0.85322837762E+02 -0.35428964104E+02  0.22276085886E+02  0.95125677625E+02  0.41800000000E+01 0. -1.
         -5    1    3    3    0  502 -0.49257167050E+01 -0.14300253228E+02  0.10684459115E+03  0.10799073565E+03  0.41800000000E+01 0. -1.
        -11    1    1    2    0    0 -0.89473818153E+02  0.13447271879E+02  0.71091700335E+02  0.11506703747E+03  0.00000000000E+00 0.  1.
         11    1    1    2    0    0  0.90766970965E+01  0.36281945453E+02  0.65975400860E+01  0.37977539826E+02  0.00000000000E+00 0. -1.
</event>
<event>
 7    1  0.2648915E-009  0.1316862E+03  0.7561462E-02  0.1224975E+00
         -4   -1    0    0    0  501 -0.00000000000E+00  0.00000000000E+00  0.17890546592E+03  0.17890546592E+03  0.00000000000E+00 0.  1.
          4   -1    0    0  501    0  0.00000000000E+00 -0.00000000000E+00 -0.11899099805E+03  0.11899099805E+03  0.00000000000E+00 0. -1.
         25    2    1    2    0    0 -0.20633791944E+02 -0.78266409285E+02 -0.21313409897E+02  0.15050918043E+03  0.12508943904E+03 0.  0.
          5    1    3    3  502    0  0.28380304861E+02  0.20068201505E+02  0.95851089200E+01  0.36297673874E+02  0.41800000000E+01 0. -1.
         -5    1    3    3    0  502 -0.49014096806E+02 -0.98334610791E+02 -0.30898518817E+02  0.11421150656E+03  0.41800000000E+01 0. -1.
        -11    1    1    2    0    0 -0.29024397988E+02  0.57843212475E+02  0.63947918552E+02  0.90981257384E+02  0.00000000000E+00 0. -1.
         11    1    1    2    0    0  0.49658189932E+02  0.20423196810E+02  0.17279959213E+02  0.56406026147E+02  0.00000000000E+00 0.  1.
</event>
<event>
 7    1  0.2648915E-009  0.1096101E+03  0.7561462E-02  0.1261294E+00
         -4   -1    0    0    0  501 -0.00000000000E+00  0.00000000000E+00  0.52477840133E+02  0.52477840133E+02  0.00000000000E+00 0.  1.
          4   -1    0    0  501    0  0.00000000000E+00 -0.00000000000E+00 -0.34347876606E+03  0.34347876606E+03  0.00000000000E+00 0. -1.
         25    2    1    2    0    0 -0.36724266344E+02  0.67694591792E+02 -0.18928759393E+03  0.23959818842E+03  0.12508504779E+03 0.  0.
          5    1    3    3  502    0 -0.58723443063E+02  0.30532988963E+01 -0.14892545906E+03  0.16016875524E+03  0.41800000000E+01 0.  1.
         -5    1    3    3    0  502  0.21999176719E+02  0.64641292895E+02 -0.40362134871E+02  0.79429433177E+02  0.41800000000E+01 0.  1.
        -11    1    1    2    0    0  0.40673833737E+02 -0.22480760916E+02 -0.10076168266E+03  0.11096243533E+03  0.00000000000E+00 0. -1.
         11    1    1    2    0    0 -0.39495673927E+01 -0.45213830876E+02 -0.95164933151E+00  0.45395982438E+02  0.00000000000E+00 0.  1.
</event>
<event>
 7    1  0.2648915E-009  0.1719330E+03  0.7561462E-02  0.1175847E+00
          2   -1    0    0  501    0  0.00000000000E+00  0.00000000000E+00  0.82787933501E+03  0.82787933501E+03  0.00000000000E+00 0. -1.
         -2   -1    0    0    0  501 -0.00000000000E+00 -0.00000000000E+00 -0.49435146708E+02  0.49435146708E+02  0.00000000000E+00 0.  1.
         25    2    1    2    0    0 -0.13991505742E+03 -0.58339666906E+02  0.57496545061E+03  0.60762848928E+03  0.12508945424E+03 0.  0.
          5    1    3    3  502    0 -0.39964285893E+02 -0.57820522790E+02  0.10037565731E+03  0.12260955095E+03  0.41800000000E+01 0. -1.
         -5    1    3    3    0  502 -0.99950771523E+02 -0.51914411549E+00  0.47458979330E+03  0.48501893833E+03  0.41800000000E+01 0. -1.
        -11    1    1    2    0    0  0.14296392841E+03  0.31488057245E+02  0.14904346894E+03  0.20891179529E+03  0.00000000000E+00 0.  1.
         11    1    1    2    0    0 -0.30488709926E+01  0.26851609661E+02  0.54435268748E+02  0.60774197151E+02  0.00000000000E+00 0. -1.
</event>
<event>
 7    1  0.2648915E-009  0.1632746E+03  0.7561462E-02  0.1185049E+00
         -1   -1    0    0    0  501 -0.00000000000E+00  0.00000000000E+00  0.10164691809E+03  0.10164691809E+03  0.00000000000E+00 0.  1.
          1   -1    0    0  501    0  0.00000000000E+00 -0.00000000000E+00 -0.26770744844E+03  0.26770744844E+03  0.00000000000E+00 0. -1.
         25    2    1    2    0    0 -0.24207346079E+02 -0.11918088119E+03 -0.88247986639E+02  0.19551236204E+03  0.12508916228E+03 0.  0.
          5    1    3    3  502    0  0.51096833732E+02 -0.39357894735E+02 -0.31557804941E+02  0.71925640408E+02  0.41800000000E+01 0. -1.
         -5    1    3    3    0  502 -0.75304179811E+02 -0.79822986456E+02 -0.56690181697E+02  0.12358672164E+03  0.41800000000E+01 0. -1.
        -11    1    1    2    0    0  0.43525313999E+02  0.14841372421E+02 -0.76171976793E+01  0.46612669893E+02  0.00000000000E+00 0. -1.
         11    1    1    2    0    0 -0.19317967920E+02  0.10433950877E+03 -0.70195346031E+02  0.12722933459E+03  0.00000000000E+00 0.  1.
</event>
<event>
 7    1  0.2648915E-009  0.5549438E+02  0.7561462E-02  0.1417775E+00
         -2   -1    0    0    0  501 -0.00000000000E+00  0.00000000000E+00  0.12852673110E+02  0.12852673110E+02  0.00000000000E+00 0.  1.
          2   -1    0    0  501    0  0.00000000000E+00 -0.00000000000E+00 -0.10137833658E+04  0.10137833658E+04  0.00000000000E+00 0. -1.
         25    2    1    2    0    0  0.75685593111E+01 -0.86748594055E+00 -0.75171883626E+03  0.76209664954E+03  0.12510818853E+03 0.  0.
          5    1    3    3  502    0  0.24039283042E+01  0.13443601609E+02 -0.74468438937E+03  0.74482133527E+03  0.41800000000E+01 0. -1.
         -5    1    3    3    0  502  0.51646310069E+01 -0.14311087549E+02 -0.70344468837E+01  0.17275314273E+02  0.41800000000E+01 0. -1.
        -11    1    1    2    0    0  0.31514991516E+02 -0.19292866914E+02 -0.61519447924E+02  0.71763861914E+02  0.00000000000E+00 0.  1.
         11    1    1    2    0    0 -0.39083550827E+02  0.20160352855E+02 -0.18769240846E+03  0.19277552741E+03  0.00000000000E+00 0. -1.
</event>
<event>
 7    1  0.2648915E-009  0.9193091E+02  0.7561462E-02  0.1298242E+00
         -1   -1    0    0    0  501 -0.00000000000E+00  0.00000000000E+00  0.88033510593E+03  0.88033510593E+03  0.00000000000E+00 0.  1.
          1   -1    0    0  501    0  0.00000000000E+00 -0.00000000000E+00 -0.15243964649E+02  0.15243964649E+02  0.00000000000E+00 0. -1.
         25    2    1    2    0    0  0.34217552610E+02 -0.13855545796E+02  0.41407185877E+03  0.43412630152E+03  0.12508926568E+03 0.  0.
          5    1    3    3  502    0  0.60257704282E+02 -0.73155136337E+01  0.88355398122E+02  0.10727840623E+03  0.41800000000E+01 0. -1.
         -5    1    3    3    0  502 -0.26040151673E+02 -0.65400321622E+01  0.32571646065E+03  0.32684789529E+03  0.41800000000E+01 0. -1.
        -11    1    1    2    0    0 -0.64524875483E+02  0.88980075924E+01  0.34409635460E+03  0.35020698929E+03  0.00000000000E+00 0.  1.
         11    1    1    2    0    0  0.30307322874E+02  0.49575382035E+01  0.10692292791E+03  0.11124577977E+03  0.00000000000E+00 0. -1.
</event>
<event>
 7    1  0.2896781E-009  0.1072801E+03  0.7561462E-02  0.1265691E+00
          1   -1    0    0  501    0  0.00000000000E+00  0.00000000000E+00  0.51384476780E+03  0.51384476780E+03  0.00000000000E+00 0. -1.
         -1   -1    0    0    0  501 -0.00000000000E+00 -0.00000000000E+00 -0.42577987501E+02  0.42577987501E+02  0.00000000000E+00 0.  1.
         25    2    1    2    0    0  0.94039317449E+02 -0.20382872629E+01  0.19195811866E+03  0.24767588164E+03  0.12509146728E+03 0.  0.
          5    1    3    3  502    0  0.10682582131E+02 -0.28288861494E+02  0.14539435401E+03  0.14856435583E+03  0.41800000000E+01 0. -1.
         -5    1    3    3    0  502  0.83356735318E+02  0.26250574231E+02  0.46563764650E+02  0.99111525811E+02  0.41800000000E+01 0. -1.
        -11    1    1    2    0    0 -0.11338076897E+02 -0.70364498985E+01 -0.36306041127E+01  0.13829132334E+02  0.00000000000E+00 0.  1.
         11    1    1    2    0    0 -0.82701240552E+02  0.90747371614E+01  0.28293926575E+03  0.29491774132E+03  0.00000000000E+00 0. -1.
</event>
<event>
 7    1  0.2648915E-009  0.3068537E+03  0.7561462E-02  0.1081864E+00
         -1   -1    0    0    0  501 -0.00000000000E+00  0.00000000000E+00  0.29708645693E+03  0.29708645693E+03  0.00000000000E+00 0.  1.
          1   -1    0    0  501    0  0.00000000000E+00 -0.00000000000E+00 -0.36571048378E+03  0.36571048378E+03  0.00000000000E+00 0. -1.
         25    2    1    2    0    0 -0.29972765968E+03  0.16156186602E+02  0.46261356723E+02  0.32846042969E+03  0.12509375846E+03 0.  0.
          5    1    3    3  502    0 -0.21890816126E+03  0.49677456405E+02  0.74298374304E+02  0.23648753364E+03  0.41800000000E+01 0.  1.
         -5    1    3    3    0  502 -0.80819498410E+02 -0.33521269803E+02 -0.28037017581E+02  0.91972896048E+02  0.41800000000E+01 0.  1.
        -11    1    1    2    0    0  0.16631971050E+03 -0.23588773042E+02 -0.10968065425E+03  0.20062034351E+03  0.00000000000E+00 0. -1.
         11    1    1    2    0    0  0.13340794918E+03  0.74325864405E+01 -0.52047293276E+01  0.13371616750E+03  0.00000000000E+00 0.  1.
</event>
<event>
 7    1  0.2648915E-009  0.1275709E+03  0.7561462E-02  0.1231105E+00
          2   -1    0    0  501    0  0.00000000000E+00  0.00000000000E+00  0.94577477038E+03  0.94577477038E+03  0.00000000000E+00 0. -1.
         -2   -1    0    0    0  501 -0.00000000000E+00 -0.00000000000E+00 -0.21176717537E+02  0.21176717537E+02  0.00000000000E+00 0.  1.
         25    2    1    2    0    0 -0.20921213119E+02 -0.79698961657E+02  0.37630811373E+03  0.40502430773E+03  0.12508905526E+03 0.  0.
          5    1    3    3  502    0  0.42150265070E+02 -0.20219979772E+02  0.23139366761E+03  0.23610589624E+03  0.41800000000E+01 0. -1.
         -5    1    3    3    0  502 -0.63071478189E+02 -0.59478981886E+02  0.14491444611E+03  0.16891841149E+03  0.41800000000E+01 0. -1.
        -11    1    1    2    0    0 -0.32710094317E+02  0.11547643278E+02  0.20110800836E+03  0.20407775322E+03  0.00000000000E+00 0.  1.
         11    1    1    2    0    0  0.53631307436E+02  0.68151318380E+02  0.34718193076E+03  0.35784942697E+03  0.00000000000E+00 0. -1.
</event>
<event>
 7    1  0.2648915E-009  0.1987848E+03  0.7561462E-02  0.1150768E+00
         -1   -1    0    0    0  501 -0.00000000000E+00  0.00000000000E+00  0.15406904949E+03  0.15406904949E+03  0.00000000000E+00 0.  1.
          1   -1    0    0  501    0  0.00000000000E+00 -0.00000000000E+00 -0.30422998336E+03  0.30422998336E+03  0.00000000000E+00 0. -1.
         25    2    1    2    0    0 -0.32398226121E+02  0.17122046635E+03 -0.14840993400E+03  0.26084804258E+03  0.12510035834E+03 0.  0.
          5    1    3    3  502    0 -0.47932573255E+02  0.66860701857E+01 -0.25637529708E+02  0.54927137581E+02  0.41800000000E+01 0.  1.
         -5    1    3    3    0  502  0.15534347134E+02  0.16453439616E+03 -0.12277240429E+03  0.20592090500E+03  0.41800000000E+01 0.  1.
        -11    1    1    2    0    0  0.43416819815E+02 -0.73736683436E+02 -0.36972737004E+02  0.93215352859E+02  0.00000000000E+00 0. -1.
         11    1    1    2    0    0 -0.11018593694E+02 -0.97483782912E+02  0.35221737137E+02  0.10423563740E+03  0.00000000000E+00 0.  1.
</event>
<event>
 7    1  0.2648915E-009  0.2336634E+03  0.7561462E-02  0.1124088E+00
         -1   -1    0    0    0  501 -0.00000000000E+00  0.00000000000E+00  0.41755642961E+03  0.41755642961E+03  0.00000000000E+00 0.  1.
          1   -1    0    0  501    0  0.00000000000E+00 -0.00000000000E+00 -0.18035887245E+03  0.18035887245E+03  0.00000000000E+00 0. -1.
         25    2    1    2    0    0  0.19694099702E+03  0.83599667659E+02 -0.23255494527E+02  0.24892574795E+03  0.12509416144E+03 0.  0.
          5    1    3    3  502    0  0.86740361727E+01 -0.24839747404E+02 -0.16860288359E+02  0.31527665282E+02  0.41800000000E+01 0.  1.
         -5    1    3    3    0  502  0.18826696085E+03  0.10843941506E+03 -0.63952061681E+01  0.21739808267E+03  0.41800000000E+01 0.  1.
        -11    1    1    2    0    0 -0.68170955975E+02  0.29399273537E+01  0.12774828762E+03  0.14482937341E+03  0.00000000000E+00 0.  1.
         11    1    1    2    0    0 -0.12877004105E+03 -0.86539595012E+02  0.13270476407E+03  0.20416018070E+03  0.00000000000E+00 0. -1.
</event>
<event>
 7    1  0.2648915E-009  0.1770409E+03  0.7561462E-02  0.1170698E+00
          2   -1    0    0  501    0  0.00000000000E+00  0.00000000000E+00  0.10055522725E+04  0.10055522725E+04  0.00000000000E+00 0. -1.
         -2   -1    0    0    0  501 -0.00000000000E+00 -0.00000000000E+00 -0.61122710641E+02  0.61122710641E+02  0.00000000000E+00 0.  1.
         25    2    1    2    0    0 -0.17247002538E+03 -0.11347578945E+02  0.18422749430E+03  0.28188788719E+03  0.12508530724E+03 0.  0.
          5    1    3    3  502    0 -0.10601635065E+03 -0.32914049431E+02  0.18031623506E+03  0.21178814481E+03  0.41800000000E+01 0.  1.
         -5    1    3    3    0  502 -0.66453674724E+02  0.21566470486E+02  0.39112592433E+01  0.70099742385E+02  0.41800000000E+01 0.  1.
        -11    1    1    2    0    0  0.10661360666E+03  0.33730087098E+01  0.62668849804E+03  0.63570143298E+03  0.00000000000E+00 0. -1.
         11    1    1    2    0    0  0.65856418721E+02  0.79745702353E+01  0.13351356948E+03  0.14908566293E+03  0.00000000000E+00 0.  1.
</event>
<event>
 7    1  0.2648915E-009  0.1304540E+03  0.7561462E-02  0.1226784E+00
          2   -1    0    0  501    0  0.00000000000E+00  0.00000000000E+00  0.79964447014E+03  0.79964447014E+03  0.00000000000E+00 0. -1.
         -2   -1    0    0    0  501 -0.00000000000E+00 -0.00000000000E+00 -0.34586723264E+02  0.34586723264E+02  0.00000000000E+00 0.  1.
         25    2    1    2    0    0 -0.41346453062E+02  0.71416574103E+02  0.64409639421E+03  0.66130007097E+03  0.12509101724E+03 0.  0.
          5    1    3    3  502    0 -0.72497721421E+02  0.13532678025E+02  0.45737943361E+03  0.46330602378E+03  0.41800000000E+01 0. -1.
         -5    1    3    3    0  502  0.31151268359E+02  0.57883896079E+02  0.18671696060E+03  0.19799404719E+03  0.41800000000E+01 0. -1.
        -11    1    1    2    0    0  0.68016030357E+02 -0.64234205223E+02  0.77736127723E+02  0.12163518841E+03  0.00000000000E+00 0.  1.
         11    1    1    2    0    0 -0.26669577295E+02 -0.71823688802E+01  0.43225224937E+02  0.51295934017E+02  0.00000000000E+00 0. -1.
</event>
<event>
 7    1  0.2648915E-009  0.9892140E+02  0.7561462E-02  0.1282581E+00
          2   -1    0    0  501    0  0.00000000000E+00  0.00000000000E+00  0.66814111097E+02  0.66814111097E+02  0.00000000000E+00 0. -1.
         -2   -1    0    0    0  501 -0.00000000000E+00 -0.00000000000E+00 -0.23802868208E+03  0.23802868208E+03  0.00000000000E+00 0.  1.
         25    2    1    2    0    0  0.40321052950E+02  0.24057261976E+02 -0.14619332325E+03  0.19805037185E+03  0.12508766070E+03 0.  0.
          5    1    3    3  502    0 -0.24854920051E+02 -0.31162423014E+02 -0.17975081488E+02  0.43925386889E+02  0.41800000000E+01 0. -1.
         -5    1    3    3    0  502  0.65175973001E+02  0.55219684990E+02 -0.12821824177E+03  0.15412498496E+03  0.41800000000E+01 0. -1.
        -11    1    1    2    0    0 -0.21657418406E+02 -0.41424367190E+02 -0.51831262805E+02  0.69796144400E+02  0.00000000000E+00 0.  1.
         11    1    1    2    0    0 -0.18663634544E+02  0.17367105215E+02  0.26810015079E+02  0.36996276927E+02  0.00000000000E+00 0. -1.
</event>
<event>
 7    1  0.2648915E-009  0.9385109E+02  0.7561462E-02  0.1293785E+00
         -2   -1    0    0    0  501 -0.00000000000E+00  0.00000000000E+00  0.11049117876E+03  0.11049117876E+03  0.00000000000E+00 0. -1.
          2   -1    0    0  501    0  0.00000000000E+00 -0.00000000000E+00 -0.18418216818E+03  0.18418216818E+03  0.00000000000E+00 0.  1.
         25    2    1    2    0    0  0.39205810602E+02  0.48505502907E+02  0.29887065424E+02  0.14294857541E+03  0.12510467271E+03 0.  0.
          5    1    3    3  502    0 -0.90722956923E+01  0.56000544181E+02 -0.30990819698E+02  0.64778629217E+02  0.41800000000E+01 0. -1.
         -5    1    3    3    0  502  0.48278106294E+02 -0.74950412734E+01  0.60877885121E+02  0.78169946193E+02  0.41800000000E+01 0. -1.
        -11    1    1    2    0    0  0.12591314893E+02 -0.32584896662E+01 -0.76840815469E+02  0.77933753198E+02  0.00000000000E+00 0.  1.
         11    1    1    2    0    0 -0.51797125494E+02 -0.45247013241E+02 -0.26737239371E+02  0.73791018328E+02  0.00000000000E+00 0. -1.
</event>
<event>
 7    1  0.2648915E-009  0.9499337E+02  0.7561462E-02  0.1291191E+00
          4   -1    0    0  501    0  0.00000000000E+00  0.00000000000E+00  0.70676718444E+02  0.70676718444E+02  0.00000000000E+00 0. -1.
         -4   -1    0    0    0  501 -0.00000000000E+00 -0.00000000000E+00 -0.40223162418E+03  0.40223162418E+03  0.00000000000E+00 0.  1.
         25    2    1    2    0    0 -0.12262665924E+02 -0.79929359118E+02 -0.31350537392E+03  0.34709208557E+03  0.12509284936E+03 0.  0.
          5    1    3    3  502    0 -0.75709927401E+01  0.66060156159E+01 -0.21717988741E+03  0.21745237472E+03  0.41800000000E+01 0. -1.
         -5    1    3    3    0  502 -0.46916731835E+01 -0.86535374734E+02 -0.96325486507E+02  0.12963971085E+03  0.41800000000E+01 0. -1.
        -11    1    1    2    0    0  0.22180071483E+02  0.15276670692E+02 -0.47092200131E+02  0.54249493560E+02  0.00000000000E+00 0.  1.
         11    1    1    2    0    0 -0.99174055593E+01  0.64652688426E+02  0.29042668321E+02  0.71566763494E+02  0.00000000000E+00 0. -1.
</event>
<event>
 7    1  0.4660921E-009  0.1643175E+03  0.7561462E-02  0.1183907E+00
          1   -1    0    0  501    0  0.00000000000E+00  0.00000000000E+00  0.21483129765E+03  0.21483129765E+03  0.00000000000E+00 0. -1.
         -1   -1    0    0    0  501 -0.00000000000E+00 -0.00000000000E+00 -0.17384027216E+03  0.17384027216E+03  0.00000000000E+00 0.  1.
         25    2    1    2    0    0  0.65180959971E+01  0.12519736667E+03 -0.77599653516E+02  0.19335097430E+03  0.12508407909E+03 0.  0.
          5    1    3    3  502    0  0.54039747172E+02  0.11653260628E+03 -0.53589094940E+02  0.13924584769E+03  0.41800000000E+01 0.  1.
         -5    1    3    3    0  502 -0.47521651175E+02  0.86647603858E+01 -0.24010558576E+02  0.54105126615E+02  0.41800000000E+01 0.  1.
        -11    1    1    2    0    0  0.39241971161E+02 -0.66310507037E+02  0.39397440850E+02  0.86540013807E+02  0.00000000000E+00 0. -1.
         11    1    1    2    0    0 -0.45760067158E+02 -0.58886859632E+02  0.79193238160E+02  0.10878058169E+03  0.00000000000E+00 0.  1.
</event>
<event>
 7    1  0.2648915E-009  0.1682691E+03  0.7561462E-02  0.1179665E+00
          2   -1    0    0  501    0  0.00000000000E+00  0.00000000000E+00  0.36345086706E+03  0.36345086706E+03  0.00000000000E+00 0. -1.
         -2   -1    0    0    0  501 -0.00000000000E+00 -0.00000000000E+00 -0.15933207425E+03  0.15933207425E+03  0.00000000000E+00 0.  1.
         25    2    1    2    0    0 -0.13730570130E+01  0.14407253372E+03 -0.67067888406E+02  0.20224877705E+03  0.12509071071E+03 0.  0.
          5    1    3    3  502    0 -0.22190831040E+02 -0.62892495115E+01 -0.42339129677E+02  0.48394854514E+02  0.41800000000E+01 0. -1.
         -5    1    3    3    0  502  0.20817774027E+02  0.15036178323E+03 -0.24728758729E+02  0.15385392254E+03  0.41800000000E+01 0. -1.
        -11    1    1    2    0    0  0.29567406858E+02 -0.24519367534E+02  0.26251951402E+02  0.46525217732E+02  0.00000000000E+00 0.  1.
         11    1    1    2    0    0 -0.28194349844E+02 -0.11955316618E+03  0.24493472981E+03  0.27400894653E+03  0.00000000000E+00 0. -1.
</event>
<event>
 7    1  0.2648915E-009  0.1038831E+03  0.7561462E-02  0.1272336E+00
         -1   -1    0    0    0  501 -0.00000000000E+00  0.00000000000E+00  0.20863788875E+02  0.20863788875E+02  0.00000000000E+00 0.  1.
          1   -1    0    0  501    0  0.00000000000E+00 -0.00000000000E+00 -0.10616747586E+04  0.10616747586E+04  0.00000000000E+00 0. -1.
         25    2    1    2    0    0 -0.23316442915E+02  0.52495309605E+02 -0.87455393290E+03  0.88532002736E+03  0.12509018845E+03 0.  0.
          5    1    3    3  502    0 -0.12275183810E+02  0.92436166565E+02 -0.67854802999E+03  0.68493797269E+03  0.41800000000E+01 0. -1.
         -5    1    3    3    0  502 -0.11041259105E+02 -0.39940856960E+02 -0.19600590291E+03  0.20038205467E+03  0.41800000000E+01 0. -1.
        -11    1    1    2    0    0  0.21183425864E+02 -0.96938082647E+00  0.19391033974E+01  0.21294068482E+02  0.00000000000E+00 0.  1.
         11    1    1    2    0    0  0.21330170509E+01 -0.51525928779E+02 -0.16819614024E+03  0.17592445166E+03  0.00000000000E+00 0. -1.
</event>
<event>
 7    1  0.2648915E-009  0.9728752E+02  0.7561462E-02  0.1286106E+00
         -2   -1    0    0    0  501 -0.00000000000E+00  0.00000000000E+00  0.19276855022E+02  0.19276855022E+02  0.00000000000E+00 0. -1.
          2   -1    0    0  501    0  0.00000000000E+00 -0.00000000000E+00 -0.93694182382E+03  0.93694182382E+03  0.00000000000E+00 0.  1.
         25    2    1    2    0    0  0.16187679877E+02  0.28597258430E+02 -0.33307185017E+03  0.35730200766E+03  0.12509205863E+03 0.  0.
          5    1    3    3  502    0 -0.34701742139E+01  0.41053155672E+02 -0.33098531672E+03  0.33356581956E+03  0.41800000000E+01 0. -1.
         -5    1    3    3    0  502  0.19657854091E+02 -0.12455897242E+02 -0.20865334584E+01  0.23736188098E+02  0.41800000000E+01 0. -1.
        -11    1    1    2    0    0  0.39525778270E+02 -0.55110488454E+02 -0.33650257200E+03  0.34326874901E+03  0.00000000000E+00 0.  1.
         11    1    1    2    0    0 -0.55713458147E+02  0.26513230024E+02 -0.24809054663E+03  0.25564792218E+03  0.00000000000E+00 0. -1.
</event>
<event>
 7    1  0.2648915E-009  0.1209452E+03  0.7561462E-02  0.1241546E+00
         -2   -1    0    0    0  501 -0.00000000000E+00  0.00000000000E+00  0.17580723747E+02  0.17580723747E+02  0.00000000000E+00 0.  1.
          2   -1    0    0  501    0  0.00000000000E+00 -0.00000000000E+00 -0.29862820209E+04  0.29862820209E+04  0.00000000000E+00 0. -1.
         25    2    1    2    0    0 -0.67644095323E+02  0.63998807266E+02 -0.27062519117E+04  0.27107412820E+04  0.12508923710E+03 0.  0.
          5    1    3    3  502    0 -0.34216713139E+02 -0.27677425402E+02 -0.14595648170E+04  0.14602341424E+04  0.41800000000E+01 0.  1.
         -5    1    3    3    0  502 -0.33427382184E+02  0.91676232668E+02 -0.12466870947E+04  0.12505071395E+04  0.41800000000E+01 0.  1.
        -11    1    1    2    0    0  0.43216938117E+02 -0.15867075394E+02 -0.31097108256E+02  0.55556259446E+02  0.00000000000E+00 0.  1.
         11    1    1    2    0    0  0.24427157206E+02 -0.48131731872E+02 -0.23135227724E+03  0.23756520327E+03  0.00000000000E+00 0. -1.
</event>
<event>
 7    1  0.2648915E-009  0.1399995E+03  0.7561462E-02  0.1213330E+00
          2   -1    0    0  501    0  0.00000000000E+00  0.00000000000E+00  0.18512297305E+03  0.18512297305E+03  0.00000000000E+00 0. -1.
         -2   -1    0    0    0  501 -0.00000000000E+00 -0.00000000000E+00 -0.11207505035E+03  0.11207505035E+03  0.00000000000E+00 0.  1.
         25    2    1    2    0    0 -0.37079496920E+02  0.82182417482E+02  0.71266903437E+02  0.16987050129E+03  0.12509267304E+03 0.  0.
          5    1    3    3  502    0 -0.73090350505E+02  0.11032462904E+02  0.28928686277E+02  0.79487457277E+02  0.41800000000E+01 0. -1.
         -5    1    3    3    0  502  0.36010853585E+02  0.71149954578E+02  0.42338217160E+02  0.90383044011E+02  0.41800000000E+01 0. -1.
        -11    1    1    2    0    0  0.17421473558E+01 -0.89918183367E+02 -0.66608591054E+01  0.90181382898E+02  0.00000000000E+00 0.  1.
         11    1    1    2    0    0  0.35337349564E+02  0.77357658853E+01  0.84418783664E+01  0.37146139212E+02  0.00000000000E+00 0. -1.
</event>
<event>
 7    1  0.2648915E-009  0.9579471E+02  0.7561462E-02  0.1289396E+00
          1   -1    0    0  501    0  0.00000000000E+00  0.00000000000E+00  0.11059034871E+03  0.11059034871E+03  0.00000000000E+00 0. -1.
         -1   -1    0    0    0  501 -0.00000000000E+00 -0.00000000000E+00 -0.11765416354E+03  0.11765416354E+03  0.00000000000E+00 0.  1.
         25    2    1    2    0    0 -0.19999935325E+02  0.30596104045E+02 -0.18930347926E+01  0.13033844158E+03  0.12509359207E+03 0.  0.
          5    1    3    3  502    0 -0.31015153217E+02  0.57287326093E+02  0.42007905345E+02  0.77626760666E+02  0.41800000000E+01 0.  1.
         -5    1    3    3    0  502  0.11015217892E+02 -0.26691222048E+02 -0.43900940138E+02  0.52711680912E+02  0.41800000000E+01 0.  1.
        -11    1    1    2    0    0  0.50390391660E+02 -0.41052684008E+02  0.17939099270E+01  0.65021016208E+02  0.00000000000E+00 0. -1.
         11    1    1    2    0    0 -0.30390456335E+02  0.10456579963E+02 -0.69646899622E+01  0.32885054463E+02  0.00000000000E+00 0.  1.
</event>
<event>
 7    1  0.2648915E-009  0.1066440E+03  0.7561462E-02  0.1266914E+00
          2   -1    0    0  501    0  0.00000000000E+00  0.00000000000E+00  0.64483023016E+02  0.64483023016E+02  0.00000000000E+00 0.  1.
         -2   -1    0    0    0  501 -0.00000000000E+00 -0.00000000000E+00 -0.18933475959E+03  0.18933475959E+03  0.00000000000E+00 0. -1.
         25    2    1    2    0    0 -0.23872301091E+02  0.95030137596E+01 -0.67665856696E+02  0.14452301514E+03  0.12509212490E+03 0.  0.
          5    1    3    3  502    0 -0.49774574412E+02  0.50785976743E+02 -0.15286467837E+02  0.72855145258E+02  0.41800000000E+01 0. -1.
         -5    1    3    3    0  502  0.25902273321E+02 -0.41282962983E+02 -0.52379388859E+02  0.71667869880E+02  0.41800000000E+01 0. -1.
        -11    1    1    2    0    0 -0.74953857300E+01 -0.45085818262E+02 -0.28293483019E+02  0.53753446373E+02  0.00000000000E+00 0.  1.
         11    1    1    2    0    0  0.31367686821E+02  0.35582804503E+02 -0.28892396861E+02  0.55541321097E+02  0.00000000000E+00 0. -1.
</event>
<event>
 7    1  0.2648915E-009  0.1024270E+03  0.7561462E-02  0.1275274E+00
         -2   -1    0    0    0  501 -0.00000000000E+00  0.00000000000E+00  0.64966776561E+02  0.64966776561E+02  0.00000000000E+00 0.  1.
          2   -1    0    0  501    0  0.00000000000E+00 -0.00000000000E+00 -0.19479771672E+03  0.19479771672E+03  0.00000000000E+00 0. -1.
         25    2    1    2    0    0  0.81476775117E+01  0.62862381095E+01 -0.10607832276E+03  0.16433298994E+03  0.12508724789E+03 0.  0.
          5    1    3    3  502    0 -0.50830475205E+02  0.14966805532E+02 -0.14699107820E+02  0.55147789150E+02  0.41800000000E+01 0.  1.
         -5    1    3    3    0  502  0.58978152717E+02 -0.86805674222E+01 -0.91379214942E+02  0.10918520079E+03  0.41800000000E+01 0.  1.
        -11    1    1    2    0    0 -0.33905031300E+02 -0.38104062934E+02 -0.18025462366E+02  0.54096100165E+02  0.00000000000E+00 0.  1.
         11    1    1    2    0    0  0.25757353788E+02  0.31817824824E+02 -0.57271550278E+01  0.41335403173E+02  0.00000000000E+00 0. -1.
</event>
<event>
 7    1  0.2648915E-009  0.6588902E+02  0.7561462E-02  0.1374658E+00
          2   -1    0    0  501    0  0.00000000000E+00  0.00000000000E+00  0.14109465220E+03  0.14109465220E+03  0.00000000000E+00 0. -1.
         -2   -1    0    0    0  501 -0.00000000000E+00 -0.00000000000E+00 -0.10723437838E+03  0.10723437838E+03  0.00000000000E+00 0.  1.
         25    2    1    2    0    0 -0.49670999689E+02  0.22875831353E+01  0.50531386037E+02  0.14378534214E+03  0.12509341467E+03 0.  0.
          5    1    3    3  502    0  0.12271347300E+02  0.83131460013E+01  0.75161952992E+02  0.76723438000E+02  0.41800000000E+01 0.  1.
         -5    1    3    3    0  502 -0.61942346989E+02 -0.60255628660E+01 -0.24630566955E+02  0.67061904140E+02  0.41800000000E+01 0.  1.
        -11    1    1    2    0    0  0.29988107218E+02 -0.11694368238E+02 -0.53093229388E+02  0.62088129541E+02  0.00000000000E+00 0.  1.
         11    1    1    2    0    0  0.19682892471E+02  0.94067851028E+01  0.36422117169E+02  0.42455558895E+02  0.00000000000E+00 0. -1.
</event>
<event>
 7    1  0.2648915E-009  0.8668027E+02  0.7561462E-02  0.1311096E+00
          1   -1    0    0  501    0  0.00000000000E+00  0.00000000000E+00  0.16436501754E+03  0.16436501754E+03  0.00000000000E+00 0. -1.
         -1   -1    0    0    0  501 -0.00000000000E+00 -0.00000000000E+00 -0.10144557752E+03  0.10144557752E+03  0.00000000000E+00 0.  1.
         25    2    1    2    0    0  0.64553596922E+01 -0.42137226605E+02  0.91806261609E+02  0.16091297959E+03  0.12508948715E+03 0.  0.
          5    1    3    3  502    0 -0.16131934577E+02  0.71560508896E+01 -0.25686982475E+02  0.31444265712E+02  0.41800000000E+01 0. -1.
         -5    1    3    3    0  502  0.22587294269E+02 -0.49293277495E+02  0.11749324408E+03  0.12946871388E+03  0.41800000000E+01 0. -1.
        -11    1    1    2    0    0  0.37054998338E+02  0.43709753566E+02 -0.16322786125E+02  0.59582286004E+02  0.00000000000E+00 0.  1.
         11    1    1    2    0    0 -0.43510358030E+02 -0.15725269612E+01 -0.12564035471E+02  0.45315329462E+02  0.00000000000E+00 0. -1.
</event>
<event>
 7    1  0.2648915E-009  0.2414691E+03  0.7561462E-02  0.1118818E+00
         -1   -1    0    0    0  501 -0.00000000000E+00  0.00000000000E+00  0.65105123111E+02  0.65105123111E+02  0.00000000000E+00 0.  1.
          1   -1    0    0  501    0  0.00000000000E+00 -0.00000000000E+00 -0.17611940647E+04  0.17611940647E+04  0.00000000000E+00 0. -1.
         25    2    1    2    0    0 -0.20778643123E+03 -0.96916440762E+02 -0.14602781652E+04  0.14834514593E+04  0.12509162541E+03 0.  0.
          5    1    3    3  502    0 -0.38877823721E+02 -0.49741649343E+02 -0.71553983881E+03  0.71833171319E+03  0.41800000000E+01 0. -1.
         -5    1    3    3    0  502 -0.16890860751E+03 -0.47174791419E+02 -0.74473832640E+03  0.76511974608E+03  0.41800000000E+01 0. -1.
        -11    1    1    2    0    0  0.83560870110E+02  0.85410032000E+02 -0.82556643574E+02  0.14523392158E+03  0.00000000000E+00 0.  1.
         11    1    1    2    0    0  0.12422556112E+03  0.11506408762E+02 -0.15325413283E+03  0.19761380697E+03  0.00000000000E+00 0. -1.
</event>
<event>
 7    1  0.2648915E-009  0.1117896E+03  0.7561462E-02  0.1257291E+00
         -1   -1    0    0    0  501 -0.00000000000E+00  0.00000000000E+00  0.52305989526E+02  0.52305989526E+02  0.00000000000E+00 0.  1.
          1   -1    0    0  501    0  0.00000000000E+00 -0.00000000000E+00 -0.25859458792E+03  0.25859458792E+03  0.00000000000E+00 0. -1.
         25    2    1    2    0    0 -0.32291815808E+02  0.22400567438E+02 -0.13722706515E+03  0.18979829337E+03  0.12509027927E+03 0.  0.
          5    1    3    3  502    0 -0.27349784539E+02 -0.48368111433E+02 -0.36823203554E+02  0.66790011513E+02  0.41800000000E+01 0.  1.
         -5    1    3    3    0  502 -0.49420312687E+01  0.70768678871E+02 -0.10040386160E+03  0.12300828186E+03  0.41800000000E+01 0.  1.
        -11    1    1    2    0    0  0.62533623572E+02 -0.72026997386E+01 -0.57726183921E+02  0.85408695522E+02  0.00000000000E+00 0. -1.
         11    1    1    2    0    0 -0.30241807765E+02 -0.15197867700E+02 -0.11335349322E+02  0.35693588552E+02  0.00000000000E+00 0.  1.
</event>
<event>
 7    1  0.2648915E-009  0.1441060E+03  0.7561462E-02  0.1207908E+00
         -2   -1    0    0    0  501 -0.00000000000E+00  0.00000000000E+00  0.72233924717E+02  0.72233924717E+02  0.00000000000E+00 0.  1.
          2   -1    0    0  501    0  0.00000000000E+00 -0.00000000000E+00 -0.40429360615E+03  0.40429360615E+03  0.00000000000E+00 0. -1.
         25    2    1    2    0    0  0.98149828602E+02 -0.43431316958E+02 -0.69162035153E+02  0.17874586942E+03  0.12508809128E+03 0.  0.
          5    1    3    3  502    0 -0.81543644955E+01 -0.42321639702E+02 -0.57114296563E+02  0.71673775674E+02  0.41800000000E+01 0. -1.
         -5    1    3    3    0  502  0.10630419310E+03 -0.11096772559E+01 -0.12047738590E+02  0.10707209374E+03  0.41800000000E+01 0. -1.
        -11    1    1    2    0    0 -0.85113719732E+02 -0.79727572284E+01 -0.14169955019E+03  0.16548919200E+03  0.00000000000E+00 0.  1.
         11    1    1    2    0    0 -0.13036108870E+02  0.51404074187E+02 -0.12119809609E+03  0.13229246945E+03  0.00000000000E+00 0. -1.
</event>
<event>
 7    1  0.2648915E-009  0.8299015E+02  0.7561462E-02  0.1320774E+00
          2   -1    0    0  501    0  0.00000000000E+00  0.00000000000E+00  0.19545859597E+04  0.19545859597E+04  0.00000000000E+00 0. -1.
         -2   -1    0    0    0  501 -0.00000000000E+00 -0.00000000000E+00 -0.76863261114E+01  0.76863261114E+01  0.00000000000E+00 0.  1.
         25    2    1    2    0    0 -0.21654165488E+02 -0.52744436866E+01  0.15134980882E+04  0.15188206754E+04  0.12507221263E+03 0.  0.
          5    1    3    3  502    0  0.26354432969E+02 -0.42344585351E+01  0.12854635169E+04  0.12857474139E+04  0.41800000000E+01 0.  1.
         -5    1    3    3    0  502 -0.48008598457E+02 -0.10399851515E+01  0.22803457129E+03  0.23307326144E+03  0.41800000000E+01 0.  1.
        -11    1    1    2    0    0  0.42705614605E+02  0.34390872090E+02  0.31435758959E+03  0.31910373820E+03  0.00000000000E+00 0. -1.
         11    1    1    2    0    0 -0.21051449117E+02 -0.29116428403E+02  0.11904395581E+03  0.12434787223E+03  0.00000000000E+00 0.  1.
</event>
<event>
 7    1  0.2648915E-009  0.1535722E+03  0.7561462E-02  0.1196151E+00
          1   -1    0    0  501    0  0.00000000000E+00  0.00000000000E+00  0.50673775222E+03  0.50673775222E+03  0.00000000000E+00 0. -1.
         -1   -1    0    0    0  501 -0.00000000000E+00 -0.00000000000E+00 -0.61442768625E+02  0.61442768625E+02  0.00000000000E+00 0.  1.
         25    2    1    2    0    0  0.47048982424E+02  0.12740118033E+03  0.26758135738E+03  0.32510248380E+03  0.12508866719E+03 0.  0.
          5    1    3    3  502    0  0.17366369415E+02 -0.16474255819E+02  0.59461598702E+01  0.25016416782E+02  0.41800000000E+01 0. -1.
         -5    1    3    3    0  502  0.29682613009E+02  0.14387543615E+03  0.26163519751E+03  0.30008606702E+03  0.41800000000E+01 0. -1.
        -11    1    1    2    0    0 -0.31716844168E+02 -0.79858116145E+02  0.17267195060E+03  0.19287011029E+03  0.00000000000E+00 0.  1.
         11    1    1    2    0    0 -0.15332138256E+02 -0.47543064188E+02  0.50416756103E+01  0.50207926753E+02  0.00000000000E+00 0. -1.
</event>
<event>
 7    1  0.2648915E-009  0.1939770E+03  0.7561462E-02  0.1154922E+00
         -2   -1    0    0    0  501 -0.00000000000E+00  0.00000000000E+00  0.52722936287E+03  0.52722936287E+03  0.00000000000E+00 0.  1.
          2   -1    0    0  501    0  0.00000000000E+00 -0.00000000000E+00 -0.11531740135E+03  0.11531740135E+03  0.00000000000E+00 0. -1.
         25    2    1    2    0    0  0.17819382171E+03  0.54299333681E+02  0.35650314583E+03  0.42124004404E+03  0.12508887233E+03 0.  0.
          5    1    3    3  502    0  0.11086063976E+02 -0.15772943589E+02 -0.16895995474E+01  0.19799336115E+02  0.41800000000E+01 0.  1.
         -5    1    3    3    0  502  0.16710775774E+03  0.70072277270E+02  0.35819274537E+03  0.40144070792E+03  0.41800000000E+01 0.  1.
        -11    1    1    2    0    0 -0.13806058143E+03 -0.48971516738E+02 -0.72933247770E+01  0.14667012710E+03  0.00000000000E+00 0. -1.
         11    1    1    2    0    0 -0.40133240284E+02 -0.53278169436E+01  0.62702140465E+02  0.74636593089E+02  0.00000000000E+00 0.  1.
</event>
<event>
 7    1  0.2648915E-009  0.1588523E+03  0.7561462E-02  0.1189999E+00
         -2   -1    0    0    0  501 -0.00000000000E+00  0.00000000000E+00  0.46936389553E+03  0.46936389553E+03  0.00000000000E+00 0. -1.
          2   -1    0    0  501    0  0.00000000000E+00 -0.00000000000E+00 -0.77447190293E+02  0.77447190293E+02  0.00000000000E+00 0.  1.
         25    2    1    2    0    0 -0.26544285659E+02 -0.11475032730E+03  0.58464307234E+02  0.18149451557E+03  0.12509974918E+03 0.  0.
          5    1    3    3  502    0 -0.74403104336E+02 -0.57514633068E+02  0.49144139551E+02  0.10619027170E+03  0.41800000000E+01 0. -1.
         -5    1    3    3    0  502  0.47858818677E+02 -0.57235694235E+02  0.93201676829E+01  0.75304243873E+02  0.41800000000E+01 0. -1.
        -11    1    1    2    0    0 -0.28050943228E+02  0.78370383559E+02  0.17358433980E+03  0.19251050740E+03  0.00000000000E+00 0. -1.
         11    1    1    2    0    0  0.54595228886E+02  0.36379943744E+02  0.15986805820E+03  0.17280606284E+03  0.00000000000E+00 0.  1.
</event>
<event>
 7    1  0.2648915E-009  0.8450832E+02  0.7561462E-02  0.1316723E+00
          1   -1    0    0  501    0  0.00000000000E+00  0.00000000000E+00  0.27398032151E+03  0.27398032151E+03  0.00000000000E+00 0. -1.
         -1   -1    0    0    0  501 -0.00000000000E+00 -0.00000000000E+00 -0.50987700226E+02  0.50987700226E+02  0.00000000000E+00 0.  1.
         25    2    1    2    0    0  0.37373587373E+02 -0.19509244751E+02  0.21651634958E+03  0.25358342274E+03  0.12509127462E+03 0.  0.
          5    1    3    3  502    0  0.29572771287E+02  0.48516838987E+02  0.13813274552E+03  0.14942074907E+03  0.41800000000E+01 0.  1.
         -5    1    3    3    0  502  0.78008160860E+01 -0.68026083738E+02  0.78383604063E+02  0.10416267367E+03  0.41800000000E+01 0.  1.
        -11    1    1    2    0    0 -0.20932548161E+02  0.16671604789E+02  0.31485289773E+02  0.41321150164E+02  0.00000000000E+00 0. -1.
         11    1    1    2    0    0 -0.16441039212E+02  0.28376399617E+01 -0.25009018072E+02  0.30063448835E+02  0.00000000000E+00 0.  1.
</event>
<event>
 7    1  0.2648915E-009  0.8651445E+02  0.7561462E-02  0.1311519E+00
         -1   -1    0    0    0  501 -0.00000000000E+00  0.00000000000E+00  0.15889204215E+03  0.15889204215E+03  0.00000000000E+00 0.  1.
          1   -1    0    0  501    0  0.00000000000E+00 -0.00000000000E+00 -0.10663809705E+03  0.10663809705E+03  0.00000000000E+00 0. -1.
         25    2    1    2    0    0 -0.30483312713E+02 -0.11784662317E+02  0.93812699144E+02  0.15973999126E+03  0.12509169304E+03 0.  0.
          5    1    3    3  502    0 -0.71716467373E+02 -0.15804842136E+02  0.92365504427E+02  0.11807583807E+03  0.41800000000E+01 0. -1.
         -5    1    3    3    0  502  0.41233154659E+02  0.40201798183E+01  0.14471947166E+01  0.41664153195E+02  0.41800000000E+01 0. -1.
        -11    1    1    2    0    0  0.18542067719E+02  0.30464251723E+02 -0.64615253444E+02  0.73803860915E+02  0.00000000000E+00 0. -1.
         11    1    1    2    0    0  0.11941244995E+02 -0.18679589405E+02  0.23056499405E+02  0.31986287018E+02  0.00000000000E+00 0.  1.
</event>
<event>
 7    1  0.2648915E-009  0.5062095E+02  0.7561462E-02  0.1442021E+00
          1   -1    0    0  501    0  0.00000000000E+00  0.00000000000E+00  0.15884124567E+03  0.15884124567E+03  0.00000000000E+00 0. -1.
         -1   -1    0    0    0  501 -0.00000000000E+00 -0.00000000000E+00 -0.79851383704E+02  0.79851383704E+02  0.00000000000E+00 0.  1.
         25    2    1    2    0    0 -0.99662592436E+01 -0.48537971604E+01  0.14873077749E+02  0.12646069179E+03  0.12509281537E+03 0.  0.
          5    1    3    3  502    0  0.13004847446E+02 -0.14645921697E+02  0.66235439387E+02  0.69197072989E+02  0.41800000000E+01 0. -1.
         -5    1    3    3    0  502 -0.22971106690E+02  0.97921245366E+01 -0.51362361638E+02  0.57263618804E+02  0.41800000000E+01 0. -1.
        -11    1    1    2    0    0  0.14753706165E+02 -0.23168629642E+02 -0.12745775030E+02  0.30280555249E+02  0.00000000000E+00 0.  1.
         11    1    1    2    0    0 -0.47874469215E+01  0.28022426802E+02  0.76862559252E+02  0.81951382335E+02  0.00000000000E+00 0. -1.
</event>
<event>
 7    1  0.2648915E-009  0.1805112E+03  0.7561462E-02  0.1167309E+00
         -1   -1    0    0    0  501 -0.00000000000E+00  0.00000000000E+00  0.55682913235E+03  0.55682913235E+03  0.00000000000E+00 0.  1.
          1   -1    0    0  501    0  0.00000000000E+00 -0.00000000000E+00 -0.74404346789E+02  0.74404346789E+02  0.00000000000E+00 0. -1.
         25    2    1    2    0    0  0.19064778437E+02  0.16342924430E+03  0.32848778315E+03  0.38810241864E+03  0.12508668997E+03 0.  0.
          5    1    3    3  502    0  0.55308128151E+02  0.14546725396E+03  0.20071897464E+03  0.25401828713E+03  0.41800000000E+01 0.  1.
         -5    1    3    3    0  502 -0.36243349714E+02  0.17961990339E+02  0.12776880851E+03  0.13408413151E+03  0.41800000000E+01 0.  1.
        -11    1    1    2    0    0 -0.15062219316E+02 -0.10105364605E+03  0.14868767065E+03  0.18040713188E+03  0.00000000000E+00 0.  1.
         11    1    1    2    0    0 -0.40025591206E+01 -0.62375598257E+02  0.52493317637E+01  0.62723928619E+02  0.00000000000E+00 0. -1.
</event>
<event>
 7    1  0.2648915E-009  0.1326173E+03  0.7561462E-02  0.1223623E+00
         -4   -1    0    0    0  501 -0.00000000000E+00  0.00000000000E+00  0.72827101777E+02  0.72827101777E+02  0.00000000000E+00 0.  1.
          4   -1    0    0  501    0  0.00000000000E+00 -0.00000000000E+00 -0.27506449227E+03  0.27506449227E+03  0.00000000000E+00 0. -1.
         25    2    1    2    0    0  0.88354692058E+02  0.67208683871E+01 -0.99932258153E+02  0.18298681767E+03  0.12508396197E+03 0.  0.
          5    1    3    3  502    0  0.11774031520E+03  0.19728221151E+02 -0.67819002936E+02  0.13736402037E+03  0.41800000000E+01 0.  1.
         -5    1    3    3    0  502 -0.29385623140E+02 -0.13007352764E+02 -0.32113255218E+02  0.45622797305E+02  0.41800000000E+01 0.  1.
        -11    1    1    2    0    0 -0.96747281362E+02 -0.18906272551E+02 -0.49971627779E+02  0.11051989493E+03  0.00000000000E+00 0.  1.
         11    1    1    2    0    0  0.83925893037E+01  0.12185404164E+02 -0.52333504564E+02  0.54384881445E+02  0.00000000000E+00 0. -1.
</event>
<event>
 7    1  0.2648915E-009  0.8454184E+02  0.7561462E-02  0.1316635E+00
         -2   -1    0    0    0  501 -0.00000000000E+00  0.00000000000E+00  0.13909354727E+03  0.13909354727E+03  0.00000000000E+00 0.  1.
          2   -1    0    0  501    0  0.00000000000E+00 -0.00000000000E+00 -0.84154606686E+02  0.84154606686E+02  0.00000000000E+00 0. -1.
         25    2    1    2    0    0  0.13318934345E+02  0.74608079852E+01  0.34816146272E+02  0.13073641123E+03  0.12508711968E+03 0.  0.
          5    1    3    3  502    0  0.13285750660E+02 -0.49053259162E+02  0.50675805022E+02  0.71890493250E+02  0.41800000000E+01 0. -1.
         -5    1    3    3    0  502  0.33183685042E-01  0.56514067148E+02 -0.15859658750E+02  0.58845917976E+02  0.41800000000E+01 0. -1.
        -11    1    1    2    0    0 -0.28922281417E+02  0.16147278206E+02 -0.23429613387E+02  0.40573140614E+02  0.00000000000E+00 0. -1.
         11    1    1    2    0    0  0.15603347072E+02 -0.23608086191E+02  0.43552407702E+02  0.51938602119E+02  0.00000000000E+00 0.  1.
</event>
<event>
 7    1  0.2648915E-009  0.1040900E+03  0.7561462E-02  0.1271923E+00
          3   -1    0    0  501    0  0.00000000000E+00  0.00000000000E+00  0.39178015526E+02  0.39178015526E+02  0.00000000000E+00 0. -1.
         -3   -1    0    0    0  501 -0.00000000000E+00 -0.00000000000E+00 -0.42531183465E+03  0.42531183465E+03  0.00000000000E+00 0.  1.
         25    2    1    2    0    0  0.71948755217E+01  0.21365354661E+02 -0.95195283978E+02  0.15880477614E+03  0.12509424534E+03 0.  0.
          5    1    3    3  502    0  0.20682569485E+02 -0.46635593440E+02 -0.65858417430E+02  0.83411334976E+02  0.41800000000E+01 0.  1.
         -5    1    3    3    0  502 -0.13487693963E+02  0.68000948101E+02 -0.29336866548E+02  0.75393441160E+02  0.41800000000E+01 0.  1.
        -11    1    1    2    0    0 -0.15102313020E+02 -0.52908733157E+02 -0.12475455233E+03  0.13634922893E+03  0.00000000000E+00 0. -1.
         11    1    1    2    0    0  0.79074374979E+01  0.31543378495E+02 -0.16618398281E+03  0.16933584511E+03  0.00000000000E+00 0.  1.
</event>
<event>
 7    1  0.2648915E-009  0.1394076E+03  0.7561462E-02  0.1214128E+00
         -2   -1    0    0    0  501 -0.00000000000E+00  0.00000000000E+00  0.75584942887E+02  0.75584942887E+02  0.00000000000E+00 0.  1.
          2   -1    0    0  501    0  0.00000000000E+00 -0.00000000000E+00 -0.37001822949E+03  0.37001822949E+03  0.00000000000E+00 0. -1.
         25    2    1    2    0    0 -0.12530391957E+02  0.12789736663E+03 -0.16002222873E+03  0.24035169849E+03  0.12508828148E+03 0.  0.
          5    1    3    3  502    0  0.23000351228E+02  0.30815125572E+02 -0.12542911176E+03  0.13125746682E+03  0.41800000000E+01 0. -1.
         -5    1    3    3    0  502 -0.35530743185E+02  0.97082241063E+02 -0.34593116978E+02  0.10909423167E+03  0.41800000000E+01 0. -1.
        -11    1    1    2    0    0 -0.26514380194E+01 -0.11909155144E+03 -0.69291682844E+02  0.13780843610E+03  0.00000000000E+00 0.  1.
         11    1    1    2    0    0  0.15181829976E+02 -0.88058151943E+01 -0.65119375025E+02  0.67443037790E+02  0.00000000000E+00 0. -1.
</event>
<event>
 7    1  0.2648915E-009  0.1104984E+03  0.7561462E-02  0.1259650E+00
         -2   -1    0    0    0  501 -0.00000000000E+00  0.00000000000E+00  0.23947992417E+02  0.23947992417E+02  0.00000000000E+00 0.  1.
          2   -1    0    0  501    0  0.00000000000E+00 -0.00000000000E+00 -0.60842778640E+03  0.60842778640E+03  0.00000000000E+00 0. -1.
         25    2    1    2    0    0 -0.26834568465E+02  0.11967004151E+01 -0.21049057337E+03  0.24632591910E+03  0.12509456738E+03 0.  0.
          5    1    3    3  502    0 -0.25021484483E+02  0.61800566732E+02 -0.10088612480E+03  0.12099945170E+03  0.41800000000E+01 0. -1.
         -5    1    3    3    0  502 -0.18130839813E+01 -0.60603866317E+02 -0.10960444857E+03  0.12532646740E+03  0.41800000000E+01 0. -1.
        -11    1    1    2    0    0  0.38132230061E+02 -0.38651646898E+02 -0.17416769759E+03  0.18243465587E+03  0.00000000000E+00 0.  1.
         11    1    1    2    0    0 -0.11297661597E+02  0.37454946482E+02 -0.19982152302E+03  0.20361520384E+03  0.00000000000E+00 0. -1.
</event>
<event>
 7    1  0.2648915E-009  0.1373722E+03  0.7561462E-02  0.1216909E+00
         -1   -1    0    0    0  501 -0.00000000000E+00  0.00000000000E+00  0.28079352037E+02  0.28079352037E+02  0.00000000000E+00 0.  1.
          1   -1    0    0  501    0  0.00000000000E+00 -0.00000000000E+00 -0.70959595016E+03  0.70959595016E+03  0.00000000000E+00 0. -1.
         25    2    1    2    0    0  0.86329786594E+02 -0.82114311827E+01 -0.31831202890E+03  0.35283248639E+03  0.12509179051E+03 0.  0.
          5    1    3    3  502    0  0.97353009136E+02 -0.46316016081E+02 -0.19037104450E+03  0.21881816359E+03  0.41800000000E+01 0. -1.
         -5    1    3    3    0  502 -0.11023222541E+02  0.38104584899E+02 -0.12794098440E+03  0.13401432280E+03  0.41800000000E+01 0. -1.
        -11    1    1    2    0    0 -0.92893403179E+02 -0.22486302138E+02 -0.26245665623E+03  0.27931758723E+03  0.00000000000E+00 0. -1.
         11    1    1    2    0    0  0.65636165850E+01  0.30697733320E+02 -0.10074791299E+03  0.10552522858E+03  0.00000000000E+00 0.  1.
</event>
<event>
 7    1  0.2648915E-009  0.1424926E+03  0.7561462E-02  0.1210014E+00
          4   -1    0    0  501    0  0.00000000000E+00  0.00000000000E+00  0.20721922099E+03  0.20721922099E+03  0.00000000000E+00 0. -1.
         -4   -1    0    0    0  501 -0.00000000000E+00 -0.00000000000E+00 -0.12666782206E+03  0.12666782206E+03  0.00000000000E+00 0.  1.
         25    2    1    2    0    0  0.47362908014E+02  0.10390890994E+03 -0.25586936836E+01  0.16939376700E+03  0.12508954699E+03 0.  0.
          5    1    3    3  502    0  0.18412101928E+02  0.11506096026E+03  0.33814721275E+02  0.12140402732E+03  0.41800000000E+01 0. -1.
         -5    1    3    3    0  502  0.28950806086E+02 -0.11152050322E+02 -0.36373414959E+02  0.47989739686E+02  0.41800000000E+01 0. -1.
        -11    1    1    2    0    0 -0.50839901942E+02 -0.22497885536E+02  0.55242077760E+02  0.78374342985E+02  0.00000000000E+00 0. -1.
         11    1    1    2    0    0  0.34769939287E+01 -0.81411024403E+02  0.27868014849E+02  0.86118933068E+02  0.00000000000E+00 0.  1.
</event>
<event>
 7    1  0.2648915E-009  0.1284463E+03  0.7561462E-02  0.1229780E+00
         -1   -1    0    0    0  501 -0.00000000000E+00  0.00000000000E+00  0.70863901656E+02  0.70863901656E+02  0.00000000000E+00 0.  1.
          1   -1    0    0  501    0  0.00000000000E+00 -0.00000000000E+00 -0.49163437273E+03  0.49163437273E+03  0.00000000000E+00 0. -1.
         25    2    1    2    0    0 -0.10804284892E+02  0.10775320664E+03 -0.62098046521E+02  0.17672270229E+03  0.12508900835E+03 0.  0.
          5    1    3    3  502    0  0.31606004120E+02  0.48448916709E+01 -0.56675749951E+02  0.65207557110E+02  0.41800000000E+01 0.  1.
         -5    1    3    3    0  502 -0.42410289012E+02  0.10290831497E+03 -0.54222965707E+01  0.11151514518E+03  0.41800000000E+01 0.  1.
        -11    1    1    2    0    0  0.20905552772E+02 -0.44003494719E+02 -0.47720031847E+02  0.68194949400E+02  0.00000000000E+00 0.  1.
         11    1    1    2    0    0 -0.10101267880E+02 -0.63749711923E+02 -0.31095239271E+03  0.31758062270E+03  0.00000000000E+00 0. -1.
</event>
<event>
 7    1  0.2648915E-009  0.1228697E+03  0.7561462E-02  0.1238437E+00
          2   -1    0    0  501    0  0.00000000000E+00  0.00000000000E+00  0.72131962428E+03  0.72131962428E+03  0.00000000000E+00 0. -1.
         -2   -1    0    0    0  501 -0.00000000000E+00 -0.00000000000E+00 -0.21760902498E+02  0.21760902498E+02  0.00000000000E+00 0.  1.
         25    2    1    2    0    0  0.29707794135E+02 -0.46318180372E+02  0.32494259827E+03  0.35250942802E+03  0.12508907946E+03 0.  0.
          5    1    3    3  502    0 -0.25945297774E+01 -0.85516625239E+02  0.20752308310E+03  0.22450640792E+03  0.41800000000E+01 0. -1.
         -5    1    3    3    0  502  0.32302323912E+02  0.39198444867E+02  0.11741951517E+03  0.12800302010E+03  0.41800000000E+01 0. -1.
        -11    1    1    2    0    0 -0.62188859815E+02  0.14948664269E+02  0.18851313974E+03  0.19906813080E+03  0.00000000000E+00 0.  1.
         11    1    1    2    0    0  0.32481065681E+02  0.31369516102E+02  0.18610298377E+03  0.19150296796E+03  0.00000000000E+00 0. -1.
</event>
<event>
 7    1  0.2648915E-009  0.1468031E+03  0.7561462E-02  0.1204457E+00
          1   -1    0    0  501    0  0.00000000000E+00  0.00000000000E+00  0.59501080819E+03  0.59501080819E+03  0.00000000000E+00 0. -1.
         -1   -1    0    0    0  501 -0.00000000000E+00 -0.00000000000E+00 -0.38712508473E+02  0.38712508473E+02  0.00000000000E+00 0.  1.
         25    2    1    2    0    0 -0.63473810910E+02  0.76697226581E+02  0.22214719030E+03  0.27369191607E+03  0.12508597654E+03 0.  0.
          5    1    3    3  502    0 -0.98694319499E+02  0.34754824811E+02  0.15246405148E+03  0.18496276908E+03  0.41800000000E+01 0.  1.
         -5    1    3    3    0  502  0.35220508589E+02  0.41942401770E+02  0.69683138819E+02  0.88729146999E+02  0.41800000000E+01 0.  1.
        -11    1    1    2    0    0 -0.41869782150E+01  0.17492545815E+02  0.40856325798E+02  0.44640332698E+02  0.00000000000E+00 0.  1.
         11    1    1    2    0    0  0.67660789125E+02 -0.94189772396E+02  0.29329478361E+03  0.31539106789E+03  0.00000000000E+00 0. -1.
</event>
<event>
 7    1  0.2648915E-009  0.1357986E+03  0.7561462E-02  0.1219097E+00
         -1   -1    0    0    0  501 -0.00000000000E+00  0.00000000000E+00  0.15488167795E+02  0.15488167795E+02  0.00000000000E+00 0.  1.
          1   -1    0    0  501    0  0.00000000000E+00 -0.00000000000E+00 -0.18678458800E+04  0.18678458800E+04  0.00000000000E+00 0. -1.
         25    2    1    2    0    0  0.12248556863E+03 -0.33697573065E+02 -0.11490326666E+04  0.11627832417E+04  0.12510218772E+03 0.  0.
          5    1    3    3  502    0  0.44668846388E+02  0.17863622274E+00 -0.86863563944E+03  0.86979347219E+03  0.41800000000E+01 0.  1.
         -5    1    3    3    0  502  0.77816722244E+02 -0.33876209288E+02 -0.28039702716E+03  0.29298976955E+03  0.41800000000E+01 0.  1.
        -11    1    1    2    0    0 -0.12495045240E+03  0.18439816771E+02 -0.68514227946E+03  0.69668686331E+03  0.00000000000E+00 0.  1.
         11    1    1    2    0    0  0.24648837670E+01  0.15257756294E+02 -0.18182766105E+02  0.23863942724E+02  0.00000000000E+00 0. -1.
</event>
<event>
 7    1  0.2648915E-009  0.1014475E+03  0.7561462E-02  0.1277281E+00
         -3   -1    0    0    0  501 -0.00000000000E+00  0.00000000000E+00  0.19683304472E+03  0.19683304472E+03  0.00000000000E+00 0.  1.
          3   -1    0    0  501    0  0.00000000000E+00 -0.00000000000E+00 -0.78999834965E+02  0.78999834965E+02  0.00000000000E+00 0. -1.
         25    2    1    2    0    0 -0.26765802149E+02  0.32358189430E+02  0.15499544995E+02  0.13285518432E+03  0.12508718366E+03 0.  0.
          5    1    3    3  502    0 -0.56633085493E+02  0.57098935848E+02  0.36654991218E+02  0.88479690486E+02  0.41800000000E+01 0.  1.
         -5    1    3    3    0  502  0.29867283344E+02 -0.24740746418E+02 -0.21155446223E+02  0.44375493829E+02  0.41800000000E+01 0.  1.
        -11    1    1    2    0    0  0.31937574606E+02 -0.53108478837E+02  0.10448882102E+03  0.12148429081E+03  0.00000000000E+00 0.  1.
         11    1    1    2    0    0 -0.51717724573E+01  0.20750289408E+02 -0.21551562623E+01  0.21493404555E+02  0.00000000000E+00 0. -1.
</event>
<event>
 7    1  0.2648915E-009  0.1394863E+03  0.7561462E-02  0.1214022E+00
          3   -1    0    0  501    0  0.00000000000E+00  0.00000000000E+00  0.10145218854E+03  0.10145218854E+03  0.00000000000E+00 0. -1.
         -3   -1    0    0    0  501 -0.00000000000E+00 -0.00000000000E+00 -0.23224082621E+03  0.23224082621E+03  0.00000000000E+00 0.  1.
         25    2    1    2    0    0 -0.72053073309E+02 -0.77580326507E+02 -0.95196422968E+02  0.18952804909E+03  0.12509264571E+03 0.  0.
          5    1    3    3  502    0  0.14508344170E+02 -0.55473323292E+02  0.18931928362E+01  0.57522501916E+02  0.41800000000E+01 0. -1.
         -5    1    3    3    0  502 -0.86561417479E+02 -0.22107003215E+02 -0.97089615804E+02  0.13200554717E+03  0.41800000000E+01 0. -1.
        -11    1    1    2    0    0  0.59206688757E+02  0.94063555262E+02 -0.46630034837E+02  0.12053109379E+03  0.00000000000E+00 0.  1.
         11    1    1    2    0    0  0.12846384552E+02 -0.16483228755E+02  0.11037820137E+02  0.23633871871E+02  0.00000000000E+00 0. -1.
</event>
<event>
 7    1  0.2648915E-009  0.9749484E+02  0.7561462E-02  0.1285654E+00
          2   -1    0    0  501    0  0.00000000000E+00  0.00000000000E+00  0.85979311888E+02  0.85979311888E+02  0.00000000000E+00 0. -1.
         -2   -1    0    0    0  501 -0.00000000000E+00 -0.00000000000E+00 -0.17073411627E+03  0.17073411627E+03  0.00000000000E+00 0.  1.
         25    2    1    2    0    0 -0.40025163368E+02  0.22973247603E+02 -0.16594094481E+02  0.13436458829E+03  0.12509474332E+03 0.  0.
          5    1    3    3  502    0  0.29279239076E+02 -0.26071306053E+02  0.17034147655E+02  0.42949056178E+02  0.41800000000E+01 0.  1.
         -5    1    3    3    0  502 -0.69304402445E+02  0.49044553656E+02 -0.33628242136E+02  0.91415532109E+02  0.41800000000E+01 0.  1.
        -11    1    1    2    0    0  0.43413861021E+02  0.37914798173E+01 -0.81373933063E+02  0.92308480813E+02  0.00000000000E+00 0.  1.
         11    1    1    2    0    0 -0.33886976522E+01 -0.26764727420E+02  0.13213223166E+02  0.30040359054E+02  0.00000000000E+00 0. -1.
</event>
<event>
 7    1  0.2648915E-009  0.1060861E+03  0.7561462E-02  0.1267994E+00
         -1   -1    0    0    0  501 -0.00000000000E+00  0.00000000000E+00  0.21165637661E+03  0.21165637661E+03  0.00000000000E+00 0.  1.
          1   -1    0    0  501    0  0.00000000000E+00 -0.00000000000E+00 -0.92298495348E+02  0.92298495348E+02  0.00000000000E+00 0. -1.
         25    2    1    2    0    0 -0.47595762763E+02 -0.18061021386E+02 -0.17236807855E+02  0.13614961373E+03  0.12509217661E+03 0.  0.
          5    1    3    3  502    0 -0.54833582313E+02 -0.62511318791E+02  0.91938351858E+01  0.83763868892E+02  0.41800000000E+01 0. -1.
         -5    1    3    3    0  502  0.72378195496E+01  0.44450297405E+02 -0.26430643041E+02  0.52385744843E+02  0.41800000000E+01 0. -1.
        -11    1    1    2    0    0  0.16856049595E+02  0.41653897632E+02  0.29088358381E+02  0.53528554896E+02  0.00000000000E+00 0. -1.
         11    1    1    2    0    0  0.30739713168E+02 -0.23592876246E+02  0.10750633074E+03  0.11427670333E+03  0.00000000000E+00 0.  1.
</event>
<event>
 7    1  0.2648915E-009  0.1158565E+03  0.7561462E-02  0.1250093E+00
          1   -1    0    0  501    0  0.00000000000E+00  0.00000000000E+00  0.15495689048E+04  0.15495689048E+04  0.00000000000E+00 0. -1.
         -1   -1    0    0    0  501 -0.00000000000E+00 -0.00000000000E+00 -0.13617899877E+02  0.13617899877E+02  0.00000000000E+00 0.  1.
         25    2    1    2    0    0  0.21808739976E+02  0.93308614286E+02  0.84154300973E+03  0.85616796814E+03  0.12508730474E+03 0.  0.
          5    1    3    3  502    0  0.18303332743E+02  0.28006475513E+02  0.69291876380E+03  0.69373861093E+03  0.41800000000E+01 0.  1.
         -5    1    3    3    0  502  0.35054072332E+01  0.65302138772E+02  0.14862424593E+03  0.16242935722E+03  0.41800000000E+01 0.  1.
        -11    1    1    2    0    0  0.26068258457E+02 -0.77938465325E+02  0.45918194814E+03  0.46647831672E+03  0.00000000000E+00 0. -1.
         11    1    1    2    0    0 -0.47876998433E+02 -0.15370148960E+02  0.23522604704E+03  0.24054051980E+03  0.00000000000E+00 0.  1.
</event>
<event>
 7    1  0.2648915E-009  0.1551732E+03  0.7561462E-02  0.1194257E+00
          1   -1    0    0  501    0  0.00000000000E+00  0.00000000000E+00  0.12336022320E+03  0.12336022320E+03  0.00000000000E+00 0. -1.
         -1   -1    0    0    0  501 -0.00000000000E+00 -0.00000000000E+00 -0.28638005377E+03  0.28638005377E+03  0.00000000000E+00 0.  1.
         25    2    1    2    0    0  0.60010731318E+02 -0.12743967452E+03 -0.20598015786E+02  0.18950913925E+03  0.12508907662E+03 0.  0.
          5    1    3    3  502    0  0.10429911063E+01 -0.22104008152E+02  0.46259934639E+02  0.51450257139E+02  0.41800000000E+01 0.  1.
         -5    1    3    3    0  502  0.58967740212E+02 -0.10533566637E+03 -0.66857950425E+02  0.13805888211E+03  0.41800000000E+01 0.  1.
        -11    1    1    2    0    0 -0.83840255758E+02  0.93748613790E+02 -0.11691385245E+03  0.17171732576E+03  0.00000000000E+00 0.  1.
         11    1    1    2    0    0  0.23829524440E+02  0.33691060728E+02 -0.25507962330E+02  0.48513811954E+02  0.00000000000E+00 0. -1.
</event>
<event>
 7    1  0.2648915E-009  0.1663805E+03  0.7561462E-02  0.1181676E+00
          2   -1    0    0  501    0  0.00000000000E+00  0.00000000000E+00  0.86630546738E+03  0.86630546738E+03  0.00000000000E+00 0. -1.
         -2   -1    0    0    0  501 -0.00000000000E+00 -0.00000000000E+00 -0.38597939562E+02  0.38597939562E+02  0.00000000000E+00 0.  1.
         25    2    1    2    0    0 -0.11541442821E+03  0.33373355237E+02  0.24583324449E+03  0.30085928817E+03  0.12509219042E+03 0.  0.
          5    1    3    3  502    0  0.17563396154E+01  0.53027394004E+02  0.94020719544E+02  0.10803868449E+03  0.41800000000E+01 0.  1.
         -5    1    3    3    0  502 -0.11717076782E+03 -0.19654038767E+02  0.15181252494E+03  0.19282060368E+03  0.41800000000E+01 0.  1.
        -11    1    1    2    0    0  0.23818979234E+02 -0.60591439822E+02  0.27690036389E+03  0.28445118716E+03  0.00000000000E+00 0. -1.
         11    1    1    2    0    0  0.91595448972E+02  0.27218084585E+02  0.30497391943E+03  0.31959293161E+03  0.00000000000E+00 0.  1.
</event>
<event>
 7    1  0.2648915E-009  0.2596318E+03  0.7561462E-02  0.1107365E+00
          2   -1    0    0  501    0  0.00000000000E+00  0.00000000000E+00  0.15480365889E+03  0.15480365889E+03  0.00000000000E+00 0. -1.
         -2   -1    0    0    0  501 -0.00000000000E+00 -0.00000000000E+00 -0.61419019198E+03  0.61419019198E+03  0.00000000000E+00 0.  1.
         25    2    1    2    0    0 -0.81587984011E+02  0.22974921179E+03 -0.42347914633E+02  0.27726856551E+03  0.12507282716E+03 0.  0.
          5    1    3    3  502    0 -0.61204856485E+02  0.23573454185E+03 -0.58190323235E+02  0.25044040169E+03  0.41800000000E+01 0.  1.
         -5    1    3    3    0  502 -0.20383127526E+02 -0.59853300641E+01  0.15842408602E+02  0.26828163821E+02  0.41800000000E+01 0.  1.
        -11    1    1    2    0    0  0.93776149549E+01 -0.13284770713E+03 -0.27264756561E+03  0.30343557469E+03  0.00000000000E+00 0.  1.
         11    1    1    2    0    0  0.72210369056E+02 -0.96901504662E+02 -0.14439105285E+03  0.18828971068E+03  0.00000000000E+00 0. -1.
</event>
<event>
 7    1  0.2648915E-009  0.1125412E+03  0.7561462E-02  0.1255935E+00
          4   -1    0    0  501    0  0.00000000000E+00  0.00000000000E+00  0.93135615126E+02  0.93135615126E+02  0.00000000000E+00 0. -1.
         -4   -1    0    0    0  501 -0.00000000000E+00 -0.00000000000E+00 -0.34923327063E+03  0.34923327063E+03  0.00000000000E+00 0.  1.
         25    2    1    2    0    0  0.10327072394E+01  0.56591937554E+02  0.27862546153E+02  0.14009912079E+03  0.12509088011E+03 0.  0.
          5    1    3    3  502    0  0.55975788269E+02  0.59886398223E+02  0.15479784228E+02  0.83527035648E+02  0.41800000000E+01 0.  1.
         -5    1    3    3    0  502 -0.54943081029E+02 -0.32944606688E+01  0.12382761925E+02  0.56572085139E+02  0.41800000000E+01 0.  1.
        -11    1    1    2    0    0 -0.32606388503E+02 -0.41583628550E+02 -0.83729453911E+02  0.99010081239E+02  0.00000000000E+00 0. -1.
         11    1    1    2    0    0  0.31573681264E+02 -0.15008309004E+02 -0.20023074774E+03  0.20325968373E+03  0.00000000000E+00 0.  1.
</event>
<event>
 7    1  0.2648915E-009  0.1359884E+03  0.7561462E-02  0.1218831E+00
         -3   -1    0    0    0  501 -0.00000000000E+00  0.00000000000E+00  0.63093789280E+03  0.63093789280E+03  0.00000000000E+00 0.  1.
          3   -1    0    0  501    0  0.00000000000E+00 -0.00000000000E+00 -0.41657275838E+02  0.41657275838E+02  0.00000000000E+00 0. -1.
         25    2    1    2    0    0 -0.93714985578E+02  0.34720488197E+02  0.17018360454E+03  0.23365189916E+03  0.12507093949E+03 0.  0.
          5    1    3    3  502    0 -0.11513954467E+03  0.27006516795E+02  0.17375618267E+03  0.21022642582E+03  0.41800000000E+01 0.  1.
         -5    1    3    3    0  502  0.21424559093E+02  0.77139714025E+01 -0.35725781242E+01  0.23425473348E+02  0.41800000000E+01 0.  1.
        -11    1    1    2    0    0 -0.36914406501E+01 -0.32856224896E+02  0.10825994557E+03  0.11319617513E+03  0.00000000000E+00 0. -1.
         11    1    1    2    0    0  0.97406426228E+02 -0.18642633012E+01  0.31083706685E+03  0.32574709435E+03  0.00000000000E+00 0.  1.
</event>
<event>
 7    1  0.2648915E-009  0.1055507E+03  0.7561462E-02  0.1269038E+00
         -2   -1    0    0    0  501 -0.00000000000E+00  0.00000000000E+00  0.10981959017E+03  0.10981959017E+03  0.00000000000E+00 0.  1.
          2   -1    0    0  501    0  0.00000000000E+00 -0.00000000000E+00 -0.11134413487E+03  0.11134413487E+03  0.00000000000E+00 0. -1.
         25    2    1    2    0    0  0.12457970046E+02 -0.65201525170E+01 -0.22434779557E+02  0.12786395114E+03  0.12509259475E+03 0.  0.
          5    1    3    3  502    0  0.32100610897E+02  0.53113245864E+02 -0.18146842542E+02  0.64793876257E+02  0.41800000000E+01 0. -1.
         -5    1    3    3    0  502 -0.19642640851E+02 -0.59633398381E+02 -0.42879370149E+01  0.63070074884E+02  0.41800000000E+01 0. -1.
        -11    1    1    2    0    0 -0.42411024307E+02 -0.19144740955E+02 -0.39101335234E+01  0.46695880259E+02  0.00000000000E+00 0.  1.
         11    1    1    2    0    0  0.29953054261E+02  0.25664893472E+02  0.24820368376E+02  0.46603893644E+02  0.00000000000E+00 0. -1.
</event>
<event>
 7    1  0.2648915E-009  0.3364104E+03  0.7561462E-02  0.1068335E+00
         -1   -1    0    0    0  501 -0.00000000000E+00  0.00000000000E+00  0.27755238324E+03  0.27755238324E+03  0.00000000000E+00 0.  1.
          1   -1    0    0  501    0  0.00000000000E+00 -0.00000000000E+00 -0.43364025032E+03  0.43364025032E+03  0.00000000000E+00 0. -1.
         25    2    1    2    0    0  0.17716478860E+03  0.27147942132E+03 -0.20069236332E+02  0.34805229130E+03  0.12509670147E+03 0.  0.
          5    1    3    3  502    0 -0.11153320327E+02  0.50337240906E+01  0.15074743409E+02  0.19860896792E+02  0.41800000000E+01 0. -1.
         -5    1    3    3    0  502  0.18831810893E+03  0.26644569723E+03 -0.35143979741E+02  0.32819139451E+03  0.41800000000E+01 0. -1.
        -11    1    1    2    0    0 -0.86206642627E+02 -0.20037849079E+03 -0.65077158740E+02  0.22763602833E+03  0.00000000000E+00 0.  1.
         11    1    1    2    0    0 -0.90958145971E+02 -0.71100930527E+02 -0.70941472013E+02  0.13550431392E+03  0.00000000000E+00 0. -1.
</event>
<event>
 7    1  0.2648915E-009  0.1190706E+03  0.7561462E-02  0.1244638E+00
          1   -1    0    0  501    0  0.00000000000E+00  0.00000000000E+00  0.58922884168E+03  0.58922884168E+03  0.00000000000E+00 0. -1.
         -1   -1    0    0    0  501 -0.00000000000E+00 -0.00000000000E+00 -0.38207013183E+02  0.38207013183E+02  0.00000000000E+00 0.  1.
         25    2    1    2    0    0  0.41560383569E+02 -0.39987543310E+02  0.47625835110E+03  0.49577872327E+03  0.12509299082E+03 0.  0.
          5    1    3    3  502    0  0.84910247936E+02 -0.17249300122E+02  0.34146525959E+03  0.35231134592E+03  0.41800000000E+01 0. -1.
         -5    1    3    3    0  502 -0.43349864367E+02 -0.22738243189E+02  0.13479309152E+03  0.14346737735E+03  0.41800000000E+01 0. -1.
        -11    1    1    2    0    0 -0.16568058778E+02 -0.26490847743E+02  0.41738754846E+01  0.31522798454E+02  0.00000000000E+00 0.  1.
         11    1    1    2    0    0 -0.24992324791E+02  0.66478391053E+02  0.70589601913E+02  0.10013433314E+03  0.00000000000E+00 0. -1.
</event>
<event>
 7    1  0.2648915E-009  0.6142851E+02  0.7561462E-02  0.1391933E+00
          1   -1    0    0  501    0  0.00000000000E+00  0.00000000000E+00  0.25423575362E+02  0.25423575362E+02  0.00000000000E+00 0. -1.
         -1   -1    0    0    0  501 -0.00000000000E+00 -0.00000000000E+00 -0.49233204788E+03  0.49233204788E+03  0.00000000000E+00 0.  1.
         25    2    1    2    0    0  0.17646584407E+02 -0.66554745702E+01 -0.30137718977E+03  0.32685008262E+03  0.12508824372E+03 0.  0.
          5    1    3    3  502    0  0.32237703290E+02 -0.32195355553E+01 -0.87619019006E+01  0.33821269159E+02  0.41800000000E+01 0.  1.
         -5    1    3    3    0  502 -0.14591118882E+02 -0.34359390149E+01 -0.29261528786E+03  0.29302881346E+03  0.41800000000E+01 0.  1.
        -11    1    1    2    0    0  0.25993802308E+02  0.15268097930E+02 -0.13146527072E+03  0.13487738868E+03  0.00000000000E+00 0.  1.
         11    1    1    2    0    0 -0.43640386716E+02 -0.86126233594E+01 -0.34066012037E+02  0.56028151941E+02  0.00000000000E+00 0. -1.
</event>
<event>
 7    1  0.2648915E-009  0.1477909E+03  0.7561462E-02  0.1203214E+00
         -1   -1    0    0    0  501 -0.00000000000E+00  0.00000000000E+00  0.47286263807E+03  0.47286263807E+03  0.00000000000E+00 0.  1.
          1   -1    0    0  501    0  0.00000000000E+00 -0.00000000000E+00 -0.47402706462E+02  0.47402706462E+02  0.00000000000E+00 0. -1.
         25    2    1    2    0    0  0.62059559449E+02 -0.82339933660E+02  0.25301840705E+03  0.30049364024E+03  0.12508740914E+03 0.  0.
          5    1    3    3  502    0 -0.38117674004E+02 -0.31564144611E+02  0.74106532464E+02  0.89210441375E+02  0.41800000000E+01 0. -1.
         -5    1    3    3    0  502  0.10017723345E+03 -0.50775789049E+02  0.17891187459E+03  0.21128319887E+03  0.41800000000E+01 0. -1.
        -11    1    1    2    0    0 -0.82436661356E+02  0.76162802940E+02  0.15889194401E+03  0.19453335333E+03  0.00000000000E+00 0. -1.
         11    1    1    2    0    0  0.20377101907E+02  0.61771307192E+01  0.13549580548E+02  0.25238350957E+02  0.00000000000E+00 0.  1.
</event>
<event>
 7    1  0.2648915E-009  0.1127870E+03  0.7561462E-02  0.1255494E+00
         -1   -1    0    0    0  501 -0.00000000000E+00  0.00000000000E+00  0.31224367622E+02  0.31224367622E+02  0.00000000000E+00 0.  1.
          1   -1    0    0  501    0  0.00000000000E+00 -0.00000000000E+00 -0.67035363771E+03  0.67035363771E+03  0.00000000000E+00 0. -1.
         25    2    1    2    0    0 -0.18465470862E+02  0.75568348068E+02 -0.48752456525E+03  0.50929320561E+03  0.12509124159E+03 0.  0.
          5    1    3    3  502    0 -0.61480171439E+02  0.82027102432E+02 -0.36790408839E+03  0.38194128825E+03  0.41800000000E+01 0.  1.
         -5    1    3    3    0  502  0.43014700577E+02 -0.64587543643E+01 -0.11962047686E+03  0.12735191737E+03  0.41800000000E+01 0.  1.
        -11    1    1    2    0    0  0.17935791274E+02 -0.41508813639E+02 -0.95662950009E+01  0.46218916240E+02  0.00000000000E+00 0.  1.
         11    1    1    2    0    0  0.52967958835E+00 -0.34059534428E+02 -0.14203840984E+03  0.14606588348E+03  0.00000000000E+00 0. -1.
</event>
<event>
 7    1  0.2648915E-009  0.2146767E+03  0.7561462E-02  0.1137915E+00
          2   -1    0    0  501    0  0.00000000000E+00  0.00000000000E+00  0.86070090582E+02  0.86070090582E+02  0.00000000000E+00 0. -1.
         -2   -1    0    0    0  501 -0.00000000000E+00 -0.00000000000E+00 -0.61726800773E+03  0.61726800773E+03  0.00000000000E+00 0.  1.
         25    2    1    2    0    0  0.14148084107E+01  0.19062155232E+03 -0.38205100057E+03  0.44491099392E+03  0.12507696662E+03 0.  0.
          5    1    3    3  502    0 -0.21986562760E+02  0.20083666476E+03 -0.33585693632E+03  0.39196444855E+03  0.41800000000E+01 0. -1.
         -5    1    3    3    0  502  0.23401371171E+02 -0.10215112431E+02 -0.46194064251E+02  0.52946545370E+02  0.41800000000E+01 0. -1.
        -11    1    1    2    0    0  0.31549022273E+02 -0.80910259699E+02 -0.10350900870E+03  0.13511449150E+03  0.00000000000E+00 0.  1.
         11    1    1    2    0    0 -0.32963830684E+02 -0.10971129263E+03 -0.45637907874E+02  0.12331261289E+03  0.00000000000E+00 0. -1.
</event>
<event>
 7    1  0.2648915E-009  0.9798680E+02  0.7561462E-02  0.1284587E+00
          2   -1    0    0  501    0  0.00000000000E+00  0.00000000000E+00  0.62525350813E+03  0.62525350813E+03  0.00000000000E+00 0. -1.
         -2   -1    0    0    0  501 -0.00000000000E+00 -0.00000000000E+00 -0.21335055032E+02  0.21335055032E+02  0.00000000000E+00 0.  1.
         25    2    1    2    0    0  0.36664112632E+02  0.18116466265E+02  0.31776487298E+03  0.34393993075E+03  0.12509075888E+03 0.  0.
          5    1    3    3  502    0  0.24021093426E+02 -0.50352126002E+02  0.92289095475E+02  0.10792172657E+03  0.41800000000E+01 0. -1.
         -5    1    3    3    0  502  0.12643019206E+02  0.68468592268E+02  0.22547577750E+03  0.23601820418E+03  0.41800000000E+01 0. -1.
        -11    1    1    2    0    0 -0.47733084341E+02  0.14963926713E+01  0.27175295039E+03  0.27591729300E+03  0.00000000000E+00 0. -1.
         11    1    1    2    0    0  0.11068971709E+02 -0.19612858937E+02  0.14400629736E+02  0.26731339420E+02  0.00000000000E+00 0.  1.
</event>
<event>
 7    1  0.2648915E-009  0.1474075E+03  0.7561462E-02  0.1203695E+00
          2   -1    0    0  501    0  0.00000000000E+00  0.00000000000E+00  0.73165638592E+02  0.73165638592E+02  0.00000000000E+00 0.  1.
         -2   -1    0    0    0  501 -0.00000000000E+00 -0.00000000000E+00 -0.35390944846E+03  0.35390944846E+03  0.00000000000E+00 0. -1.
         25    2    1    2    0    0  0.96621675911E+02 -0.36708941309E+02 -0.75702826859E+02  0.17905757593E+03  0.12508957941E+03 0.  0.
          5    1    3    3  502    0  0.96239263170E+02 -0.75900172528E+02 -0.61176515831E+02  0.13705061275E+03  0.41800000000E+01 0. -1.
         -5    1    3    3    0  502  0.38241274092E+00  0.39191231220E+02 -0.14526311027E+02  0.42006963186E+02  0.41800000000E+01 0. -1.
        -11    1    1    2    0    0 -0.55016046664E+02 -0.23294123729E+02 -0.13124786156E+03  0.14420604271E+03  0.00000000000E+00 0. -1.
         11    1    1    2    0    0 -0.41605629247E+02  0.60003065038E+02 -0.73793121444E+02  0.10381146840E+03  0.00000000000E+00 0.  1.
</event>
<event>
 7    1  0.2648915E-009  0.1612767E+03  0.7561462E-02  0.1187263E+00
         -1   -1    0    0    0  501 -0.00000000000E+00  0.00000000000E+00  0.13517087513E+03  0.13517087513E+03  0.00000000000E+00 0.  1.
          1   -1    0    0  501    0  0.00000000000E+00 -0.00000000000E+00 -0.20883847758E+03  0.20883847758E+03  0.00000000000E+00 0. -1.
         25    2    1    2    0    0  0.11174542899E+03  0.57758682613E+02 -0.65300670098E+02  0.18903701894E+03  0.12509080981E+03 0.  0.
          5    1    3    3  502    0  0.86174853560E+02 -0.17713318828E+02 -0.64619632134E+02  0.10923843786E+03  0.41800000000E+01 0. -1.
         -5    1    3    3    0  502  0.25570575431E+02  0.75472001441E+02 -0.68103796378E+00  0.79798581078E+02  0.41800000000E+01 0. -1.
        -11    1    1    2    0    0 -0.11044950676E+02 -0.52710345571E+02 -0.78656167965E+00  0.53860840551E+02  0.00000000000E+00 0.  1.
         11    1    1    2    0    0 -0.10070047832E+03 -0.50483370423E+01 -0.75803706741E+01  0.10111149321E+03  0.00000000000E+00 0. -1.
</event>
<event>
 7    1  0.2648915E-009  0.1105643E+03  0.7561462E-02  0.1259529E+00
          2   -1    0    0  501    0  0.00000000000E+00  0.00000000000E+00  0.46386362655E+03  0.46386362655E+03  0.00000000000E+00 0. -1.
         -2   -1    0    0    0  501 -0.00000000000E+00 -0.00000000000E+00 -0.29255908594E+02  0.29255908594E+02  0.00000000000E+00 0.  1.
         25    2    1    2    0    0 -0.41184500818E+02  0.14065461788E+02  0.22492591011E+03  0.26102378204E+03  0.12509096461E+03 0.  0.
          5    1    3    3  502    0 -0.64515638891E+02  0.54953479376E+02  0.13542901455E+03  0.15981440154E+03  0.41800000000E+01 0. -1.
         -5    1    3    3    0  502  0.23331138073E+02 -0.40888017588E+02  0.89496895564E+02  0.10120938050E+03  0.41800000000E+01 0. -1.
        -11    1    1    2    0    0 -0.20643032756E+02 -0.17544126552E+02  0.23424327418E+02  0.35813828235E+02  0.00000000000E+00 0.  1.
         11    1    1    2    0    0  0.61827533574E+02  0.34786647636E+01  0.18625748042E+03  0.19628192487E+03  0.00000000000E+00 0. -1.
</event>
<event>
 7    1  0.2648915E-009  0.1401486E+03  0.7561462E-02  0.1213129E+00
          2   -1    0    0  501    0  0.00000000000E+00  0.00000000000E+00  0.24646136892E+03  0.24646136892E+03  0.00000000000E+00 0. -1.
         -2   -1    0    0    0  501 -0.00000000000E+00 -0.00000000000E+00 -0.16002314763E+03  0.16002314763E+03  0.00000000000E+00 0.  1.
         25    2    1    2    0    0  0.73840430895E+02 -0.88695456451E+02 -0.75854942720E+02  0.18633688386E+03  0.12509264056E+03 0.  0.
          5    1    3    3  502    0  0.46129166594E+02  0.17470343113E+02 -0.56018107443E+02  0.74757030845E+02  0.41800000000E+01 0.  1.
         -5    1    3    3    0  502  0.27711264301E+02 -0.10616579956E+03 -0.19836835277E+02  0.11157985302E+03  0.41800000000E+01 0.  1.
        -11    1    1    2    0    0 -0.47056933239E+02  0.28269456818E+02  0.12327789370E+02  0.56262701192E+02  0.00000000000E+00 0.  1.
         11    1    1    2    0    0 -0.26783497656E+02  0.60425999632E+02  0.14996537464E+03  0.16388493149E+03  0.00000000000E+00 0. -1.
</event>
<event>
 7    1  0.2648915E-009  0.6782526E+02  0.7561462E-02  0.1367648E+00
          4   -1    0    0  501    0  0.00000000000E+00  0.00000000000E+00  0.84986903233E+02  0.84986903233E+02  0.00000000000E+00 0.  1.
         -4   -1    0    0    0  501 -0.00000000000E+00 -0.00000000000E+00 -0.15242030275E+03  0.15242030275E+03  0.00000000000E+00 0. -1.
         25    2    1    2    0    0 -0.58741003245E+01 -0.77093835956E+01 -0.49589935115E+01  0.12556764794E+03  0.12509477584E+03 0.  0.
          5    1    3    3  502    0 -0.69190807986E+01  0.38557348526E+02 -0.48091397199E+02  0.62167497046E+02  0.41800000000E+01 0. -1.
         -5    1    3    3    0  502  0.10449804741E+01 -0.46266732121E+02  0.43132403687E+02  0.63400150893E+02  0.41800000000E+01 0. -1.
        -11    1    1    2    0    0 -0.79524481546E+00 -0.20644730148E+02  0.17279133050E+02  0.26933357313E+02  0.00000000000E+00 0.  1.
         11    1    1    2    0    0  0.66693451400E+01  0.28354113743E+02 -0.79753539056E+02  0.84906200732E+02  0.00000000000E+00 0. -1.
</event>
<event>
 7    1  0.2648915E-009  0.1424471E+03  0.7561462E-02  0.1210074E+00
          1   -1    0    0  501    0  0.00000000000E+00  0.00000000000E+00  0.67694177542E+02  0.67694177542E+02  0.00000000000E+00 0. -1.
         -1   -1    0    0    0  501 -0.00000000000E+00 -0.00000000000E+00 -0.38114830602E+03  0.38114830602E+03  0.00000000000E+00 0.  1.
         25    2    1    2    0    0  0.10035105989E+03 -0.14865309559E+02 -0.25195731341E+03  0.29903054614E+03  0.12508184160E+03 0.  0.
          5    1    3    3  502    0  0.12197636627E+03  0.14645481528E+02 -0.17675411572E+03  0.21529564297E+03  0.41800000000E+01 0.  1.
         -5    1    3    3    0  502 -0.21625306384E+02 -0.29510791087E+02 -0.75203197692E+02  0.83734903176E+02  0.41800000000E+01 0.  1.
        -11    1    1    2    0    0 -0.11168583512E+03  0.18575488950E+02 -0.31483668945E+02  0.11751593920E+03  0.00000000000E+00 0. -1.
         11    1    1    2    0    0  0.11334775230E+02 -0.37101793916E+01 -0.30013146120E+02  0.32295998214E+02  0.00000000000E+00 0.  1.
</event>
<event>
 7    1  0.2648915E-009  0.6469028E+02  0.7561462E-02  0.1379140E+00
         -4   -1    0    0    0  501 -0.00000000000E+00  0.00000000000E+00  0.10304709184E+03  0.10304709184E+03  0.00000000000E+00 0. -1.
          4   -1    0    0  501    0  0.00000000000E+00 -0.00000000000E+00 -0.12089323423E+03  0.12089323423E+03  0.00000000000E+00 0.  1.
         25    2    1    2    0    0  0.22261502034E+02  0.16895810818E+02 -0.21060708791E+02  0.12989353427E+03  0.12509090252E+03 0.  0.
          5    1    3    3  502    0 -0.16783019208E+02  0.32995982849E+01 -0.66222062326E+02  0.68522923327E+02  0.41800000000E+01 0. -1.
         -5    1    3    3    0  502  0.39044521242E+02  0.13596212533E+02  0.45161353536E+02  0.61370610942E+02  0.41800000000E+01 0. -1.
        -11    1    1    2    0    0 -0.42236497901E+02  0.25861687187E+01 -0.29097699882E+02  0.51354514525E+02  0.00000000000E+00 0.  1.
         11    1    1    2    0    0  0.19974995867E+02 -0.19481979536E+02  0.32312266278E+02  0.42692277271E+02  0.00000000000E+00 0. -1.
</event>
<event>
 7    1  0.2648915E-009  0.9762342E+02  0.7561462E-02  0.1285374E+00
         -1   -1    0    0    0  501 -0.00000000000E+00  0.00000000000E+00  0.54796846708E+02  0.54796846708E+02  0.00000000000E+00 0.  1.
          1   -1    0    0  501    0  0.00000000000E+00 -0.00000000000E+00 -0.25080955614E+03  0.25080955614E+03  0.00000000000E+00 0. -1.
         25    2    1    2    0    0 -0.42448290430E+02  0.83776596450E+01 -0.11869947934E+03  0.17778711798E+03  0.12508657156E+03 0.  0.
          5    1    3    3  502    0  0.26355278582E+02 -0.30772482419E+02 -0.78046729199E+01  0.41472059303E+02  0.41800000000E+01 0. -1.
         -5    1    3    3    0  502 -0.68803569012E+02  0.39150142064E+02 -0.11089480642E+03  0.13631505868E+03  0.41800000000E+01 0. -1.
        -11    1    1    2    0    0  0.59832455597E+01 -0.31501322709E+02  0.72465773757E+01  0.32873172094E+02  0.00000000000E+00 0.  1.
         11    1    1    2    0    0  0.36465044870E+02  0.23123663064E+02 -0.84559807467E+02  0.94946112768E+02  0.00000000000E+00 0. -1.
</event>
<event>
 7    1  0.2648915E-009  0.1350478E+03  0.7561462E-02  0.1220152E+00
         -2   -1    0    0    0  501 -0.00000000000E+00  0.00000000000E+00  0.26743839189E+02  0.26743839189E+02  0.00000000000E+00 0.  1.
          2   -1    0    0  501    0  0.00000000000E+00 -0.00000000000E+00 -0.12117341796E+04  0.12117341796E+04  0.00000000000E+00 0. -1.
         25    2    1    2    0    0 -0.61608273293E+02 -0.60926604088E+02 -0.10246861171E+04  0.10359226931E+04  0.12508619850E+03 0.  0.
          5    1    3    3  502    0 -0.38516142785E+02  0.32440716244E+02 -0.49375597754E+03  0.49633489811E+03  0.41800000000E+01 0. -1.
         -5    1    3    3    0  502 -0.23092130507E+02 -0.93367320332E+02 -0.53093013956E+03  0.53958779498E+03  0.41800000000E+01 0. -1.
        -11    1    1    2    0    0 -0.19667398221E+02  0.30941158998E+02 -0.56475002296E+02  0.67331922275E+02  0.00000000000E+00 0.  1.
         11    1    1    2    0    0  0.81275671514E+02  0.29985445090E+02 -0.10382922102E+03  0.13522340343E+03  0.00000000000E+00 0. -1.
</event>
<event>
 7    1  0.2648915E-009  0.1214919E+03  0.7561462E-02  0.1240656E+00
          2   -1    0    0  501    0  0.00000000000E+00  0.00000000000E+00  0.12415872384E+04  0.12415872384E+04  0.00000000000E+00 0. -1.
         -2   -1    0    0    0  501 -0.00000000000E+00 -0.00000000000E+00 -0.12869037416E+02  0.12869037416E+02  0.00000000000E+00 0.  1.
         25    2    1    2    0    0  0.32968913011E+02 -0.49172766797E+02  0.79250010806E+03  0.80449252288E+03  0.12508752082E+03 0.  0.
          5    1    3    3  502    0 -0.41692054202E+02  0.35113211617E+01  0.16092671897E+03  0.16632930602E+03  0.41800000000E+01 0. -1.
         -5    1    3    3    0  502  0.74660967213E+02 -0.52684087959E+02  0.63157338909E+03  0.63816321686E+03  0.41800000000E+01 0. -1.
        -11    1    1    2    0    0 -0.47014094926E+02 -0.10489019012E+02  0.16383089922E+03  0.17076565281E+03  0.00000000000E+00 0.  1.
         11    1    1    2    0    0  0.14045181915E+02  0.59661785809E+02  0.27238719369E+03  0.27919810011E+03  0.00000000000E+00 0. -1.
</event>
<event>
 7    1  0.2648915E-009  0.1074414E+03  0.7561462E-02  0.1265383E+00
          1   -1    0    0  501    0  0.00000000000E+00  0.00000000000E+00  0.48405473313E+03  0.48405473313E+03  0.00000000000E+00 0. -1.
         -1   -1    0    0    0  501 -0.00000000000E+00 -0.00000000000E+00 -0.39822106713E+02  0.39822106713E+02  0.00000000000E+00 0.  1.
         25    2    1    2    0    0  0.65046361383E+02  0.29336507190E+02  0.34358154279E+03  0.37254245211E+03  0.12509173551E+03 0.  0.
          5    1    3    3  502    0  0.91158661522E+02  0.23462787864E+02  0.15044215242E+03  0.17751258437E+03  0.41800000000E+01 0. -1.
         -5    1    3    3    0  502 -0.26112300139E+02  0.58737193262E+01  0.19313939037E+03  0.19502986774E+03  0.41800000000E+01 0. -1.
        -11    1    1    2    0    0 -0.37838126911E+02  0.15690272616E+02  0.38266873865E+01  0.41140637322E+02  0.00000000000E+00 0.  1.
         11    1    1    2    0    0 -0.27208234471E+02 -0.45026779806E+02  0.96824396237E+02  0.11019375041E+03  0.00000000000E+00 0. -1.
</event>
<event>
 7    1  0.2648915E-009  0.1117194E+03  0.7561462E-02  0.1257419E+00
          1   -1    0    0  501    0  0.00000000000E+00  0.00000000000E+00  0.14259581709E+03  0.14259581709E+03  0.00000000000E+00 0. -1.
         -1   -1    0    0    0  501 -0.00000000000E+00 -0.00000000000E+00 -0.12096502469E+03  0.12096502469E+03  0.00000000000E+00 0.  1.
         25    2    1    2    0    0  0.13986806882E+02  0.67133478693E+02 -0.18824862650E+02  0.14389129774E+03  0.12509114830E+03 0.  0.
          5    1    3    3  502    0 -0.38575974667E+02 -0.14993090610E+02 -0.20293050373E+02  0.46283678343E+02  0.41800000000E+01 0.  1.
         -5    1    3    3    0  502  0.52562781549E+02  0.82126569303E+02  0.14681877228E+01  0.97607619400E+02  0.41800000000E+01 0.  1.
        -11    1    1    2    0    0  0.18062419792E+02 -0.31558684179E+02 -0.20822794390E+02  0.41902151759E+02  0.00000000000E+00 0.  1.
         11    1    1    2    0    0 -0.32049226675E+02 -0.35574794514E+02  0.61278449437E+02  0.77767392271E+02  0.00000000000E+00 0. -1.
</event>
<event>
 7    1  0.2648915E-009  0.1506297E+03  0.7561462E-02  0.1199701E+00
          1   -1    0    0  501    0  0.00000000000E+00  0.00000000000E+00  0.39727016960E+02  0.39727016960E+02  0.00000000000E+00 0. -1.
         -1   -1    0    0    0  501 -0.00000000000E+00 -0.00000000000E+00 -0.78198201709E+03  0.78198201709E+03  0.00000000000E+00 0.  1.
         25    2    1    2    0    0 -0.13706458857E+02  0.12847034679E+03 -0.51205258597E+03  0.54271337730E+03  0.12508981609E+03 0.  0.
          5    1    3    3  502    0 -0.39886566181E+02  0.81378526903E+02 -0.14046312951E+03  0.16721473008E+03  0.41800000000E+01 0.  1.
         -5    1    3    3    0  502  0.26180107325E+02  0.47091819888E+02 -0.37158945645E+03  0.37549864722E+03  0.41800000000E+01 0.  1.
        -11    1    1    2    0    0  0.45710103486E+02 -0.34632366394E+02 -0.68716531529E+02  0.89502938880E+02  0.00000000000E+00 0. -1.
         11    1    1    2    0    0 -0.32003644630E+02 -0.93837980398E+02 -0.16148588264E+03  0.18949271787E+03  0.00000000000E+00 0.  1.
</event>
<event>
 7    1  0.2648915E-009  0.2107544E+03  0.7561462E-02  0.1140970E+00
         -1   -1    0    0    0  501 -0.00000000000E+00  0.00000000000E+00  0.48286818463E+03  0.48286818463E+03  0.00000000000E+00 0.  1.
          1   -1    0    0  501    0  0.00000000000E+00 -0.00000000000E+00 -0.23098767781E+03  0.23098767781E+03  0.00000000000E+00 0. -1.
         25    2    1    2    0    0  0.18763416947E+03 -0.55064304491E+02  0.36342755729E+03  0.43123778336E+03  0.12509107568E+03 0.  0.
          5    1    3    3  502    0  0.16689044790E+03 -0.10357725718E+01  0.31128434944E+03  0.35322643309E+03  0.41800000000E+01 0.  1.
         -5    1    3    3    0  502  0.20743721576E+02 -0.54028531919E+02  0.52143207849E+02  0.78011350270E+02  0.41800000000E+01 0.  1.
        -11    1    1    2    0    0 -0.12349663991E+03  0.45892916800E+02 -0.15589051499E+03  0.20410642455E+03  0.00000000000E+00 0. -1.
         11    1    1    2    0    0 -0.64137529567E+02  0.91713876906E+01  0.44343464519E+02  0.78511654528E+02  0.00000000000E+00 0.  1.
</event>
<event>
 7    1  0.2648915E-009  0.1154709E+03  0.7561462E-02  0.1250761E+00
         -3   -1    0    0    0  501 -0.00000000000E+00  0.00000000000E+00  0.13992093913E+04  0.13992093913E+04  0.00000000000E+00 0.  1.
          3   -1    0    0  501    0  0.00000000000E+00 -0.00000000000E+00 -0.27399326124E+02  0.27399326124E+02  0.00000000000E+00 0. -1.
         25    2    1    2    0    0 -0.22620699557E+02  0.76987849436E+02  0.12418334270E+04  0.12506943574E+04  0.12508912950E+03 0.  0.
          5    1    3    3  502    0 -0.74226279119E+02  0.53223321719E+02  0.73204188017E+03  0.73772965862E+03  0.41800000000E+01 0. -1.
         -5    1    3    3    0  502  0.51605579561E+02  0.23764527716E+02  0.50979154680E+03  0.51296469879E+03  0.41800000000E+01 0. -1.
        -11    1    1    2    0    0  0.89223934143E+01 -0.60279929427E+02  0.13955643498E+03  0.15228025985E+03  0.00000000000E+00 0.  1.
         11    1    1    2    0    0  0.13698306143E+02 -0.16707920009E+02 -0.95797968021E+01  0.23634100131E+02  0.00000000000E+00 0. -1.
</event>
<event>
 7    1  0.2648915E-009  0.8776278E+02  0.7561462E-02  0.1308362E+00
         -1   -1    0    0    0  501 -0.00000000000E+00  0.00000000000E+00  0.93666150373E+02  0.93666150373E+02  0.00000000000E+00 0.  1.
          1   -1    0    0  501    0  0.00000000000E+00 -0.00000000000E+00 -0.17798131408E+03  0.17798131408E+03  0.00000000000E+00 0. -1.
         25    2    1    2    0    0  0.54068352117E+02 -0.21996743021E+02 -0.85470355051E+02  0.16235346684E+03  0.12508486399E+03 0.  0.
          5    1    3    3  502    0  0.48246536318E+02  0.30837743016E+02  0.46941398848E+01  0.57603836766E+02  0.41800000000E+01 0. -1.
         -5    1    3    3    0  502  0.58218157993E+01 -0.52834486037E+02 -0.90164494935E+02  0.10474963008E+03  0.41800000000E+01 0. -1.
        -11    1    1    2    0    0 -0.11952422758E+02  0.19161461257E+02  0.43807180859E+02  0.49285810352E+02  0.00000000000E+00 0.  1.
         11    1    1    2    0    0 -0.42115929359E+02  0.28352817644E+01 -0.42651989515E+02  0.60008187258E+02  0.00000000000E+00 0. -1.
</event>
<event>
 7    1  0.2648915E-009  0.1089106E+03  0.7561462E-02  0.1262601E+00
         -3   -1    0    0    0  501 -0.00000000000E+00  0.00000000000E+00  0.39316778896E+03  0.39316778896E+03  0.00000000000E+00 0.  1.
          3   -1    0    0  501    0  0.00000000000E+00 -0.00000000000E+00 -0.47204207295E+02  0.47204207295E+02  0.00000000000E+00 0. -1.
         25    2    1    2    0    0 -0.22155715580E+02 -0.73642557412E+02  0.14115454901E+03  0.20368022183E+03  0.12508766552E+03 0.  0.
          5    1    3    3  502    0 -0.92065434582E+00  0.11436457826E+02 -0.18098719599E+02  0.21832916047E+02  0.41800000000E+01 0.  1.
         -5    1    3    3    0  502 -0.21235061234E+02 -0.85079015238E+02  0.15925326861E+03  0.18184730579E+03  0.41800000000E+01 0.  1.
        -11    1    1    2    0    0 -0.32495052557E+02  0.46692526764E+02  0.85036296630E+02  0.10230978565E+03  0.00000000000E+00 0. -1.
         11    1    1    2    0    0  0.54650768137E+02  0.26950030649E+02  0.11977273603E+03  0.13438198877E+03  0.00000000000E+00 0.  1.
</event>
<event>
 7    1  0.2648915E-009  0.9411762E+02  0.7561462E-02  0.1293176E+00
          2   -1    0    0  501    0  0.00000000000E+00  0.00000000000E+00  0.39669346433E+03  0.39669346433E+03  0.00000000000E+00 0. -1.
         -2   -1    0    0    0  501 -0.00000000000E+00 -0.00000000000E+00 -0.43008112189E+02  0.43008112189E+02  0.00000000000E+00 0.  1.
         25    2    1    2    0    0  0.33269173773E+02  0.46564989243E+02  0.12115100140E+03  0.18331550271E+03  0.12510744281E+03 0.  0.
          5    1    3    3  502    0  0.73307363597E+01  0.70770538824E+02  0.12840861110E+03  0.14686201914E+03  0.41800000000E+01 0. -1.
         -5    1    3    3    0  502  0.25938437413E+02 -0.24205549581E+02 -0.72576096954E+01  0.36453483571E+02  0.41800000000E+01 0. -1.
        -11    1    1    2    0    0  0.16599665671E+02 -0.13607829537E+02  0.62734594235E+01  0.22362428719E+02  0.00000000000E+00 0.  1.
         11    1    1    2    0    0 -0.49868839444E+02 -0.32957159706E+02  0.22626089131E+03  0.23402364509E+03  0.00000000000E+00 0. -1.
</event>
<event>
 7    1  0.2648915E-009  0.1396835E+03  0.7561462E-02  0.1213756E+00
          2   -1    0    0  501    0  0.00000000000E+00  0.00000000000E+00  0.10515785345E+04  0.10515785345E+04  0.00000000000E+00 0. -1.
         -2   -1    0    0    0  501 -0.00000000000E+00 -0.00000000000E+00 -0.25025805084E+02  0.25025805084E+02  0.00000000000E+00 0.  1.
         25    2    1    2    0    0 -0.10941540322E+03  0.16963961207E+02  0.39206143032E+03  0.42616744000E+03  0.12508803032E+03 0.  0.
          5    1    3    3  502    0 -0.85242972540E+02 -0.24258045262E+02  0.35395087652E+03  0.36490205880E+03  0.41800000000E+01 0. -1.
         -5    1    3    3    0  502 -0.24172430681E+02  0.41222006469E+02  0.38110553791E+02  0.61265381192E+02  0.41800000000E+01 0. -1.
        -11    1    1    2    0    0  0.62138743042E+02  0.35890314737E+02  0.34538277829E+03  0.35275855995E+03  0.00000000000E+00 0.  1.
         11    1    1    2    0    0  0.47276660179E+02 -0.52854275944E+02  0.28910852076E+03  0.29767833959E+03  0.00000000000E+00 0. -1.
</event>
<event>
 7    1  0.2648915E-009  0.1329935E+03  0.7561462E-02  0.1223080E+00
         -1   -1    0    0    0  501 -0.00000000000E+00  0.00000000000E+00  0.53786640555E+02  0.53786640555E+02  0.00000000000E+00 0.  1.
          1   -1    0    0  501    0  0.00000000000E+00 -0.00000000000E+00 -0.50875600669E+03  0.50875600669E+03  0.00000000000E+00 0. -1.
         25    2    1    2    0    0  0.97846379991E+02  0.19056359329E+02 -0.37400646738E+03  0.40677322561E+03  0.12508621236E+03 0.  0.
          5    1    3    3  502    0  0.45660121314E+02 -0.50882403091E+02 -0.21089991004E+03  0.22174334280E+03  0.41800000000E+01 0. -1.
         -5    1    3    3    0  502  0.52186258676E+02  0.69938762420E+02 -0.16310655734E+03  0.18502988281E+03  0.41800000000E+01 0. -1.
        -11    1    1    2    0    0 -0.39848550959E+02 -0.31521098372E+02  0.52929393441E+01  0.51083283597E+02  0.00000000000E+00 0.  1.
         11    1    1    2    0    0 -0.57997829032E+02  0.12464739043E+02 -0.86255838102E+02  0.10468613804E+03  0.00000000000E+00 0. -1.
</event>
<event>
 7    1  0.2648915E-009  0.1461193E+03  0.7561462E-02  0.1205324E+00
          1   -1    0    0  501    0  0.00000000000E+00  0.00000000000E+00  0.21363252838E+03  0.21363252838E+03  0.00000000000E+00 0. -1.
         -1   -1    0    0    0  501 -0.00000000000E+00 -0.00000000000E+00 -0.14011939672E+03  0.14011939672E+03  0.00000000000E+00 0.  1.
         25    2    1    2    0    0  0.12511639365E+03 -0.19942037950E+02  0.82202939372E+02  0.19610697149E+03  0.12509526046E+03 0.  0.
          5    1    3    3  502    0  0.76557417076E+02  0.17457328027E+02 -0.16024755176E+02  0.80249994327E+02  0.41800000000E+01 0.  1.
         -5    1    3    3    0  502  0.48558976575E+02 -0.37399365977E+02  0.98227694548E+02  0.11585697716E+03  0.41800000000E+01 0.  1.
        -11    1    1    2    0    0 -0.67412418131E+02 -0.31918264110E+02  0.15889784902E+02  0.76260703946E+02  0.00000000000E+00 0. -1.
         11    1    1    2    0    0 -0.57703975519E+02  0.51860302060E+02 -0.24579592617E+02  0.81384249666E+02  0.00000000000E+00 0.  1.
</event>
<event>
 7    1  0.2648915E-009  0.1675762E+03  0.7561462E-02  0.1180399E+00
         -1   -1    0    0    0  501 -0.00000000000E+00  0.00000000000E+00  0.15585536696E+03  0.15585536696E+03  0.00000000000E+00 0.  1.
          1   -1    0    0  501    0  0.00000000000E+00 -0.00000000000E+00 -0.26290366645E+03  0.26290366645E+03  0.00000000000E+00 0. -1.
         25    2    1    2    0    0 -0.73115872178E+01 -0.14337775596E+03 -0.15102895908E+03  0.24303951821E+03  0.12509124957E+03 0.  0.
          5    1    3    3  502    0 -0.50523760085E+02 -0.61721547541E+02 -0.12253697364E+03  0.14627023645E+03  0.41800000000E+01 0.  1.
         -5    1    3    3    0  502  0.43212172867E+02 -0.81656208415E+02 -0.28491985437E+02  0.96769281752E+02  0.41800000000E+01 0.  1.
        -11    1    1    2    0    0 -0.20182113334E+01  0.15083958361E+03  0.24445535165E+02  0.15282093230E+03  0.00000000000E+00 0. -1.
         11    1    1    2    0    0  0.93297985512E+01 -0.74618276532E+01  0.19535124417E+02  0.22898582902E+02  0.00000000000E+00 0.  1.
</event>
<event>
 7    1  0.2648915E-009  0.9282348E+02  0.7561462E-02  0.1296155E+00
         -1   -1    0    0    0  501 -0.00000000000E+00  0.00000000000E+00  0.26653417637E+03  0.26653417637E+03  0.00000000000E+00 0.  1.
          1   -1    0    0  501    0  0.00000000000E+00 -0.00000000000E+00 -0.51445545468E+02  0.51445545468E+02  0.00000000000E+00 0. -1.
         25    2    1    2    0    0 -0.17180483415E+02 -0.39201672374E+02  0.14497307592E+03  0.19620587818E+03  0.12509042235E+03 0.  0.
          5    1    3    3  502    0  0.40469366520E+02 -0.49238227051E+02  0.11193605323E+03  0.12887717037E+03  0.41800000000E+01 0. -1.
         -5    1    3    3    0  502 -0.57649849935E+02  0.10036554678E+02  0.33037022694E+02  0.67328707813E+02  0.41800000000E+01 0. -1.
        -11    1    1    2    0    0 -0.14286678700E+02  0.24534917054E+02 -0.13351783418E+02  0.31374216541E+02  0.00000000000E+00 0. -1.
         11    1    1    2    0    0  0.31467162115E+02  0.14666755320E+02  0.83467338395E+02  0.90399627112E+02  0.00000000000E+00 0.  1.
</event>
<event>
 7    1  0.2648915E-009  0.1822063E+03  0.7561462E-02  0.1165685E+00
         -1   -1    0    0    0  501 -0.00000000000E+00  0.00000000000E+00  0.83936470810E+02  0.83936470810E+02  0.00000000000E+00 0.  1.
          1   -1    0    0  501    0  0.00000000000E+00 -0.00000000000E+00 -0.46128281033E+03  0.46128281033E+03  0.00000000000E+00 0. -1.
         25    2    1    2    0    0  0.72477481161E+02  0.14446855908E+03 -0.23155139182E+03  0.30884981637E+03  0.12509201485E+03 0.  0.
          5    1    3    3  502    0 -0.11139702808E+02  0.11249346263E+03 -0.14838508982E+03  0.18658638588E+03  0.41800000000E+01 0.  1.
         -5    1    3    3    0  502  0.83617183969E+02  0.31975096449E+02 -0.83166302007E+02  0.12226343050E+03  0.41800000000E+01 0.  1.
        -11    1    1    2    0    0 -0.65153949417E+02 -0.12723834824E+03 -0.71657202346E+02  0.15990431212E+03  0.00000000000E+00 0.  1.
         11    1    1    2    0    0 -0.73235317442E+01 -0.17230210841E+02 -0.74137745349E+02  0.76465152640E+02  0.00000000000E+00 0. -1.
</event>
<event>
 7    1  0.2648915E-009  0.1042765E+03  0.7561462E-02  0.1271552E+00
         -2   -1    0    0    0  501 -0.00000000000E+00  0.00000000000E+00  0.35678214551E+02  0.35678214551E+02  0.00000000000E+00 0. -1.
          2   -1    0    0  501    0  0.00000000000E+00 -0.00000000000E+00 -0.35685041192E+03  0.35685041192E+03  0.00000000000E+00 0.  1.
         25    2    1    2    0    0  0.46408105991E+01  0.28640027483E+02 -0.15824451174E+03  0.20379750894E+03  0.12510120246E+03 0.  0.
          5    1    3    3  502    0  0.44939327505E+02  0.53906845960E+02 -0.13138533784E+03  0.14901365910E+03  0.41800000000E+01 0.  1.
         -5    1    3    3    0  502 -0.40298516906E+02 -0.25266818477E+02 -0.26859173897E+02  0.54783849839E+02  0.41800000000E+01 0.  1.
        -11    1    1    2    0    0  0.40120726982E+02 -0.67974897828E+01 -0.44741478251E+02  0.60478744010E+02  0.00000000000E+00 0. -1.
         11    1    1    2    0    0 -0.44761537581E+02 -0.21842537700E+02 -0.11818620738E+03  0.12825237352E+03  0.00000000000E+00 0.  1.
</event>
<event>
 7    1  0.2648915E-009  0.3201862E+03  0.7561462E-02  0.1075564E+00
         -1   -1    0    0    0  501 -0.00000000000E+00  0.00000000000E+00  0.16451966575E+03  0.16451966575E+03  0.00000000000E+00 0.  1.
          1   -1    0    0  501    0  0.00000000000E+00 -0.00000000000E+00 -0.69661745465E+03  0.69661745465E+03  0.00000000000E+00 0. -1.
         25    2    1    2    0    0 -0.15665554836E+00  0.30858866477E+03 -0.16006312403E+03  0.36945234045E+03  0.12509132514E+03 0.  0.
          5    1    3    3  502    0  0.54317406268E+02  0.80769958354E+02 -0.32538927154E+02  0.10271524218E+03  0.41800000000E+01 0. -1.
         -5    1    3    3    0  502 -0.54474061816E+02  0.22781870641E+03 -0.12752419688E+03  0.26673709827E+03  0.41800000000E+01 0. -1.
        -11    1    1    2    0    0 -0.34426179224E+01 -0.15912548525E+03 -0.12272517958E+03  0.20098318680E+03  0.00000000000E+00 0.  1.
         11    1    1    2    0    0  0.35992734708E+01 -0.14946317952E+03 -0.24930948529E+03  0.29070159314E+03  0.00000000000E+00 0. -1.
</event>
<event>
 7    1  0.2648915E-009  0.1373755E+03  0.7561462E-02  0.1216905E+00
         -4   -1    0    0    0  501 -0.00000000000E+00  0.00000000000E+00  0.57754205876E+02  0.57754205876E+02  0.00000000000E+00 0.  1.
          4   -1    0    0  501    0  0.00000000000E+00 -0.00000000000E+00 -0.34139766456E+03  0.34139766456E+03  0.00000000000E+00 0. -1.
         25    2    1    2    0    0 -0.81339581095E+02  0.25756302100E+02 -0.19049598641E+03  0.24334274441E+03  0.12508979122E+03 0.  0.
          5    1    3    3  502    0 -0.35299307527E+02 -0.50385299728E+02 -0.89387344372E+02  0.10859230762E+03  0.41800000000E+01 0. -1.
         -5    1    3    3    0  502 -0.46040273568E+02  0.76141601828E+02 -0.10110864204E+03  0.13475043678E+03  0.41800000000E+01 0. -1.
        -11    1    1    2    0    0  0.86926019940E+02 -0.49219151185E+02 -0.82000392457E+02  0.12923901171E+03  0.00000000000E+00 0.  1.
         11    1    1    2    0    0 -0.55864388452E+01  0.23462849085E+02 -0.11147079814E+02  0.26570114311E+02  0.00000000000E+00 0. -1.
</event>
<event>
 7    1  0.2648915E-009  0.1526885E+03  0.7561462E-02  0.1197208E+00
          1   -1    0    0  501    0  0.00000000000E+00  0.00000000000E+00  0.23747415098E+03  0.23747415098E+03  0.00000000000E+00 0. -1.
         -1   -1    0    0    0  501 -0.00000000000E+00 -0.00000000000E+00 -0.12493879140E+03  0.12493879140E+03  0.00000000000E+00 0.  1.
         25    2    1    2    0    0 -0.70685627407E+02 -0.79100272879E+02  0.13355294781E+03  0.21151224212E+03  0.12509087740E+03 0.  0.
          5    1    3    3  502    0 -0.10278525881E+03 -0.74472176754E+02  0.84433486032E+02  0.15250377209E+03  0.41800000000E+01 0. -1.
         -5    1    3    3    0  502  0.32099631402E+02 -0.46280961254E+01  0.49119461780E+02  0.59008470032E+02  0.41800000000E+01 0. -1.
        -11    1    1    2    0    0  0.17609212465E+02  0.89821407427E+02  0.31915309360E+01  0.91586873871E+02  0.00000000000E+00 0. -1.
         11    1    1    2    0    0  0.53076414942E+02 -0.10721134547E+02 -0.24209119177E+02  0.59313826385E+02  0.00000000000E+00 0.  1.
</event>
<event>
 7    1  0.2648915E-009  0.1166084E+03  0.7561462E-02  0.1248799E+00
          1   -1    0    0  501    0  0.00000000000E+00  0.00000000000E+00  0.71431302819E+03  0.71431302819E+03  0.00000000000E+00 0. -1.
         -1   -1    0    0    0  501 -0.00000000000E+00 -0.00000000000E+00 -0.21500943471E+02  0.21500943471E+02  0.00000000000E+00 0.  1.
         25    2    1    2    0    0  0.30455548817E+02 -0.30371551068E+02  0.26439527495E+03  0.29563843655E+03  0.12508897706E+03 0.  0.
          5    1    3    3  502    0 -0.48385376471E+02 -0.20169283167E+02  0.11029579692E+03  0.12219075194E+03  0.41800000000E+01 0.  1.
         -5    1    3    3    0  502  0.78840925287E+02 -0.10202267901E+02  0.15409947803E+03  0.17344768461E+03  0.41800000000E+01 0.  1.
        -11    1    1    2    0    0 -0.59090569247E+02 -0.25837689698E+00  0.24442463729E+03  0.25146603239E+03  0.00000000000E+00 0.  1.
         11    1    1    2    0    0  0.28635020430E+02  0.30629927965E+02  0.18399217248E+03  0.18870950272E+03  0.00000000000E+00 0. -1.
</event>
<event>
 7    1  0.2648915E-009  0.1186355E+03  0.7561462E-02  0.1245365E+00
          2   -1    0    0  501    0  0.00000000000E+00  0.00000000000E+00  0.12077138418E+04  0.12077138418E+04  0.00000000000E+00 0.  1.
         -2   -1    0    0    0  501 -0.00000000000E+00 -0.00000000000E+00 -0.12269969431E+02  0.12269969431E+02  0.00000000000E+00 0. -1.
         25    2    1    2    0    0  0.30681808217E+02  0.45930384031E+02  0.70011414864E+03  0.71334382679E+03  0.12509444653E+03 0.  0.
          5    1    3    3  502    0 -0.47546129803E+02  0.28908853924E+02  0.32540670036E+03  0.33015655276E+03  0.41800000000E+01 0.  1.
         -5    1    3    3    0  502  0.78227938020E+02  0.17021530107E+02  0.37470744828E+03  0.38318727402E+03  0.41800000000E+01 0.  1.
        -11    1    1    2    0    0  0.11605079099E+01 -0.64453483927E+02  0.38401389790E+03  0.38938704672E+03  0.00000000000E+00 0.  1.
         11    1    1    2    0    0 -0.31842316127E+02  0.18523099896E+02  0.11131582579E+03  0.11725293770E+03  0.00000000000E+00 0. -1.
</event>
<event>
 7    1  0.2648915E-009  0.2086698E+03  0.7561462E-02  0.1142624E+00
         -2   -1    0    0    0  501 -0.00000000000E+00  0.00000000000E+00  0.28968353452E+03  0.28968353452E+03  0.00000000000E+00 0.  1.
          2   -1    0    0  501    0  0.00000000000E+00 -0.00000000000E+00 -0.29021039068E+03  0.29021039068E+03  0.00000000000E+00 0. -1.
         25    2    1    2    0    0  0.12833866005E+03  0.14025685188E+03 -0.19050442266E+03  0.29678482721E+03  0.12508598021E+03 0.  0.
          5    1    3    3  502    0  0.59083621548E+02 -0.10633326198E+02 -0.37071517988E+02  0.70680349512E+02  0.41800000000E+01 0. -1.
         -5    1    3    3    0  502  0.69255038502E+02  0.15089017808E+03 -0.15343290467E+03  0.22610447770E+03  0.41800000000E+01 0. -1.
        -11    1    1    2    0    0 -0.94302940172E+02 -0.89787142083E+02  0.17884678929E+03  0.22122601440E+03  0.00000000000E+00 0.  1.
         11    1    1    2    0    0 -0.34035719878E+02 -0.50469709794E+02  0.11130777214E+02  0.61883083599E+02  0.00000000000E+00 0. -1.
</event>
<event>
 7    1  0.2648915E-009  0.1443901E+03  0.7561462E-02  0.1207541E+00
          1   -1    0    0  501    0  0.00000000000E+00  0.00000000000E+00  0.10053082694E+03  0.10053082694E+03  0.00000000000E+00 0. -1.
         -1   -1    0    0    0  501 -0.00000000000E+00 -0.00000000000E+00 -0.27362585449E+03  0.27362585449E+03  0.00000000000E+00 0.  1.
         25    2    1    2    0    0  0.10926006145E+03 -0.41934055797E+02 -0.42452480152E+02  0.17648495654E+03  0.12509396768E+03 0.  0.
          5    1    3    3  502    0  0.60160745482E+02 -0.84798485689E+02 -0.13086295475E+02  0.10487526878E+03  0.41800000000E+01 0.  1.
         -5    1    3    3    0  502  0.49099315967E+02  0.42864429893E+02 -0.29366184677E+02  0.71609687759E+02  0.41800000000E+01 0.  1.
        -11    1    1    2    0    0 -0.66086089169E+02  0.37570904946E+02 -0.13409140638E+03  0.15414100475E+03  0.00000000000E+00 0.  1.
         11    1    1    2    0    0 -0.43173972279E+02  0.43631508503E+01  0.34488589775E+01  0.43530720140E+02  0.00000000000E+00 0. -1.
</event>
<event>
 7    1  0.2648915E-009  0.6237213E+02  0.7561462E-02  0.1388138E+00
         -4   -1    0    0    0  501 -0.00000000000E+00  0.00000000000E+00  0.19084722950E+03  0.19084722950E+03  0.00000000000E+00 0.  1.
          4   -1    0    0  501    0  0.00000000000E+00 -0.00000000000E+00 -0.78737568234E+02  0.78737568234E+02  0.00000000000E+00 0. -1.
         25    2    1    2    0    0  0.36406025140E+02 -0.13082667832E+02  0.15907968714E+02  0.13189974871E+03  0.12509166790E+03 0.  0.
          5    1    3    3  502    0  0.20124350617E+02  0.31301284891E+02 -0.42497895849E+02  0.56641887991E+02  0.41800000000E+01 0. -1.
         -5    1    3    3    0  502  0.16281674523E+02 -0.44383952724E+02  0.58405864563E+02  0.75257860719E+02  0.41800000000E+01 0. -1.
        -11    1    1    2    0    0 -0.13498279397E+02  0.98334977788E+01 -0.15996843513E+02  0.23125748152E+02  0.00000000000E+00 0. -1.
         11    1    1    2    0    0 -0.22907745743E+02  0.32491700534E+01  0.11219853607E+03  0.11455930088E+03  0.00000000000E+00 0.  1.
</event>
<event>
 7    1  0.2648915E-009  0.1708742E+03  0.7561462E-02  0.1176939E+00
          2   -1    0    0  501    0  0.00000000000E+00  0.00000000000E+00  0.44473157260E+02  0.44473157260E+02  0.00000000000E+00 0.  1.
         -2   -1    0    0    0  501 -0.00000000000E+00 -0.00000000000E+00 -0.81837219626E+03  0.81837219626E+03  0.00000000000E+00 0. -1.
         25    2    1    2    0    0  0.13041205002E+03  0.83132336673E+02 -0.48014256511E+03  0.51971371883E+03  0.12508868265E+03 0.  0.
          5    1    3    3  502    0  0.14290103910E+03  0.50070289769E+02 -0.29981712511E+03  0.33590999062E+03  0.41800000000E+01 0. -1.
         -5    1    3    3    0  502 -0.12488989079E+02  0.33062046904E+02 -0.18032544000E+03  0.18380372821E+03  0.41800000000E+01 0. -1.
        -11    1    1    2    0    0 -0.64536825690E+02 -0.39405682297E+02 -0.60504831952E+02  0.96843401205E+02  0.00000000000E+00 0.  1.
         11    1    1    2    0    0 -0.65875224327E+02 -0.43726654376E+02 -0.23325164194E+03  0.24628823348E+03  0.00000000000E+00 0. -1.
</event>
<event>
 7    1  0.3135999E-009  0.1294170E+03  0.7561462E-02  0.1228323E+00
          1   -1    0    0  501    0  0.00000000000E+00  0.00000000000E+00  0.68983946803E+03  0.68983946803E+03  0.00000000000E+00 0.  1.
         -1   -1    0    0    0  501 -0.00000000000E+00 -0.00000000000E+00 -0.31544225595E+02  0.31544225595E+02  0.00000000000E+00 0. -1.
         25    2    1    2    0    0  0.77656572049E+02  0.14954499663E+02  0.20773402981E+03  0.25505573524E+03  0.12508325506E+03 0.  0.
          5    1    3    3  502    0 -0.31308382629E+02  0.21953386836E+02  0.47737827099E+02  0.61306920919E+02  0.41800000000E+01 0. -1.
         -5    1    3    3    0  502  0.10896495468E+03 -0.69988871726E+01  0.15999620271E+03  0.19374881432E+03  0.41800000000E+01 0. -1.
        -11    1    1    2    0    0 -0.11619366949E+02 -0.39096554746E+02  0.87741161720E+02  0.96757747706E+02  0.00000000000E+00 0. -1.
         11    1    1    2    0    0 -0.66037205100E+02  0.24142055083E+02  0.36282005091E+03  0.36957021068E+03  0.00000000000E+00 0.  1.
</event>
<event>
 7    1  0.2648915E-009  0.1066533E+03  0.7561462E-02  0.1266896E+00
          2   -1    0    0  501    0  0.00000000000E+00  0.00000000000E+00  0.36897170071E+03  0.36897170071E+03  0.00000000000E+00 0. -1.
         -2   -1    0    0    0  501 -0.00000000000E+00 -0.00000000000E+00 -0.52834133873E+02  0.52834133873E+02  0.00000000000E+00 0.  1.
         25    2    1    2    0    0  0.64231257614E+02  0.22029986676E+01  0.99249592584E+02  0.17212953538E+03  0.12509031802E+03 0.  0.
          5    1    3    3  502    0  0.90802656681E+02  0.56710797727E+01  0.27055366674E+02  0.95009204144E+02  0.41800000000E+01 0. -1.
         -5    1    3    3    0  502 -0.26571399067E+02 -0.34680811051E+01  0.72194225910E+02  0.77120331234E+02  0.41800000000E+01 0. -1.
        -11    1    1    2    0    0 -0.15352734022E+02  0.31973520802E+02  0.13878464801E+02  0.38087061578E+02  0.00000000000E+00 0.  1.
         11    1    1    2    0    0 -0.48878523593E+02 -0.34176519470E+02  0.20300950945E+03  0.21158923763E+03  0.00000000000E+00 0. -1.
</event>
<event>
 7    1  0.2648915E-009  0.9676743E+02  0.7561462E-02  0.1287244E+00
          2   -1    0    0  501    0  0.00000000000E+00  0.00000000000E+00  0.66720829100E+03  0.66720829100E+03  0.00000000000E+00 0. -1.
         -2   -1    0    0    0  501 -0.00000000000E+00 -0.00000000000E+00 -0.18501909656E+02  0.18501909656E+02  0.00000000000E+00 0.  1.
         25    2    1    2    0    0  0.34869044110E+01  0.64110871782E+01  0.43230169572E+03  0.45009462528E+03  0.12508858879E+03 0.  0.
          5    1    3    3  502    0  0.47474958288E+02  0.31735344221E+02  0.33896877016E+03  0.34377071324E+03  0.41800000000E+01 0. -1.
         -5    1    3    3    0  502 -0.43988053877E+02 -0.25324257043E+02  0.93332925553E+02  0.10632391204E+03  0.41800000000E+01 0. -1.
        -11    1    1    2    0    0  0.24387129015E+02  0.30527582690E+02  0.14769334476E+03  0.15277430888E+03  0.00000000000E+00 0. -1.
         11    1    1    2    0    0 -0.27874033426E+02 -0.36938669869E+02  0.68711340865E+02  0.82841266495E+02  0.00000000000E+00 0.  1.
</event>
<event>
 7    1  0.2648915E-009  0.1277361E+03  0.7561462E-02  0.1230854E+00
         -1   -1    0    0    0  501 -0.00000000000E+00  0.00000000000E+00  0.12037784034E+03  0.12037784034E+03  0.00000000000E+00 0.  1.
          1   -1    0    0  501    0  0.00000000000E+00 -0.00000000000E+00 -0.15020028540E+03  0.15020028540E+03  0.00000000000E+00 0. -1.
         25    2    1    2    0    0 -0.80975878563E+01 -0.78752159966E+02 -0.17551259724E+02  0.14907317781E+03  0.12508913620E+03 0.  0.
          5    1    3    3  502    0  0.47400700679E+02 -0.62835433782E+02 -0.38232227431E+02  0.87603046624E+02  0.41800000000E+01 0.  1.
         -5    1    3    3    0  502 -0.55498288535E+02 -0.15916726183E+02  0.20680967707E+02  0.61470131186E+02  0.41800000000E+01 0.  1.
        -11    1    1    2    0    0  0.11678841476E+02 -0.18266382137E+02 -0.11225939901E+02  0.24414704202E+02  0.00000000000E+00 0.  1.
         11    1    1    2    0    0 -0.35812536195E+01  0.97018542103E+02 -0.10452454424E+01  0.97090243729E+02  0.00000000000E+00 0. -1.
</event>
<event>
 7    1  0.2648915E-009  0.1379705E+03  0.7561462E-02  0.1216086E+00
         -1   -1    0    0    0  501 -0.00000000000E+00  0.00000000000E+00  0.16315046635E+03  0.16315046635E+03  0.00000000000E+00 0.  1.
          1   -1    0    0  501    0  0.00000000000E+00 -0.00000000000E+00 -0.17321715060E+03  0.17321715060E+03  0.00000000000E+00 0. -1.
         25    2    1    2    0    0 -0.74983954768E+02  0.75383688489E+02 -0.76712010233E+02  0.18121192399E+03  0.12509090663E+03 0.  0.
          5    1    3    3  502    0  0.27630144829E+02  0.50115124085E+02 -0.17430602174E+02  0.59968732332E+02  0.41800000000E+01 0.  1.
         -5    1    3    3    0  502 -0.10261409960E+03  0.25268564404E+02 -0.59281408059E+02  0.12124319166E+03  0.41800000000E+01 0.  1.
        -11    1    1    2    0    0  0.42874977274E+02 -0.67117801986E+02 -0.11887590881E+01  0.79652220106E+02  0.00000000000E+00 0. -1.
         11    1    1    2    0    0  0.32108977493E+02 -0.82658865029E+01  0.67834085072E+02  0.75503472853E+02  0.00000000000E+00 0.  1.
</event>
<event>
 7    1  0.2648915E-009  0.1197378E+03  0.7561462E-02  0.1243530E+00
          1   -1    0    0  501    0  0.00000000000E+00  0.00000000000E+00  0.12392013363E+03  0.12392013363E+03  0.00000000000E+00 0. -1.
         -1   -1    0    0    0  501 -0.00000000000E+00 -0.00000000000E+00 -0.14723211057E+03  0.14723211057E+03  0.00000000000E+00 0.  1.
         25    2    1    2    0    0 -0.61061338515E+01  0.64307790171E+02  0.38101108041E+02  0.14584902694E+03  0.12508983763E+03 0.  0.
          5    1    3    3  502    0  0.27138412019E+01 -0.32698357298E+02 -0.13280176814E+02  0.35642432581E+02  0.41800000000E+01 0.  1.
         -5    1    3    3    0  502 -0.88199750534E+01  0.97006147469E+02  0.51381284855E+02  0.11020659436E+03  0.41800000000E+01 0.  1.
        -11    1    1    2    0    0  0.44717201024E+02 -0.51543181965E+02 -0.33813655349E+02  0.76155702101E+02  0.00000000000E+00 0.  1.
         11    1    1    2    0    0 -0.38611067173E+02 -0.12764608206E+02 -0.27599429626E+02  0.49147515162E+02  0.00000000000E+00 0. -1.
</event>
<event>
 7    1  0.2648915E-009  0.1210751E+03  0.7561462E-02  0.1241334E+00
          2   -1    0    0  501    0  0.00000000000E+00  0.00000000000E+00  0.11090359989E+03  0.11090359989E+03  0.00000000000E+00 0.  1.
         -2   -1    0    0    0  501 -0.00000000000E+00 -0.00000000000E+00 -0.28049911633E+03  0.28049911633E+03  0.00000000000E+00 0. -1.
         25    2    1    2    0    0 -0.70827711712E+02  0.73568270798E+02 -0.19519863159E+03  0.25333523749E+03  0.12508949423E+03 0.  0.
          5    1    3    3  502    0 -0.51073361432E+02  0.19655171586E+02 -0.18736060133E+03  0.19523391445E+03  0.41800000000E+01 0.  1.
         -5    1    3    3    0  502 -0.19754350280E+02  0.53913099212E+02 -0.78380302550E+01  0.58101323048E+02  0.41800000000E+01 0.  1.
        -11    1    1    2    0    0  0.24169279538E+02  0.15803457848E+02 -0.10868725309E+02  0.30855024602E+02  0.00000000000E+00 0. -1.
         11    1    1    2    0    0  0.46658432175E+02 -0.89371728646E+02  0.36471840457E+02  0.10721245413E+03  0.00000000000E+00 0.  1.
</event>
<event>
 7    1  0.2648915E-009  0.8183294E+02  0.7561462E-02  0.1323929E+00
         -3   -1    0    0    0  501 -0.00000000000E+00  0.00000000000E+00  0.52062314729E+02  0.52062314729E+02  0.00000000000E+00 0.  1.
          3   -1    0    0  501    0  0.00000000000E+00 -0.00000000000E+00 -0.20040879260E+03  0.20040879260E+03  0.00000000000E+00 0. -1.
         25    2    1    2    0    0 -0.10964250397E+02 -0.76826120138E+01 -0.12827146739E+03  0.17966640948E+03  0.12508881659E+03 0.  0.
          5    1    3    3  502    0 -0.61577477960E+02 -0.11916661858E+02 -0.31531630123E+02  0.70324311017E+02  0.41800000000E+01 0. -1.
         -5    1    3    3    0  502  0.50613227564E+02  0.42340498446E+01 -0.96739837263E+02  0.10934209846E+03  0.41800000000E+01 0. -1.
        -11    1    1    2    0    0 -0.18996112814E+02  0.56374376311E+01  0.16284029779E+02  0.25647663264E+02  0.00000000000E+00 0.  1.
         11    1    1    2    0    0  0.29960363211E+02  0.20451743826E+01 -0.36359040266E+02  0.47157034587E+02  0.00000000000E+00 0. -1.
</event>
<event>
 7    1  0.2648915E-009  0.9443042E+02  0.7561462E-02  0.1292464E+00
          2   -1    0    0  501    0  0.00000000000E+00  0.00000000000E+00  0.35143269427E+03  0.35143269427E+03  0.00000000000E+00 0. -1.
         -2   -1    0    0    0  501 -0.00000000000E+00 -0.00000000000E+00 -0.56400169697E+02  0.56400169697E+02  0.00000000000E+00 0.  1.
         25    2    1    2    0    0 -0.34179621428E+02  0.39169926919E+02  0.54745484534E+02  0.14610562610E+03  0.12508899314E+03 0.  0.
          5    1    3    3  502    0  0.19866921595E+02  0.18223137092E+02 -0.31775007484E+02  0.41879598849E+02  0.41800000000E+01 0.  1.
         -5    1    3    3    0  502 -0.54046543023E+02  0.20946789827E+02  0.86520492018E+02  0.10422602725E+03  0.41800000000E+01 0.  1.
        -11    1    1    2    0    0  0.27169585163E+02 -0.68299124256E+02  0.16170279276E+03  0.17762530765E+03  0.00000000000E+00 0.  1.
         11    1    1    2    0    0  0.70100362646E+01  0.29129197337E+02  0.78584247275E+02  0.84101930213E+02  0.00000000000E+00 0. -1.
</event>
<event>
 7    1  0.2648915E-009  0.1899172E+03  0.7561462E-02  0.1158536E+00
          2   -1    0    0  501    0  0.00000000000E+00  0.00000000000E+00  0.13606805014E+04  0.13606805014E+04  0.00000000000E+00 0. -1.
         -2   -1    0    0    0  501 -0.00000000000E+00 -0.00000000000E+00 -0.31728266529E+02  0.31728266529E+02  0.00000000000E+00 0.  1.
         25    2    1    2    0    0 -0.70008243545E+02  0.15772687137E+03  0.82366514491E+03  0.85079387851E+03  0.12508809957E+03 0.  0.
          5    1    3    3  502    0 -0.86947857059E+02  0.80025585364E+02  0.32566865974E+03  0.34647016105E+03  0.41800000000E+01 0. -1.
         -5    1    3    3    0  502  0.16939613515E+02  0.77701286006E+02  0.49799648517E+03  0.50432371746E+03  0.41800000000E+01 0. -1.
        -11    1    1    2    0    0  0.30025977043E+02 -0.14674412907E+02  0.19215755689E+03  0.19504210920E+03  0.00000000000E+00 0. -1.
         11    1    1    2    0    0  0.39982266502E+02 -0.14305245846E+03  0.31312953306E+03  0.34657278021E+03  0.00000000000E+00 0.  1.
</event>
<event>
 7    1  0.2648915E-009  0.1197872E+03  0.7561462E-02  0.1243449E+00
         -3   -1    0    0    0  501 -0.00000000000E+00  0.00000000000E+00  0.37287342495E+03  0.37287342495E+03  0.00000000000E+00 0.  1.
          3   -1    0    0  501    0  0.00000000000E+00 -0.00000000000E+00 -0.80159409139E+02  0.80159409139E+02  0.00000000000E+00 0. -1.
         25    2    1    2    0    0  0.84902960131E+02  0.11290576628E+02  0.20325113761E+02  0.15295936717E+03  0.12508983970E+03 0.  0.
          5    1    3    3  502    0  0.68217840773E+02  0.64553851065E+02  0.18957626588E+01  0.94031589389E+02  0.41800000000E+01 0.  1.
         -5    1    3    3    0  502  0.16685119358E+02 -0.53263274437E+02  0.18429351103E+02  0.58927777777E+02  0.41800000000E+01 0.  1.
        -11    1    1    2    0    0 -0.47247258660E+02  0.69386806239E+01  0.24603976159E+03  0.25063122915E+03  0.00000000000E+00 0.  1.
         11    1    1    2    0    0 -0.37655701471E+02 -0.18229257252E+02  0.26349140454E+02  0.49442237772E+02  0.00000000000E+00 0. -1.
</event>
<event>
 7    1  0.2648915E-009  0.1017155E+03  0.7561462E-02  0.1276729E+00
          1   -1    0    0  501    0  0.00000000000E+00  0.00000000000E+00  0.61818812829E+02  0.61818812829E+02  0.00000000000E+00 0. -1.
         -1   -1    0    0    0  501 -0.00000000000E+00 -0.00000000000E+00 -0.24864054599E+03  0.24864054599E+03  0.00000000000E+00 0.  1.
         25    2    1    2    0    0 -0.28290245244E+02 -0.51631695267E+02 -0.84305754686E+02  0.16193047381E+03  0.12509135919E+03 0.  0.
          5    1    3    3  502    0 -0.52724433135E+02 -0.71015585041E+02 -0.93867994912E+02  0.12904166783E+03  0.41800000000E+01 0. -1.
         -5    1    3    3    0  502  0.24434187891E+02  0.19383889774E+02  0.95622402260E+01  0.32888805980E+02  0.41800000000E+01 0. -1.
        -11    1    1    2    0    0 -0.12992054224E+02  0.37652911799E+02 -0.96669203810E+02  0.10455367141E+03  0.00000000000E+00 0.  1.
         11    1    1    2    0    0  0.41282299468E+02  0.13978783468E+02 -0.58467746612E+01  0.43975213593E+02  0.00000000000E+00 0. -1.
</event>
<event>
 7    1  0.2648915E-009  0.1729241E+03  0.7561462E-02  0.1174832E+00
         -1   -1    0    0    0  501 -0.00000000000E+00  0.00000000000E+00  0.10364697998E+03  0.10364697998E+03  0.00000000000E+00 0.  1.
          1   -1    0    0  501    0  0.00000000000E+00 -0.00000000000E+00 -0.37179290463E+03  0.37179290463E+03  0.00000000000E+00 0. -1.
         25    2    1    2    0    0  0.12880591024E+02 -0.16054704388E+03 -0.10484706823E+03  0.22929905650E+03  0.12507552387E+03 0.  0.
          5    1    3    3  502    0  0.15039227330E+02 -0.72422386600E+02 -0.11874546129E+03  0.13996119968E+03  0.41800000000E+01 0.  1.
         -5    1    3    3    0  502 -0.21586363059E+01 -0.88124657282E+02  0.13898393056E+02  0.89337856820E+02  0.41800000000E+01 0.  1.
        -11    1    1    2    0    0  0.26905007887E+02  0.13157075427E+03 -0.11001290924E+03  0.17360179443E+03  0.00000000000E+00 0.  1.
         11    1    1    2    0    0 -0.39785598912E+02  0.28976289610E+02 -0.53285947177E+02  0.72539033678E+02  0.00000000000E+00 0. -1.
</event>
<event>
 7    1  0.2648915E-009  0.1175314E+03  0.7561462E-02  0.1247226E+00
         -2   -1    0    0    0  501 -0.00000000000E+00  0.00000000000E+00  0.22514436371E+03  0.22514436371E+03  0.00000000000E+00 0.  1.
          2   -1    0    0  501    0  0.00000000000E+00 -0.00000000000E+00 -0.97130486274E+02  0.97130486274E+02  0.00000000000E+00 0. -1.
         25    2    1    2    0    0 -0.25795943385E+02  0.97220394702E+02  0.59867775592E+02  0.17132692856E+03  0.12510607521E+03 0.  0.
          5    1    3    3  502    0 -0.12569436504E+01  0.84098991180E+02  0.94582907273E+02  0.12663972115E+03  0.41800000000E+01 0. -1.
         -5    1    3    3    0  502 -0.24538999734E+02  0.13121403522E+02 -0.34715131681E+02  0.44687207408E+02  0.41800000000E+01 0. -1.
        -11    1    1    2    0    0  0.25667402230E+02 -0.10846781172E+03  0.77959050329E+02  0.13602093679E+03  0.00000000000E+00 0.  1.
         11    1    1    2    0    0  0.12854115469E+00  0.11247417014E+02 -0.98129484890E+01  0.14926984637E+02  0.00000000000E+00 0. -1.
</event>
<event>
 7    1  0.2648915E-009  0.6439568E+02  0.7561462E-02  0.1380259E+00
         -1   -1    0    0    0  501 -0.00000000000E+00  0.00000000000E+00  0.13476520242E+03  0.13476520242E+03  0.00000000000E+00 0. -1.
          1   -1    0    0  501    0  0.00000000000E+00 -0.00000000000E+00 -0.94462637521E+02  0.94462637521E+02  0.00000000000E+00 0.  1.
         25    2    1    2    0    0  0.21916274816E+02  0.26141765415E+02  0.16447931190E+02  0.13069203552E+03  0.12508460620E+03 0.  0.
          5    1    3    3  502    0 -0.86587327627E+01  0.14466509926E+01  0.66336001773E+02  0.67044790874E+02  0.41800000000E+01 0.  1.
         -5    1    3    3    0  502  0.30575007579E+02  0.24695114422E+02 -0.49888070583E+02  0.63647244648E+02  0.41800000000E+01 0.  1.
        -11    1    1    2    0    0  0.14694647264E+02  0.17322374540E+02  0.33919134208E+02  0.40822848790E+02  0.00000000000E+00 0. -1.
         11    1    1    2    0    0 -0.36610922080E+02 -0.43464139955E+02 -0.10064500495E+02  0.57712955632E+02  0.00000000000E+00 0.  1.
</event>
<event>
 7    1  0.2648915E-009  0.1252026E+03  0.7561462E-02  0.1234753E+00
         -2   -1    0    0    0  501 -0.00000000000E+00  0.00000000000E+00  0.66768500539E+02  0.66768500539E+02  0.00000000000E+00 0. -1.
          2   -1    0    0  501    0  0.00000000000E+00 -0.00000000000E+00 -0.30116081334E+03  0.30116081334E+03  0.00000000000E+00 0.  1.
         25    2    1    2    0    0 -0.70362682573E+02 -0.57412877243E+02 -0.13398176400E+03  0.20456231880E+03  0.12508990214E+03 0.  0.
          5    1    3    3  502    0  0.21816730725E+02 -0.14417076895E+02  0.99320099410E+01  0.28283194077E+02  0.41800000000E+01 0. -1.
         -5    1    3    3    0  502 -0.92179413298E+02 -0.42995800348E+02 -0.14391377394E+03  0.17627912472E+03  0.41800000000E+01 0. -1.
        -11    1    1    2    0    0  0.17757616503E+02  0.66420160223E+02 -0.81773881168E+02  0.10683603451E+03  0.00000000000E+00 0. -1.
         11    1    1    2    0    0  0.52605066070E+02 -0.90072829806E+01 -0.18636667637E+02  0.56530960575E+02  0.00000000000E+00 0.  1.
</event>
<event>
 7    1  0.2648915E-009  0.8818213E+02  0.7561462E-02  0.1307315E+00
         -1   -1    0    0    0  501 -0.00000000000E+00  0.00000000000E+00  0.40839078816E+03  0.40839078816E+03  0.00000000000E+00 0.  1.
          1   -1    0    0  501    0  0.00000000000E+00 -0.00000000000E+00 -0.28734170900E+02  0.28734170900E+02  0.00000000000E+00 0. -1.
         25    2    1    2    0    0  0.13278701542E+01 -0.15313656771E+02  0.19889129011E+03  0.23546096868E+03  0.12509137128E+03 0.  0.
          5    1    3    3  502    0 -0.58222310699E+02 -0.26077529256E+02  0.84255582898E+02  0.10576554564E+03  0.41800000000E+01 0. -1.
         -5    1    3    3    0  502  0.59550180853E+02  0.10763872485E+02  0.11463570721E+03  0.12969542304E+03  0.41800000000E+01 0. -1.
        -11    1    1    2    0    0 -0.23634619791E+01 -0.18144788540E+02  0.48737086176E+00  0.18304557739E+02  0.00000000000E+00 0. -1.
         11    1    1    2    0    0  0.10355918249E+01  0.33458445311E+02  0.18027795629E+03  0.18335943264E+03  0.00000000000E+00 0.  1.
</event>
<event>
 7    1  0.2648915E-009  0.1476015E+03  0.7561462E-02  0.1203452E+00
         -1   -1    0    0    0  501 -0.00000000000E+00  0.00000000000E+00  0.47260401103E+03  0.47260401103E+03  0.00000000000E+00 0.  1.
          1   -1    0    0  501    0  0.00000000000E+00 -0.00000000000E+00 -0.56631107503E+02  0.56631107503E+02  0.00000000000E+00 0. -1.
         25    2    1    2    0    0  0.67503793425E+02  0.80317967803E+02  0.31741012131E+03  0.35693763294E+03  0.12509016995E+03 0.  0.
          5    1    3    3  502    0  0.10036340532E+03  0.69031150224E+02  0.19801697186E+03  0.23252162561E+03  0.41800000000E+01 0.  1.
         -5    1    3    3    0  502 -0.32859611896E+02  0.11286817579E+02  0.11939314945E+03  0.12441600733E+03  0.41800000000E+01 0.  1.
        -11    1    1    2    0    0 -0.75862533885E+02 -0.21408619154E+02  0.38396623633E+02  0.87679836496E+02  0.00000000000E+00 0. -1.
         11    1    1    2    0    0  0.83587404598E+01 -0.58909348649E+02  0.60166158580E+02  0.84617649097E+02  0.00000000000E+00 0.  1.
</event>
<event>
 7    1  0.2648915E-009  0.1200165E+03  0.7561462E-02  0.1243070E+00
         -2   -1    0    0    0  501 -0.00000000000E+00  0.00000000000E+00  0.28135069234E+03  0.28135069234E+03  0.00000000000E+00 0.  1.
          2   -1    0    0  501    0  0.00000000000E+00 -0.00000000000E+00 -0.56404868122E+02  0.56404868122E+02  0.00000000000E+00 0. -1.
         25    2    1    2    0    0 -0.19065296509E+02 -0.54522818403E+02  0.99242594725E+02  0.16980287911E+03  0.12509077459E+03 0.  0.
          5    1    3    3  502    0 -0.63623792544E+02 -0.64672965052E+02  0.55680277436E+02  0.10652861156E+03  0.41800000000E+01 0.  1.
         -5    1    3    3    0  502  0.44558496035E+02  0.10150146649E+02  0.43562317289E+02  0.63274267546E+02  0.41800000000E+01 0.  1.
        -11    1    1    2    0    0 -0.27615368805E+02  0.49094366787E+02  0.36479219046E+02  0.67108858332E+02  0.00000000000E+00 0. -1.
         11    1    1    2    0    0  0.46680665314E+02  0.54284516161E+01  0.89224010442E+02  0.10084382302E+03  0.00000000000E+00 0.  1.
</event>
<event>
 7    1  0.2648915E-009  0.1220346E+03  0.7561462E-02  0.1239778E+00
          2   -1    0    0  501    0  0.00000000000E+00  0.00000000000E+00  0.11227785726E+03  0.11227785726E+03  0.00000000000E+00 0. -1.
         -2   -1    0    0    0  501 -0.00000000000E+00 -0.00000000000E+00 -0.16556412531E+03  0.16556412531E+03  0.00000000000E+00 0.  1.
         25    2    1    2    0    0  0.66349488670E+02 -0.38344695287E+02 -0.61936020910E+02  0.15923689713E+03  0.12509096058E+03 0.  0.
          5    1    3    3  502    0 -0.14252572813E+02 -0.58996678478E+02 -0.40911795046E+02  0.73314332004E+02  0.41800000000E+01 0.  1.
         -5    1    3    3    0  502  0.80602061483E+02  0.20651983192E+02 -0.21024225864E+02  0.85922565128E+02  0.41800000000E+01 0.  1.
        -11    1    1    2    0    0 -0.67406669480E+02  0.61256593264E+01 -0.24861256253E+02  0.72105928016E+02  0.00000000000E+00 0.  1.
         11    1    1    2    0    0  0.10571808104E+01  0.32219035960E+02  0.33511009108E+02  0.46499157422E+02  0.00000000000E+00 0. -1.
</event>
<event>
 7    1  0.2648915E-009  0.1122589E+03  0.7561462E-02  0.1256443E+00
         -1   -1    0    0    0  501 -0.00000000000E+00  0.00000000000E+00  0.45650895316E+02  0.45650895316E+02  0.00000000000E+00 0.  1.
          1   -1    0    0  501    0  0.00000000000E+00 -0.00000000000E+00 -0.36357724946E+03  0.36357724946E+03  0.00000000000E+00 0. -1.
         25    2    1    2    0    0  0.57583889842E+02  0.29397609311E+02 -0.25504321072E+03  0.29133008672E+03  0.12508419683E+03 0.  0.
          5    1    3    3  502    0  0.87783797449E+02  0.55272323672E+00 -0.21911096798E+03  0.23607920130E+03  0.41800000000E+01 0.  1.
         -5    1    3    3    0  502 -0.30199907607E+02  0.28844886074E+02 -0.35932242740E+02  0.55250885426E+02  0.41800000000E+01 0.  1.
        -11    1    1    2    0    0  0.15001206233E+02  0.27934547449E+01 -0.26448845512E+02  0.30534914554E+02  0.00000000000E+00 0. -1.
         11    1    1    2    0    0 -0.72585096075E+02 -0.32191064056E+02 -0.36434297913E+02  0.87363143497E+02  0.00000000000E+00 0.  1.
</event>
<event>
 7    1  0.2648915E-009  0.1000083E+03  0.7561462E-02  0.1280278E+00
          2   -1    0    0  501    0  0.00000000000E+00  0.00000000000E+00  0.10573193897E+04  0.10573193897E+04  0.00000000000E+00 0. -1.
         -2   -1    0    0    0  501 -0.00000000000E+00 -0.00000000000E+00 -0.13935650232E+02  0.13935650232E+02  0.00000000000E+00 0.  1.
         25    2    1    2    0    0 -0.41131248772E+02  0.16053368427E+02  0.71409980766E+03  0.72631742326E+03  0.12509585831E+03 0.  0.
          5    1    3    3  502    0  0.19578378496E+02  0.37634601676E+02  0.98339000108E+02  0.10718072350E+03  0.41800000000E+01 0. -1.
         -5    1    3    3    0  502 -0.60709627269E+02 -0.21581233249E+02  0.61576080755E+03  0.61913669976E+03  0.41800000000E+01 0. -1.
        -11    1    1    2    0    0  0.24027346883E+02 -0.49629678104E+02  0.11708755112E+03  0.12942145484E+03  0.00000000000E+00 0.  1.
         11    1    1    2    0    0  0.17103901889E+02  0.33576309677E+02  0.21219638071E+03  0.21551616185E+03  0.00000000000E+00 0. -1.
</event>
<event>
 7    1  0.2648915E-009  0.1064724E+03  0.7561462E-02  0.1267245E+00
          1   -1    0    0  501    0  0.00000000000E+00  0.00000000000E+00  0.42472033010E+03  0.42472033010E+03  0.00000000000E+00 0. -1.
         -1   -1    0    0    0  501 -0.00000000000E+00 -0.00000000000E+00 -0.29255674583E+02  0.29255674583E+02  0.00000000000E+00 0.  1.
         25    2    1    2    0    0  0.28232689173E+02 -0.17167985244E+02  0.26015481508E+03  0.29055166101E+03  0.12509162823E+03 0.  0.
          5    1    3    3  502    0 -0.42654290006E+02 -0.25667925494E+02  0.60414420739E+02  0.78393912316E+02  0.41800000000E+01 0.  1.
         -5    1    3    3    0  502  0.70886979178E+02  0.84999402503E+01  0.19974039434E+03  0.21215774870E+03  0.41800000000E+01 0.  1.
        -11    1    1    2    0    0 -0.57047326908E+02 -0.16229405644E+01  0.89235831187E+02  0.10592480829E+03  0.00000000000E+00 0. -1.
         11    1    1    2    0    0  0.28814637735E+02  0.18790925808E+02  0.46074009253E+02  0.57499535382E+02  0.00000000000E+00 0.  1.
</event>
<event>
 7    1  0.2648915E-009  0.1148339E+03  0.7561462E-02  0.1251871E+00
         -4   -1    0    0    0  501 -0.00000000000E+00  0.00000000000E+00  0.36717139354E+03  0.36717139354E+03  0.00000000000E+00 0.  1.
          4   -1    0    0  501    0  0.00000000000E+00 -0.00000000000E+00 -0.47526190949E+02  0.47526190949E+02  0.00000000000E+00 0. -1.
         25    2    1    2    0    0 -0.73013775867E+02 -0.15293790053E+02  0.18694919928E+03  0.23698745433E+03  0.12509252143E+03 0.  0.
          5    1    3    3  502    0  0.18438230796E+02  0.81134280603E+01 -0.65979688072E+01  0.21605593307E+02  0.41800000000E+01 0. -1.
         -5    1    3    3    0  502 -0.91452006663E+02 -0.23407218113E+02  0.19354716809E+03  0.21538186102E+03  0.41800000000E+01 0. -1.
        -11    1    1    2    0    0 -0.78829594921E+01 -0.23570418853E+02  0.12834171917E+02  0.27971801230E+02  0.00000000000E+00 0. -1.
         11    1    1    2    0    0  0.80896735359E+02  0.38864208906E+02  0.11986183139E+03  0.14973832893E+03  0.00000000000E+00 0.  1.
</event>
<event>
 7    1  0.2648915E-009  0.1090517E+03  0.7561462E-02  0.1262336E+00
          2   -1    0    0  501    0  0.00000000000E+00  0.00000000000E+00  0.16737995287E+03  0.16737995287E+03  0.00000000000E+00 0. -1.
         -2   -1    0    0    0  501 -0.00000000000E+00 -0.00000000000E+00 -0.85914054423E+02  0.85914054423E+02  0.00000000000E+00 0.  1.
         25    2    1    2    0    0  0.42890371056E+02  0.47157753277E+01  0.73926845119E+02  0.15157065710E+03  0.12508662278E+03 0.  0.
          5    1    3    3  502    0  0.69213777921E+02  0.37042720677E+02  0.76369818885E+02  0.10960169636E+03  0.41800000000E+01 0. -1.
         -5    1    3    3    0  502 -0.26323406865E+02 -0.32326945349E+02 -0.24429737660E+01  0.41968960738E+02  0.41800000000E+01 0. -1.
        -11    1    1    2    0    0  0.17802818428E+02 -0.27502526986E+02  0.15794160746E+02  0.36370109270E+02  0.00000000000E+00 0. -1.
         11    1    1    2    0    0 -0.60693189485E+02  0.22786751658E+02 -0.82551074158E+01  0.65353240925E+02  0.00000000000E+00 0.  1.
</event>
<event>
 7    1  0.2648915E-009  0.1032382E+03  0.7561462E-02  0.1273630E+00
         -2   -1    0    0    0  501 -0.00000000000E+00  0.00000000000E+00  0.36387074003E+02  0.36387074003E+02  0.00000000000E+00 0.  1.
          2   -1    0    0  501    0  0.00000000000E+00 -0.00000000000E+00 -0.32796799842E+03  0.32796799842E+03  0.00000000000E+00 0. -1.
         25    2    1    2    0    0  0.24153061833E+01  0.54278482475E+01 -0.19307701552E+03  0.23013416058E+03  0.12509077786E+03 0.  0.
          5    1    3    3  502    0 -0.35857795907E+02 -0.46581960356E+02 -0.73889808729E+02  0.94513685738E+02  0.41800000000E+01 0.  1.
         -5    1    3    3    0  502  0.38273102090E+02  0.52009808603E+02 -0.11918720679E+03  0.13562047484E+03  0.41800000000E+01 0.  1.
        -11    1    1    2    0    0  0.14535351440E+02  0.35594064180E+02 -0.18359328875E+02  0.42606088803E+02  0.00000000000E+00 0.  1.
         11    1    1    2    0    0 -0.16950657623E+02 -0.41021912428E+02 -0.80144580027E+02  0.91614823041E+02  0.00000000000E+00 0. -1.
</event>
<event>
 7    1  0.2648915E-009  0.7485798E+02  0.7561462E-02  0.1344311E+00
          2   -1    0    0  501    0  0.00000000000E+00  0.00000000000E+00  0.44340170966E+02  0.44340170966E+02  0.00000000000E+00 0.  1.
         -2   -1    0    0    0  501 -0.00000000000E+00 -0.00000000000E+00 -0.29229744804E+03  0.29229744804E+03  0.00000000000E+00 0. -1.
         25    2    1    2    0    0  0.38473436088E+01  0.89457396876E+01 -0.91385015660E+02  0.15522258586E+03  0.12509197321E+03 0.  0.
          5    1    3    3  502    0 -0.44416718441E+02  0.22524017407E+02 -0.92234229334E+02  0.10490377352E+03  0.41800000000E+01 0. -1.
         -5    1    3    3    0  502  0.48264062049E+02 -0.13578277719E+02  0.84921367430E+00  0.50318812339E+02  0.41800000000E+01 0. -1.
        -11    1    1    2    0    0 -0.19311176624E+02  0.12488594010E+02 -0.37828616410E+00  0.23000643977E+02  0.00000000000E+00 0.  1.
         11    1    1    2    0    0  0.15463833015E+02 -0.21434333697E+02 -0.15619397525E+03  0.15841438917E+03  0.00000000000E+00 0. -1.
</event>
<event>
 7    1  0.2648915E-009  0.1963342E+03  0.7561462E-02  0.1152869E+00
         -1   -1    0    0    0  501 -0.00000000000E+00  0.00000000000E+00  0.28731891219E+02  0.28731891219E+02  0.00000000000E+00 0.  1.
          1   -1    0    0  501    0  0.00000000000E+00 -0.00000000000E+00 -0.15639785745E+04  0.15639785745E+04  0.00000000000E+00 0. -1.
         25    2    1    2    0    0  0.13980255277E+03 -0.11375923109E+03 -0.88094070898E+03  0.90784943644E+03  0.12509256609E+03 0.  0.
          5    1    3    3  502    0 -0.18420290044E+02 -0.10781495604E+02 -0.35948695092E+02  0.42015816207E+02  0.41800000000E+01 0.  1.
         -5    1    3    3    0  502  0.15822284282E+03 -0.10297773548E+03 -0.84499201389E+03  0.86583362023E+03  0.41800000000E+01 0.  1.
        -11    1    1    2    0    0 -0.91173230937E+02  0.57786749470E+02 -0.52339678640E+03  0.53441188466E+03  0.00000000000E+00 0. -1.
         11    1    1    2    0    0 -0.48629321837E+02  0.55972481618E+02 -0.13090918795E+03  0.15044914467E+03  0.00000000000E+00 0.  1.
</event>
<event>
 7    1  0.2648915E-009  0.2783491E+03  0.7561462E-02  0.1096594E+00
          2   -1    0    0  501    0  0.00000000000E+00  0.00000000000E+00  0.12804235081E+04  0.12804235081E+04  0.00000000000E+00 0. -1.
         -2   -1    0    0    0  501 -0.00000000000E+00 -0.00000000000E+00 -0.73348290689E+02  0.73348290689E+02  0.00000000000E+00 0.  1.
         25    2    1    2    0    0  0.12845073558E+03 -0.23917796850E+03  0.81634224116E+03  0.86934890236E+03  0.12508863752E+03 0.  0.
          5    1    3    3  502    0  0.12012182160E+03 -0.21166484315E+03  0.79958418077E+03  0.83581313245E+03  0.41800000000E+01 0. -1.
         -5    1    3    3    0  502  0.83289139813E+01 -0.27513125352E+02  0.16758060394E+02  0.33535769902E+02  0.41800000000E+01 0. -1.
        -11    1    1    2    0    0 -0.12586040068E+03  0.15341255164E+03  0.29860267909E+03  0.35852449208E+03  0.00000000000E+00 0.  1.
         11    1    1    2    0    0 -0.25903349028E+01  0.85765416864E+02  0.92130297150E+02  0.12589840435E+03  0.00000000000E+00 0. -1.
</event>
<event>
 7    1  0.2648915E-009  0.1360680E+03  0.7561462E-02  0.1218720E+00
          1   -1    0    0  501    0  0.00000000000E+00  0.00000000000E+00  0.89286530646E+03  0.89286530646E+03  0.00000000000E+00 0. -1.
         -1   -1    0    0    0  501 -0.00000000000E+00 -0.00000000000E+00 -0.35454240096E+02  0.35454240096E+02  0.00000000000E+00 0.  1.
         25    2    1    2    0    0  0.81172964398E+02 -0.83725370698E+02  0.24738232658E+03  0.30074186459E+03  0.12509462725E+03 0.  0.
          5    1    3    3  502    0  0.42757742276E+01  0.14899832215E+02 -0.67948053152E+01  0.17433560295E+02  0.41800000000E+01 0. -1.
         -5    1    3    3    0  502  0.76897190170E+02 -0.98625202913E+02  0.25417713189E+03  0.28330830429E+03  0.41800000000E+01 0. -1.
        -11    1    1    2    0    0 -0.25594709220E+01  0.41758661897E+02  0.81729836757E+02  0.91815592092E+02  0.00000000000E+00 0.  1.
         11    1    1    2    0    0 -0.78613493476E+02  0.41966708801E+02  0.52829890303E+03  0.53576208987E+03  0.00000000000E+00 0. -1.
</event>
<event>
 7    1  0.2648915E-009  0.1184603E+03  0.7561462E-02  0.1245659E+00
         -1   -1    0    0    0  501 -0.00000000000E+00  0.00000000000E+00  0.58369879379E+02  0.58369879379E+02  0.00000000000E+00 0.  1.
          1   -1    0    0  501    0  0.00000000000E+00 -0.00000000000E+00 -0.25182826931E+03  0.25182826931E+03  0.00000000000E+00 0. -1.
         25    2    1    2    0    0 -0.39131688018E+02 -0.34306873982E+02 -0.97119051858E+02  0.16669636487E+03  0.12508923702E+03 0.  0.
          5    1    3    3  502    0  0.40565101670E+02 -0.32211403934E+02 -0.57729142149E+02  0.77673858345E+02  0.41800000000E+01 0. -1.
         -5    1    3    3    0  502 -0.79696789688E+02 -0.20954700481E+01 -0.39389909709E+02  0.89022506526E+02  0.41800000000E+01 0. -1.
        -11    1    1    2    0    0  0.42893168636E+02 -0.22330385867E+02 -0.33535677785E+02  0.58848209260E+02  0.00000000000E+00 0. -1.
         11    1    1    2    0    0 -0.37614806189E+01  0.56637259849E+02 -0.62803660285E+02  0.84653574555E+02  0.00000000000E+00 0.  1.
</event>
<event>
 7    1  0.2648915E-009  0.1133141E+03  0.7561462E-02  0.1254553E+00
         -4   -1    0    0    0  501 -0.00000000000E+00  0.00000000000E+00  0.15358614707E+03  0.15358614707E+03  0.00000000000E+00 0. -1.
          4   -1    0    0  501    0  0.00000000000E+00 -0.00000000000E+00 -0.14327825559E+03  0.14327825559E+03  0.00000000000E+00 0.  1.
         25    2    1    2    0    0  0.41798001484E+02 -0.58723445801E+02 -0.66028073987E+02  0.15875271108E+03  0.12508877131E+03 0.  0.
          5    1    3    3  502    0 -0.23470562684E+02  0.25640823972E+02 -0.29951669280E+02  0.46074874491E+02  0.41800000000E+01 0. -1.
         -5    1    3    3    0  502  0.65268564168E+02 -0.84364269773E+02 -0.36076404707E+02  0.11267783659E+03  0.41800000000E+01 0. -1.
        -11    1    1    2    0    0 -0.17215772664E+02 -0.38504830922E+01 -0.16052473541E+02  0.23851435077E+02  0.00000000000E+00 0.  1.
         11    1    1    2    0    0 -0.24582228820E+02  0.62573928893E+02  0.92388439014E+02  0.11426025649E+03  0.00000000000E+00 0. -1.
</event>
<event>
 7    1  0.2648915E-009  0.1529587E+03  0.7561462E-02  0.1196884E+00
          2   -1    0    0  501    0  0.00000000000E+00  0.00000000000E+00  0.50592053659E+03  0.50592053659E+03  0.00000000000E+00 0. -1.
         -2   -1    0    0    0  501 -0.00000000000E+00 -0.00000000000E+00 -0.52623972829E+02  0.52623972829E+02  0.00000000000E+00 0.  1.
         25    2    1    2    0    0  0.54581418706E+02 -0.98134960366E+02  0.16362005455E+03  0.23458174962E+03  0.12508986086E+03 0.  0.
          5    1    3    3  502    0 -0.27098127134E+02 -0.79220034001E+02  0.89016034222E+02  0.12227611799E+03  0.41800000000E+01 0. -1.
         -5    1    3    3    0  502  0.81679545839E+02 -0.18914926366E+02  0.74604020325E+02  0.11230563163E+03  0.41800000000E+01 0. -1.
        -11    1    1    2    0    0 -0.54289364928E+02  0.11189957209E+03  0.28197766860E+03  0.30818866781E+03  0.00000000000E+00 0. -1.
         11    1    1    2    0    0 -0.29205377721E+00 -0.13764611719E+02  0.76988406077E+01  0.15774091983E+02  0.00000000000E+00 0.  1.
</event>
<event>
 7    1  0.2648915E-009  0.1255589E+03  0.7561462E-02  0.1234198E+00
         -1   -1    0    0    0  501 -0.00000000000E+00  0.00000000000E+00  0.34707482995E+02  0.34707482995E+02  0.00000000000E+00 0.  1.
          1   -1    0    0  501    0  0.00000000000E+00 -0.00000000000E+00 -0.55871532562E+03  0.55871532562E+03  0.00000000000E+00 0. -1.
         25    2    1    2    0    0 -0.75636291261E+02  0.33291975115E+02 -0.22774052838E+03  0.27265843965E+03  0.12509065626E+03 0.  0.
          5    1    3    3  502    0  0.33230244055E+02  0.81198703538E+01 -0.82135000156E+02  0.89071948812E+02  0.41800000000E+01 0.  1.
         -5    1    3    3    0  502 -0.10886653532E+03  0.25172104762E+02 -0.14560552822E+03  0.18358649084E+03  0.41800000000E+01 0.  1.
        -11    1    1    2    0    0 -0.97284604858E+01 -0.14448854134E+02 -0.73410026209E+01  0.18902450865E+02  0.00000000000E+00 0.  1.
         11    1    1    2    0    0  0.85364751747E+02 -0.18843120981E+02 -0.28892631162E+03  0.30186191809E+03  0.00000000000E+00 0. -1.
</event>
<event>
 7    1  0.2648915E-009  0.1876969E+03  0.7561462E-02  0.1160555E+00
         -1   -1    0    0    0  501 -0.00000000000E+00  0.00000000000E+00  0.86213156849E+02  0.86213156849E+02  0.00000000000E+00 0.  1.
          1   -1    0    0  501    0  0.00000000000E+00 -0.00000000000E+00 -0.44389847332E+03  0.44389847332E+03  0.00000000000E+00 0. -1.
         25    2    1    2    0    0 -0.67554491665E+02 -0.13971400239E+03 -0.12118406828E+03  0.23327652657E+03  0.12509495448E+03 0.  0.
          5    1    3    3  502    0 -0.71087865878E+02 -0.13241092507E+02 -0.50384040551E+02  0.88231712826E+02  0.41800000000E+01 0.  1.
         -5    1    3    3    0  502  0.35333742128E+01 -0.12647290988E+03 -0.70800027730E+02  0.14504481375E+03  0.41800000000E+01 0.  1.
        -11    1    1    2    0    0 -0.19680936168E+02  0.18352233575E+02 -0.19043492944E+02  0.32966624777E+02  0.00000000000E+00 0.  1.
         11    1    1    2    0    0  0.87235427834E+02  0.12136176882E+03 -0.21745775525E+03  0.26386847883E+03  0.00000000000E+00 0. -1.
</event>
<event>
 7    1  0.2648915E-009  0.1944642E+03  0.7561462E-02  0.1154495E+00
          1   -1    0    0  501    0  0.00000000000E+00  0.00000000000E+00  0.52187343901E+03  0.52187343901E+03  0.00000000000E+00 0. -1.
         -1   -1    0    0    0  501 -0.00000000000E+00 -0.00000000000E+00 -0.11737131643E+03  0.11737131643E+03  0.00000000000E+00 0.  1.
         25    2    1    2    0    0  0.15290579729E+03 -0.10348916477E+03  0.49049247561E+02  0.22835079943E+03  0.12509224134E+03 0.  0.
          5    1    3    3  502    0  0.97637345563E+02 -0.22854091269E+02 -0.27562171245E+02  0.10407932753E+03  0.41800000000E+01 0.  1.
         -5    1    3    3    0  502  0.55268451729E+02 -0.80635073501E+02  0.76611418806E+02  0.12427147189E+03  0.41800000000E+01 0.  1.
        -11    1    1    2    0    0 -0.13886601222E+03  0.10805549242E+03  0.35489589777E+03  0.39611975089E+03  0.00000000000E+00 0. -1.
         11    1    1    2    0    0 -0.14039785074E+02 -0.45663276533E+01  0.55697725354E+00  0.14774205116E+02  0.00000000000E+00 0.  1.
</event>
<event>
 7    1  0.2648915E-009  0.1526728E+03  0.7561462E-02  0.1197227E+00
         -2   -1    0    0    0  501 -0.00000000000E+00  0.00000000000E+00  0.10697154018E+03  0.10697154018E+03  0.00000000000E+00 0. -1.
          2   -1    0    0  501    0  0.00000000000E+00 -0.00000000000E+00 -0.26664499288E+03  0.26664499288E+03  0.00000000000E+00 0.  1.
         25    2    1    2    0    0 -0.11683789666E+03 -0.49500346430E+02 -0.53233257381E+02  0.18596549514E+03  0.12509199534E+03 0.  0.
          5    1    3    3  502    0 -0.23571722841E+02 -0.71466579017E+02 -0.49130241160E+02  0.89968611362E+02  0.41800000000E+01 0. -1.
         -5    1    3    3    0  502 -0.93266173820E+02  0.21966232587E+02 -0.41030162207E+01  0.95996883778E+02  0.41800000000E+01 0. -1.
        -11    1    1    2    0    0  0.78437020649E+02  0.10161474098E+02 -0.10652453549E+03  0.13267666873E+03  0.00000000000E+00 0.  1.
         11    1    1    2    0    0  0.38400876012E+02  0.39338872332E+02  0.84340166514E-01  0.54974369192E+02  0.00000000000E+00 0. -1.
</event>
<event>
 7    1  0.2648915E-009  0.1370882E+03  0.7561462E-02  0.1217302E+00
          3   -1    0    0  501    0  0.00000000000E+00  0.00000000000E+00  0.14026306907E+03  0.14026306907E+03  0.00000000000E+00 0. -1.
         -3   -1    0    0    0  501 -0.00000000000E+00 -0.00000000000E+00 -0.19059710480E+03  0.19059710480E+03  0.00000000000E+00 0.  1.
         25    2    1    2    0    0  0.81898090683E+02 -0.80861913077E+02  0.14303791127E+02  0.17058639280E+03  0.12509665353E+03 0.  0.
          5    1    3    3  502    0  0.71205091740E+02 -0.10876420462E+02  0.53250936545E+02  0.89674947754E+02  0.41800000000E+01 0.  1.
         -5    1    3    3    0  502  0.10692998943E+02 -0.69985492616E+02 -0.38947145418E+02  0.80911445045E+02  0.41800000000E+01 0.  1.
        -11    1    1    2    0    0 -0.29678202797E+02  0.72341744377E+02 -0.19169286343E+01  0.78216355809E+02  0.00000000000E+00 0. -1.
         11    1    1    2    0    0 -0.52219887886E+02  0.85201687008E+01 -0.62720898221E+02  0.82057425253E+02  0.00000000000E+00 0.  1.
</event>
<event>
 7    1  0.2648915E-009  0.1732851E+03  0.7561462E-02  0.1174465E+00
          1   -1    0    0  501    0  0.00000000000E+00  0.00000000000E+00  0.17990009001E+03  0.17990009001E+03  0.00000000000E+00 0. -1.
         -1   -1    0    0    0  501 -0.00000000000E+00 -0.00000000000E+00 -0.21246328079E+03  0.21246328079E+03  0.00000000000E+00 0.  1.
         25    2    1    2    0    0  0.70924897084E+02  0.14559350817E+03 -0.82022426483E+01  0.20480060816E+03  0.12509277226E+03 0.  0.
          5    1    3    3  502    0  0.50534137478E+02  0.15735745248E+02  0.38126503681E+02  0.65363716327E+02  0.41800000000E+01 0.  1.
         -5    1    3    3    0  502  0.20390759606E+02  0.12985776292E+03 -0.46328746329E+02  0.13943689183E+03  0.41800000000E+01 0.  1.
        -11    1    1    2    0    0 -0.45233516767E+02 -0.95059644294E+02  0.29539501563E+02  0.10933887307E+03  0.00000000000E+00 0. -1.
         11    1    1    2    0    0 -0.25691380317E+02 -0.50533863873E+02 -0.53900449702E+02  0.78223889565E+02  0.00000000000E+00 0.  1.
</event>
<event>
 7    1  0.2648915E-009  0.1600668E+03  0.7561462E-02  0.1188621E+00
          2   -1    0    0  501    0  0.00000000000E+00  0.00000000000E+00  0.59071338580E+03  0.59071338580E+03  0.00000000000E+00 0. -1.
         -2   -1    0    0    0  501 -0.00000000000E+00 -0.00000000000E+00 -0.45959261636E+02  0.45959261636E+02  0.00000000000E+00 0.  1.
         25    2    1    2    0    0  0.20465530152E+02 -0.12197527779E+03  0.29040150702E+03  0.33952506739E+03  0.12508968700E+03 0.  0.
          5    1    3    3  502    0 -0.23493577613E+02 -0.12005359803E+03  0.15752548173E+03  0.19949076265E+03  0.41800000000E+01 0. -1.
         -5    1    3    3    0  502  0.43959107766E+02 -0.19216797585E+01  0.13287602528E+03  0.14003430474E+03  0.41800000000E+01 0. -1.
        -11    1    1    2    0    0  0.25263116616E+02  0.99351519901E+02  0.16484675676E+03  0.19412213367E+03  0.00000000000E+00 0. -1.
         11    1    1    2    0    0 -0.45728646769E+02  0.22623757885E+02  0.89505860388E+02  0.10302544637E+03  0.00000000000E+00 0.  1.
</event>
<event>
 7    1  0.2648915E-009  0.1122713E+03  0.7561462E-02  0.1256421E+00
          1   -1    0    0  501    0  0.00000000000E+00  0.00000000000E+00  0.19350743377E+03  0.19350743377E+03  0.00000000000E+00 0. -1.
         -1   -1    0    0    0  501 -0.00000000000E+00 -0.00000000000E+00 -0.69350863868E+02  0.69350863868E+02  0.00000000000E+00 0.  1.
         25    2    1    2    0    0 -0.34192196420E+02  0.66618962303E+01  0.44177913230E+02  0.13715891010E+03  0.12508953371E+03 0.  0.
          5    1    3    3  502    0 -0.48333988811E+02  0.57307691580E+02  0.13974327080E+02  0.76374735390E+02  0.41800000000E+01 0.  1.
         -5    1    3    3    0  502  0.14141792391E+02 -0.50645795350E+02  0.30203586151E+02  0.60784174708E+02  0.41800000000E+01 0.  1.
        -11    1    1    2    0    0  0.65320482569E+02 -0.33916606047E+01  0.58362010027E+02  0.87660669739E+02  0.00000000000E+00 0.  1.
         11    1    1    2    0    0 -0.31128286149E+02 -0.32702356256E+01  0.21616646640E+02  0.38038717796E+02  0.00000000000E+00 0. -1.
</event>
<event>
 7    1  0.2648915E-009  0.1769978E+03  0.7561462E-02  0.1170741E+00
          2   -1    0    0  501    0  0.00000000000E+00  0.00000000000E+00  0.21388964509E+04  0.21388964509E+04  0.00000000000E+00 0.  1.
         -2   -1    0    0    0  501 -0.00000000000E+00 -0.00000000000E+00 -0.31045280536E+02  0.31045280536E+02  0.00000000000E+00 0. -1.
         25    2    1    2    0    0 -0.14846887723E+03  0.49854394107E+02  0.18130632292E+04  0.18241096201E+04  0.12509662157E+03 0.  0.
          5    1    3    3  502    0 -0.29713294183E+02 -0.19600126924E+02  0.90166287108E+03  0.90237489455E+03  0.41800000000E+01 0.  1.
         -5    1    3    3    0  502 -0.11875558305E+03  0.69454521031E+02  0.91140035815E+03  0.92173472552E+03  0.41800000000E+01 0.  1.
        -11    1    1    2    0    0  0.12888257486E+03 -0.74633107670E+02  0.23512703379E+03  0.27832632086E+03  0.00000000000E+00 0. -1.
         11    1    1    2    0    0  0.19586302366E+02  0.24778713564E+02  0.59660907311E+02  0.67505790473E+02  0.00000000000E+00 0.  1.
</event>
<event>
 7    1  0.2648915E-009  0.8201863E+02  0.7561462E-02  0.1323419E+00
         -1   -1    0    0    0  501 -0.00000000000E+00  0.00000000000E+00  0.12731930637E+02  0.12731930637E+02  0.00000000000E+00 0.  1.
          1   -1    0    0  501    0  0.00000000000E+00 -0.00000000000E+00 -0.12949806879E+04  0.12949806879E+04  0.00000000000E+00 0. -1.
         25    2    1    2    0    0  0.46939173910E+02 -0.24416204084E+02 -0.94267045794E+03  0.95240475704E+03  0.12509113436E+03 0.  0.
          5    1    3    3  502    0  0.44147275151E+02 -0.11757111815E+02 -0.93620356732E+03  0.93732694586E+03  0.41800000000E+01 0. -1.
         -5    1    3    3    0  502  0.27918987589E+01 -0.12659092268E+02 -0.64668906266E+01  0.15077811185E+02  0.41800000000E+01 0. -1.
        -11    1    1    2    0    0 -0.69528604478E+02 -0.22836358927E+01 -0.22803839614E+03  0.23841340555E+03  0.00000000000E+00 0.  1.
         11    1    1    2    0    0  0.22589430568E+02  0.26699839976E+02 -0.11153990322E+03  0.11689445598E+03  0.00000000000E+00 0. -1.
</event>
<event>
 7    1  0.2648915E-009  0.1570761E+03  0.7561462E-02  0.1192038E+00
          1   -1    0    0  501    0  0.00000000000E+00  0.00000000000E+00  0.12052088844E+03  0.12052088844E+03  0.00000000000E+00 0. -1.
         -1   -1    0    0    0  501 -0.00000000000E+00 -0.00000000000E+00 -0.28808621777E+03  0.28808621777E+03  0.00000000000E+00 0.  1.
         25    2    1    2    0    0  0.10972569930E+03  0.91254306830E+02 -0.33688029074E+02  0.19274346215E+03  0.12509229111E+03 0.  0.
          5    1    3    3  502    0  0.11479867812E+03  0.96520206404E+02  0.79601438571E+01  0.15025219809E+03  0.41800000000E+01 0.  1.
         -5    1    3    3    0  502 -0.50729788158E+01 -0.52658995731E+01 -0.41648172931E+02  0.42491264053E+02  0.41800000000E+01 0.  1.
        -11    1    1    2    0    0  0.78946250389E+01 -0.99562237035E+01 -0.46706903386E+02  0.48404403920E+02  0.00000000000E+00 0.  1.
         11    1    1    2    0    0 -0.11762032434E+03 -0.81298083127E+02 -0.87170396872E+02  0.16745924014E+03  0.00000000000E+00 0. -1.
</event>
<event>
 7    1  0.2648915E-009  0.1215155E+03  0.7561462E-02  0.1240618E+00
          2   -1    0    0  501    0  0.00000000000E+00  0.00000000000E+00  0.40074922332E+03  0.40074922332E+03  0.00000000000E+00 0. -1.
         -2   -1    0    0    0  501 -0.00000000000E+00 -0.00000000000E+00 -0.61047904283E+02  0.61047904283E+02  0.00000000000E+00 0.  1.
         25    2    1    2    0    0  0.86692153060E+02  0.14103794139E+02  0.91170407913E+02  0.17796988402E+03  0.12508712935E+03 0.  0.
          5    1    3    3  502    0 -0.84560328402E+00 -0.31224791138E+02 -0.13358926045E+02  0.34229167849E+02  0.41800000000E+01 0. -1.
         -5    1    3    3    0  502  0.87537756344E+02  0.45328585277E+02  0.10452933396E+03  0.14374071618E+03  0.41800000000E+01 0. -1.
        -11    1    1    2    0    0 -0.58631720685E+02  0.25808947765E+02  0.55604237004E+02  0.84826951071E+02  0.00000000000E+00 0.  1.
         11    1    1    2    0    0 -0.28060432375E+02 -0.39912741904E+02  0.19292667412E+03  0.19900029250E+03  0.00000000000E+00 0. -1.
</event>
<event>
 7    1  0.2648915E-009  0.8764587E+02  0.7561462E-02  0.1308655E+00
         -1   -1    0    0    0  501 -0.00000000000E+00  0.00000000000E+00  0.32670584056E+03  0.32670584056E+03  0.00000000000E+00 0.  1.
          1   -1    0    0  501    0  0.00000000000E+00 -0.00000000000E+00 -0.42835436365E+02  0.42835436365E+02  0.00000000000E+00 0. -1.
         25    2    1    2    0    0  0.42984310445E+02  0.13340906574E+02  0.13871099340E+03  0.19213065620E+03  0.12509124122E+03 0.  0.
          5    1    3    3  502    0  0.11956764293E+02 -0.31168307568E+02  0.13325952242E+03  0.13744089757E+03  0.41800000000E+01 0.  1.
         -5    1    3    3    0  502  0.31027546152E+02  0.44509214143E+02  0.54514709801E+01  0.54689758636E+02  0.41800000000E+01 0.  1.
        -11    1    1    2    0    0  0.17565370681E+02  0.12333129839E+02  0.42091395286E+01  0.21871561316E+02  0.00000000000E+00 0. -1.
         11    1    1    2    0    0 -0.60549681127E+02 -0.25674036414E+02  0.14095027127E+03  0.15553905940E+03  0.00000000000E+00 0.  1.
</event>
<event>
 7    1  0.2648915E-009  0.1136167E+03  0.7561462E-02  0.1254015E+00
         -1   -1    0    0    0  501 -0.00000000000E+00  0.00000000000E+00  0.10890826742E+02  0.10890826742E+02  0.00000000000E+00 0.  1.
          1   -1    0    0  501    0  0.00000000000E+00 -0.00000000000E+00 -0.14697718651E+04  0.14697718651E+04  0.00000000000E+00 0. -1.
         25    2    1    2    0    0  0.49148678575E+02 -0.51879778509E+01 -0.10301115924E+04  0.10388549141E+04  0.12508849673E+03 0.  0.
          5    1    3    3  502    0  0.49387441562E+02  0.51538034048E+02 -0.41460024851E+03  0.42072096074E+03  0.41800000000E+01 0.  1.
         -5    1    3    3    0  502 -0.23876298648E+00 -0.56726011899E+02 -0.61551134389E+03  0.61813395336E+03  0.41800000000E+01 0.  1.
        -11    1    1    2    0    0 -0.72710939829E+02 -0.56179062168E+01 -0.37609657432E+03  0.38310191184E+03  0.00000000000E+00 0. -1.
         11    1    1    2    0    0  0.23562261254E+02  0.10805884068E+02 -0.52672871660E+02  0.58705865932E+02  0.00000000000E+00 0.  1.
</event>
<event>
 7    1  0.2774352E-009  0.1582093E+03  0.7561462E-02  0.1190733E+00
          1   -1    0    0  501    0  0.00000000000E+00  0.00000000000E+00  0.74191400313E+03  0.74191400313E+03  0.00000000000E+00 0. -1.
         -1   -1    0    0    0  501 -0.00000000000E+00 -0.00000000000E+00 -0.48446454721E+02  0.48446454721E+02  0.00000000000E+00 0.  1.
         25    2    1    2    0    0 -0.11742902534E+03 -0.76908168034E+02  0.22728246551E+03  0.29497081751E+03  0.12508405876E+03 0.  0.
          5    1    3    3  502    0 -0.10201611571E+03 -0.38484677213E+02  0.22863660001E+03  0.25333875643E+03  0.41800000000E+01 0.  1.
         -5    1    3    3    0  502 -0.15412909624E+02 -0.38423490821E+02 -0.13541345038E+01  0.41632061085E+02  0.41800000000E+01 0.  1.
        -11    1    1    2    0    0  0.27009912259E+02  0.69978722340E+02  0.17466775400E+03  0.19009308569E+03  0.00000000000E+00 0. -1.
         11    1    1    2    0    0  0.90419113076E+02  0.69294456937E+01  0.29151732890E+03  0.30529655464E+03  0.00000000000E+00 0.  1.
</event>
<event>
 7    1  0.2648915E-009  0.9077795E+02  0.7561462E-02  0.1300979E+00
          1   -1    0    0  501    0  0.00000000000E+00  0.00000000000E+00  0.16422784808E+03  0.16422784808E+03  0.00000000000E+00 0. -1.
         -1   -1    0    0    0  501 -0.00000000000E+00 -0.00000000000E+00 -0.10193851854E+03  0.10193851854E+03  0.00000000000E+00 0.  1.
         25    2    1    2    0    0  0.37606484023E+02  0.73604047405E+01  0.94246977131E+02  0.16123960309E+03  0.12508914305E+03 0.  0.
          5    1    3    3  502    0  0.52712411777E+02 -0.16027909358E+02 -0.74169140534E+01  0.55749217463E+02  0.41800000000E+01 0. -1.
         -5    1    3    3    0  502 -0.15105927753E+02  0.23388314099E+02  0.10166389118E+03  0.10549038563E+03  0.41800000000E+01 0. -1.
        -11    1    1    2    0    0  0.19414735684E+02 -0.30872106059E+02 -0.21596232884E+02  0.42384149974E+02  0.00000000000E+00 0. -1.
         11    1    1    2    0    0 -0.57021219708E+02  0.23511701318E+02 -0.10361414703E+02  0.62542613557E+02  0.00000000000E+00 0.  1.
</event>
<event>
 7    1  0.2648915E-009  0.1309385E+03  0.7561462E-02  0.1226070E+00
          1   -1    0    0  501    0  0.00000000000E+00  0.00000000000E+00  0.47491465432E+02  0.47491465432E+02  0.00000000000E+00 0.  1.
         -1   -1    0    0    0  501 -0.00000000000E+00 -0.00000000000E+00 -0.48344670014E+03  0.48344670014E+03  0.00000000000E+00 0. -1.
         25    2    1    2    0    0  0.92107287120E+02 -0.42917622597E+02 -0.26575462223E+03  0.31080437536E+03  0.12509262902E+03 0.  0.
          5    1    3    3  502    0  0.74539791795E+02 -0.85497166589E+02 -0.20647268721E+03  0.23561491680E+03  0.41800000000E+01 0.  1.
         -5    1    3    3    0  502  0.17567495325E+02  0.42579543991E+02 -0.59281935020E+02  0.75189458558E+02  0.41800000000E+01 0.  1.
        -11    1    1    2    0    0 -0.45770581101E+02  0.26923290987E+02 -0.11902364527E+02  0.54419444808E+02  0.00000000000E+00 0.  1.
         11    1    1    2    0    0 -0.46336706019E+02  0.15994331611E+02 -0.15829824795E+03  0.16571434541E+03  0.00000000000E+00 0. -1.
</event>
<event>
 7    1  0.2648915E-009  0.1057893E+03  0.7561462E-02  0.1268572E+00
          1   -1    0    0  501    0  0.00000000000E+00  0.00000000000E+00  0.52684087531E+03  0.52684087531E+03  0.00000000000E+00 0. -1.
         -1   -1    0    0    0  501 -0.00000000000E+00 -0.00000000000E+00 -0.34201393345E+02  0.34201393345E+02  0.00000000000E+00 0.  1.
         25    2    1    2    0    0  0.57077423610E+01  0.25176096040E+02  0.42306139320E+03  0.44192160040E+03  0.12508934546E+03 0.  0.
          5    1    3    3  502    0  0.57707209318E+02  0.34268961316E+02  0.30806382050E+03  0.31531773439E+03  0.41800000000E+01 0.  1.
         -5    1    3    3    0  502 -0.51999466957E+02 -0.90928652755E+01  0.11499757270E+03  0.12660386601E+03  0.41800000000E+01 0.  1.
        -11    1    1    2    0    0 -0.44753423681E+02 -0.27042098314E+02  0.19994870884E+02  0.55981594065E+02  0.00000000000E+00 0.  1.
         11    1    1    2    0    0  0.39045681320E+02  0.18660022734E+01  0.49583217885E+02  0.63139074194E+02  0.00000000000E+00 0. -1.
</event>
<event>
 7    1  0.3079074E-009  0.1541716E+03  0.7561462E-02  0.1195439E+00
         -1   -1    0    0    0  501 -0.00000000000E+00  0.00000000000E+00  0.62154501991E+02  0.62154501991E+02  0.00000000000E+00 0.  1.
          1   -1    0    0  501    0  0.00000000000E+00 -0.00000000000E+00 -0.45925702733E+03  0.45925702733E+03  0.00000000000E+00 0. -1.
         25    2    1    2    0    0  0.35637648953E+02  0.12126326074E+03 -0.17177302296E+03  0.24724401391E+03  0.12509520602E+03 0.  0.
          5    1    3    3  502    0  0.14692207963E+02 -0.25381089851E+02 -0.29845491853E+02  0.42050998570E+02  0.41800000000E+01 0. -1.
         -5    1    3    3    0  502  0.20945440990E+02  0.14664435059E+03 -0.14192753111E+03  0.20519301534E+03  0.41800000000E+01 0. -1.
        -11    1    1    2    0    0 -0.44101897318E+01 -0.72431179148E+02 -0.19641855081E+03  0.20939429932E+03  0.00000000000E+00 0. -1.
         11    1    1    2    0    0 -0.31227459221E+02 -0.48832081589E+02 -0.28910951561E+02  0.64773216084E+02  0.00000000000E+00 0.  1.
</event>
<event>
 7    1  0.2648915E-009  0.7902772E+02  0.7561462E-02  0.1331833E+00
          2   -1    0    0  501    0  0.00000000000E+00  0.00000000000E+00  0.98567772691E+02  0.98567772691E+02  0.00000000000E+00 0. -1.
         -2   -1    0    0    0  501 -0.00000000000E+00 -0.00000000000E+00 -0.14528746257E+03  0.14528746257E+03  0.00000000000E+00 0.  1.
         25    2    1    2    0    0  0.75874999378E+01  0.24572155416E+02 -0.71423769973E+02  0.14632032763E+03  0.12508765880E+03 0.  0.
          5    1    3    3  502    0  0.25113469708E+02  0.37757700927E+02 -0.10010318476E+03  0.10997477138E+03  0.41800000000E+01 0. -1.
         -5    1    3    3    0  502 -0.17525969771E+02 -0.13185545511E+02  0.28679414790E+02  0.36345556255E+02  0.41800000000E+01 0. -1.
        -11    1    1    2    0    0  0.35427363991E+02  0.78958230954E+01  0.24228007463E+02  0.43639872678E+02  0.00000000000E+00 0.  1.
         11    1    1    2    0    0 -0.43014863929E+02 -0.32467978511E+02  0.47607262667E+00  0.53895034953E+02  0.00000000000E+00 0. -1.
</event>
<event>
 7    1  0.2648915E-009  0.1171443E+03  0.7561462E-02  0.1247884E+00
         -1   -1    0    0    0  501 -0.00000000000E+00  0.00000000000E+00  0.11610755710E+03  0.11610755710E+03  0.00000000000E+00 0.  1.
          1   -1    0    0  501    0  0.00000000000E+00 -0.00000000000E+00 -0.12716015690E+03  0.12716015690E+03  0.00000000000E+00 0. -1.
         25    2    1    2    0    0  0.35374565042E+02 -0.12521234834E+01 -0.28202677929E+02  0.13302871394E+03  0.12509324532E+03 0.  0.
          5    1    3    3  502    0  0.80286620942E+02  0.32361626115E+01 -0.16129924290E+01  0.80476632604E+02  0.41800000000E+01 0.  1.
         -5    1    3    3    0  502 -0.44912055901E+02 -0.44882860950E+01 -0.26589685500E+02  0.52552081332E+02  0.41800000000E+01 0.  1.
        -11    1    1    2    0    0  0.36274169367E+02 -0.48226920469E+01  0.13527569945E+01  0.36618351592E+02  0.00000000000E+00 0. -1.
         11    1    1    2    0    0 -0.71648734408E+02  0.60748155303E+01  0.15797321139E+02  0.73620648470E+02  0.00000000000E+00 0.  1.
</event>
<event>
 7    1  0.2648915E-009  0.1000515E+03  0.7561462E-02  0.1280188E+00
          1   -1    0    0  501    0  0.00000000000E+00  0.00000000000E+00  0.30962520677E+03  0.30962520677E+03  0.00000000000E+00 0. -1.
         -1   -1    0    0    0  501 -0.00000000000E+00 -0.00000000000E+00 -0.48785908673E+02  0.48785908673E+02  0.00000000000E+00 0.  1.
         25    2    1    2    0    0  0.31481302257E+02  0.49371605103E+02  0.13802681344E+03  0.19526276541E+03  0.12509004175E+03 0.  0.
          5    1    3    3  502    0  0.73073387349E+02  0.35400477642E+02  0.12533666823E+03  0.14939767923E+03  0.41800000000E+01 0.  1.
         -5    1    3    3    0  502 -0.41592085093E+02  0.13971127461E+02  0.12690145209E+02  0.45865086180E+02  0.41800000000E+01 0.  1.
        -11    1    1    2    0    0 -0.60863081689E+01 -0.48948703842E+02  0.12804439489E+03  0.13721656539E+03  0.00000000000E+00 0. -1.
         11    1    1    2    0    0 -0.25394994088E+02 -0.42290126130E+00 -0.52319102306E+01  0.25931784645E+02  0.00000000000E+00 0.  1.
</event>
<event>
 7    1  0.2648915E-009  0.9724160E+02  0.7561462E-02  0.1286206E+00
          2   -1    0    0  501    0  0.00000000000E+00  0.00000000000E+00  0.58101904230E+02  0.58101904230E+02  0.00000000000E+00 0.  1.
         -2   -1    0    0    0  501 -0.00000000000E+00 -0.00000000000E+00 -0.21306968308E+03  0.21306968308E+03  0.00000000000E+00 0. -1.
         25    2    1    2    0    0  0.22527092949E+02  0.92265236845E+01 -0.10959436358E+03  0.16807892923E+03  0.12508798210E+03 0.  0.
          5    1    3    3  502    0 -0.29268084454E+02  0.50097411081E+02 -0.32924776623E+02  0.66842237248E+02  0.41800000000E+01 0. -1.
         -5    1    3    3    0  502  0.51795177403E+02 -0.40870887396E+02 -0.76669586962E+02  0.10123669198E+03  0.41800000000E+01 0. -1.
        -11    1    1    2    0    0 -0.38611960972E+02 -0.26320617081E+02 -0.59531508925E+02  0.75681298671E+02  0.00000000000E+00 0. -1.
         11    1    1    2    0    0  0.16084868023E+02  0.17094093396E+02  0.14158093662E+02  0.27411359407E+02  0.00000000000E+00 0.  1.
</event>
<event>
 7    1  0.2648915E-009  0.6292063E+02  0.7561462E-02  0.1385968E+00
          1   -1    0    0  501    0  0.00000000000E+00  0.00000000000E+00  0.11331833419E+03  0.11331833419E+03  0.00000000000E+00 0. -1.
         -1   -1    0    0    0  501 -0.00000000000E+00 -0.00000000000E+00 -0.12043358380E+03  0.12043358380E+03  0.00000000000E+00 0.  1.
         25    2    1    2    0    0  0.76270337088E+01 -0.96171612700E+01 -0.46114053486E+02  0.13388775721E+03  0.12509502056E+03 0.  0.
          5    1    3    3  502    0  0.13738662781E+02  0.39937082327E+02 -0.67238485237E+02  0.79512311605E+02  0.41800000000E+01 0. -1.
         -5    1    3    3    0  502 -0.61116290721E+01 -0.49554243597E+02  0.21124431751E+02  0.54375445609E+02  0.41800000000E+01 0. -1.
        -11    1    1    2    0    0  0.52072925846E+01  0.17483982481E+02 -0.26769754185E+02  0.32394834134E+02  0.00000000000E+00 0.  1.
         11    1    1    2    0    0 -0.12834326293E+02 -0.78668212107E+01  0.65768558063E+02  0.67469326638E+02  0.00000000000E+00 0. -1.
</event>
<event>
 7    1  0.2648915E-009  0.8273160E+02  0.7561462E-02  0.1321474E+00
         -2   -1    0    0    0  501 -0.00000000000E+00  0.00000000000E+00  0.32995576912E+02  0.32995576912E+02  0.00000000000E+00 0.  1.
          2   -1    0    0  501    0  0.00000000000E+00 -0.00000000000E+00 -0.53856831221E+03  0.53856831221E+03  0.00000000000E+00 0. -1.
         25    2    1    2    0    0  0.59460516790E+02 -0.25628618120E+02 -0.19995672659E+03  0.24458622915E+03  0.12508937548E+03 0.  0.
          5    1    3    3  502    0  0.18155053233E+02 -0.26637862150E+02 -0.20043599006E+03  0.20305477135E+03  0.41800000000E+01 0. -1.
         -5    1    3    3    0  502  0.41305463557E+02  0.10092440301E+01  0.47926347074E+00  0.41531457796E+02  0.41800000000E+01 0. -1.
        -11    1    1    2    0    0 -0.34525079736E+02 -0.19658916628E+02 -0.40002079085E+02  0.56379255625E+02  0.00000000000E+00 0.  1.
         11    1    1    2    0    0 -0.24935437054E+02  0.45287534748E+02 -0.26561392962E+03  0.27059840435E+03  0.00000000000E+00 0. -1.
</event>
<event>
 7    1  0.2648915E-009  0.9576827E+02  0.7561462E-02  0.1289455E+00
         -2   -1    0    0    0  501 -0.00000000000E+00  0.00000000000E+00  0.37123264840E+02  0.37123264840E+02  0.00000000000E+00 0.  1.
          2   -1    0    0  501    0  0.00000000000E+00 -0.00000000000E+00 -0.55881979854E+03  0.55881979854E+03  0.00000000000E+00 0. -1.
         25    2    1    2    0    0 -0.65356287000E+02  0.20015650628E+02 -0.40938061717E+03  0.43348888252E+03  0.12509217017E+03 0.  0.
          5    1    3    3  502    0  0.25656335511E+02 -0.71225713214E+01 -0.21941607573E+03  0.22106529638E+03  0.41800000000E+01 0. -1.
         -5    1    3    3    0  502 -0.91012622511E+02  0.27138221949E+02 -0.18996454144E+03  0.21242358614E+03  0.41800000000E+01 0. -1.
        -11    1    1    2    0    0  0.50214560076E+02 -0.95549039553E+01 -0.12828147233E+03  0.13809031239E+03  0.00000000000E+00 0. -1.
         11    1    1    2    0    0  0.15141726924E+02 -0.10460746673E+02  0.15965555792E+02  0.24363868472E+02  0.00000000000E+00 0.  1.
</event>
<event>
 7    1  0.2648915E-009  0.1066655E+03  0.7561462E-02  0.1266872E+00
         -1   -1    0    0    0  501 -0.00000000000E+00  0.00000000000E+00  0.11312344460E+03  0.11312344460E+03  0.00000000000E+00 0.  1.
          1   -1    0    0  501    0  0.00000000000E+00 -0.00000000000E+00 -0.22398584675E+03  0.22398584675E+03  0.00000000000E+00 0. -1.
         25    2    1    2    0    0 -0.27555069861E+02 -0.80137055191E+02  0.22431848072E+02  0.15274982177E+03  0.12509232892E+03 0.  0.
          5    1    3    3  502    0 -0.48509864001E+01 -0.32079119628E+02 -0.51855145492E+02  0.61310932950E+02  0.41800000000E+01 0.  1.
         -5    1    3    3    0  502 -0.22704083461E+02 -0.48057935563E+02  0.74286993564E+02  0.91438888823E+02  0.41800000000E+01 0.  1.
        -11    1    1    2    0    0 -0.15048875590E+02  0.83237777906E+02 -0.85918994297E+02  0.12056977195E+03  0.00000000000E+00 0.  1.
         11    1    1    2    0    0  0.42603945451E+02 -0.31007227149E+01 -0.47375255929E+02  0.63789697630E+02  0.00000000000E+00 0. -1.
</event>
<event>
 7    1  0.2648915E-009  0.1065542E+03  0.7561462E-02  0.1267087E+00
          1   -1    0    0  501    0  0.00000000000E+00  0.00000000000E+00  0.44365267486E+02  0.44365267486E+02  0.00000000000E+00 0. -1.
         -1   -1    0    0    0  501 -0.00000000000E+00 -0.00000000000E+00 -0.63786602064E+03  0.63786602064E+03  0.00000000000E+00 0.  1.
         25    2    1    2    0    0  0.35415302108E+02  0.19090394858E+01 -0.57067558497E+03  0.58530012586E+03  0.12509087094E+03 0.  0.
          5    1    3    3  502    0  0.47946271154E+02 -0.51146642769E+02 -0.39882982375E+03  0.40496607845E+03  0.41800000000E+01 0.  1.
         -5    1    3    3    0  502 -0.12530969046E+02  0.53055682254E+02 -0.17184576122E+03  0.18033404741E+03  0.41800000000E+01 0.  1.
        -11    1    1    2    0    0 -0.36990186796E+02 -0.37443384695E+02 -0.30090216817E+02  0.60627569015E+02  0.00000000000E+00 0.  1.
         11    1    1    2    0    0  0.15748846884E+01  0.35534345209E+02  0.72650486354E+01  0.36303593250E+02  0.00000000000E+00 0. -1.
</event>
<event>
 7    1  0.2648915E-009  0.9891237E+02  0.7561462E-02  0.1282600E+00
         -2   -1    0    0    0  501 -0.00000000000E+00  0.00000000000E+00  0.33097854599E+03  0.33097854599E+03  0.00000000000E+00 0.  1.
          2   -1    0    0  501    0  0.00000000000E+00 -0.00000000000E+00 -0.49838670615E+02  0.49838670615E+02  0.00000000000E+00 0. -1.
         25    2    1    2    0    0 -0.28232787582E+02  0.42877349401E+02  0.22701792172E+03  0.26423543976E+03  0.12509066094E+03 0.  0.
          5    1    3    3  502    0  0.47942126317E+02  0.19402439009E+02  0.61416159324E+02  0.80400989679E+02  0.41800000000E+01 0.  1.
         -5    1    3    3    0  502 -0.76174913899E+02  0.23474910392E+02  0.16560176240E+03  0.18383445008E+03  0.41800000000E+01 0.  1.
        -11    1    1    2    0    0  0.11923908721E+02  0.68722342611E+01  0.62114278706E+02  0.63620679202E+02  0.00000000000E+00 0.  1.
         11    1    1    2    0    0  0.16308878861E+02 -0.49749583662E+02 -0.79923250530E+01  0.52961097647E+02  0.00000000000E+00 0. -1.
</event>
<event>
 7    1  0.2648915E-009  0.8102782E+02  0.7561462E-02  0.1326160E+00
         -1   -1    0    0    0  501 -0.00000000000E+00  0.00000000000E+00  0.20414850404E+03  0.20414850404E+03  0.00000000000E+00 0.  1.
          1   -1    0    0  501    0  0.00000000000E+00 -0.00000000000E+00 -0.62576628690E+02  0.62576628690E+02  0.00000000000E+00 0. -1.
         25    2    1    2    0    0  0.19018899371E+02 -0.83547628735E+01  0.50281005325E+02  0.13640772185E+03  0.12508943396E+03 0.  0.
          5    1    3    3  502    0  0.14496556598E+02  0.40750122103E+02 -0.22080267604E+02  0.48741493843E+02  0.41800000000E+01 0.  1.
         -5    1    3    3    0  502  0.45223427733E+01 -0.49104884976E+02  0.72361272929E+02  0.87666228005E+02  0.41800000000E+01 0.  1.
        -11    1    1    2    0    0 -0.28774209530E+02 -0.22643718668E+02  0.35921256215E+01  0.36791255696E+02  0.00000000000E+00 0. -1.
         11    1    1    2    0    0  0.97553101588E+01  0.30998481541E+02  0.87698744400E+02  0.93526155184E+02  0.00000000000E+00 0.  1.
</event>
<event>
 7    1  0.2648915E-009  0.9720340E+02  0.7561462E-02  0.1286289E+00
         -1   -1    0    0    0  501 -0.00000000000E+00  0.00000000000E+00  0.16234383585E+03  0.16234383585E+03  0.00000000000E+00 0.  1.
          1   -1    0    0  501    0  0.00000000000E+00 -0.00000000000E+00 -0.99500795508E+02  0.99500795508E+02  0.00000000000E+00 0. -1.
         25    2    1    2    0    0  0.58821709846E+02  0.90344817654E+00  0.30273533835E+02  0.14150946747E+03  0.12509049830E+03 0.  0.
          5    1    3    3  502    0  0.96391008230E+02 -0.44825673536E+01  0.35639671382E+02  0.10295134022E+03  0.41800000000E+01 0. -1.
         -5    1    3    3    0  502 -0.37569298384E+02  0.53860155301E+01 -0.53661375471E+01  0.38558127243E+02  0.41800000000E+01 0. -1.
        -11    1    1    2    0    0 -0.26747896402E+02 -0.52895692154E+01  0.67446770358E+02  0.72749545264E+02  0.00000000000E+00 0.  1.
         11    1    1    2    0    0 -0.32073813444E+02  0.43861210389E+01 -0.34877263849E+02  0.47585618628E+02  0.00000000000E+00 0. -1.
</event>
<event>
 7    1  0.2648915E-009  0.1084264E+03  0.7561462E-02  0.1263512E+00
         -2   -1    0    0    0  501 -0.00000000000E+00  0.00000000000E+00  0.19624508426E+03  0.19624508426E+03  0.00000000000E+00 0.  1.
          2   -1    0    0  501    0  0.00000000000E+00 -0.00000000000E+00 -0.76803874366E+02  0.76803874366E+02  0.00000000000E+00 0. -1.
         25    2    1    2    0    0  0.49693148929E+01 -0.54738544659E+02  0.51989857030E+02  0.14617461226E+03  0.12507225780E+03 0.  0.
          5    1    3    3  502    0  0.37545198213E+02 -0.83386461967E+02  0.24941193479E+02  0.94881396914E+02  0.41800000000E+01 0. -1.
         -5    1    3    3    0  502 -0.32575883320E+02  0.28647917308E+02  0.27048663551E+02  0.51293215342E+02  0.41800000000E+01 0. -1.
        -11    1    1    2    0    0  0.22292761653E+02  0.20298566456E+01 -0.13772427667E+02  0.26282452396E+02  0.00000000000E+00 0. -1.
         11    1    1    2    0    0 -0.27262076546E+02  0.52708688013E+02  0.81223780533E+02  0.10059189398E+03  0.00000000000E+00 0.  1.
</event>
<event>
 7    1  0.2648915E-009  0.1464231E+03  0.7561462E-02  0.1204938E+00
         -1   -1    0    0    0  501 -0.00000000000E+00  0.00000000000E+00  0.96740575421E+02  0.96740575421E+02  0.00000000000E+00 0.  1.
          1   -1    0    0  501    0  0.00000000000E+00 -0.00000000000E+00 -0.52835413006E+03  0.52835413006E+03  0.00000000000E+00 0. -1.
         25    2    1    2    0    0  0.56440896884E+02  0.86506898916E+02 -0.45535185863E+03  0.48338475533E+03  0.12508592299E+03 0.  0.
          5    1    3    3  502    0 -0.65586799033E+01 -0.29236668871E+02 -0.77878934945E+02  0.83548788124E+02  0.41800000000E+01 0.  1.
         -5    1    3    3    0  502  0.62999576787E+02  0.11574356779E+03 -0.37747292368E+03  0.39983596721E+03  0.41800000000E+01 0.  1.
        -11    1    1    2    0    0 -0.44687569141E+01 -0.77947896828E+02  0.38438250073E+02  0.87024958932E+02  0.00000000000E+00 0.  1.
         11    1    1    2    0    0 -0.51972139970E+02 -0.85590020873E+01 -0.14699946087E+02  0.54684991220E+02  0.00000000000E+00 0. -1.
</event>
<event>
 7    1  0.2648915E-009  0.1489054E+03  0.7561462E-02  0.1201824E+00
         -1   -1    0    0    0  501 -0.00000000000E+00  0.00000000000E+00  0.29085569440E+03  0.29085569440E+03  0.00000000000E+00 0.  1.
          1   -1    0    0  501    0  0.00000000000E+00 -0.00000000000E+00 -0.92522677261E+02  0.92522677261E+02  0.00000000000E+00 0. -1.
         25    2    1    2    0    0  0.54007369153E+02  0.10969908245E+03  0.12118416227E+03  0.21279471715E+03  0.12508119702E+03 0.  0.
          5    1    3    3  502    0 -0.11420930946E+02  0.66641717346E+02  0.11581837718E+03  0.13417497921E+03  0.41800000000E+01 0. -1.
         -5    1    3    3    0  502  0.65428300099E+02  0.43057365101E+02  0.53657850955E+01  0.78619737935E+02  0.41800000000E+01 0. -1.
        -11    1    1    2    0    0 -0.79079060242E+02 -0.76466480959E+02  0.62078105972E+02  0.12631037851E+03  0.00000000000E+00 0.  1.
         11    1    1    2    0    0  0.25071691089E+02 -0.33232601488E+02  0.15070748895E+02  0.44273276002E+02  0.00000000000E+00 0. -1.
</event>
<event>
 7    1  0.2648915E-009  0.1471368E+03  0.7561462E-02  0.1204036E+00
         -1   -1    0    0    0  501 -0.00000000000E+00  0.00000000000E+00  0.59747006683E+02  0.59747006683E+02  0.00000000000E+00 0.  1.
          1   -1    0    0  501    0  0.00000000000E+00 -0.00000000000E+00 -0.47335927635E+03  0.47335927635E+03  0.00000000000E+00 0. -1.
         25    2    1    2    0    0 -0.55088648562E+02 -0.11747221043E+03 -0.24499765500E+03  0.30414726411E+03  0.12508887997E+03 0.  0.
          5    1    3    3  502    0  0.71710692568E+01 -0.99137371663E+02 -0.20481429797E+03  0.22769719311E+03  0.41800000000E+01 0. -1.
         -5    1    3    3    0  502 -0.62259717819E+02 -0.18334838767E+02 -0.40183357022E+02  0.76450071008E+02  0.41800000000E+01 0. -1.
        -11    1    1    2    0    0  0.15228771437E+02  0.31432325042E+02 -0.11465461800E+03  0.11985653076E+03  0.00000000000E+00 0. -1.
         11    1    1    2    0    0  0.39859877126E+02  0.86039885388E+02 -0.53959996673E+02  0.10910248816E+03  0.00000000000E+00 0.  1.
</event>
<event>
 7    1  0.2648915E-009  0.1111967E+03  0.7561462E-02  0.1258370E+00
          1   -1    0    0  501    0  0.00000000000E+00  0.00000000000E+00  0.85040208654E+03  0.85040208654E+03  0.00000000000E+00 0. -1.
         -1   -1    0    0    0  501 -0.00000000000E+00 -0.00000000000E+00 -0.17048272731E+02  0.17048272731E+02  0.00000000000E+00 0.  1.
         25    2    1    2    0    0  0.27032326790E+02 -0.40983579797E+02  0.50504982769E+03  0.52261706207E+03  0.12507143800E+03 0.  0.
          5    1    3    3  502    0 -0.18463963717E+01 -0.73960229535E+02  0.42354424528E+03  0.42997758644E+03  0.41800000000E+01 0. -1.
         -5    1    3    3    0  502  0.28878723161E+02  0.32976649738E+02  0.81505582415E+02  0.92639475625E+02  0.41800000000E+01 0. -1.
        -11    1    1    2    0    0 -0.92773818814E+01  0.69798956765E+02  0.24495517041E+03  0.25487447830E+03  0.00000000000E+00 0. -1.
         11    1    1    2    0    0 -0.17754944908E+02 -0.28815376968E+02  0.83348815711E+02  0.89958818906E+02  0.00000000000E+00 0.  1.
</event>
<event>
 7    1  0.2648915E-009  0.7848008E+02  0.7561462E-02  0.1333421E+00
          1   -1    0    0  501    0  0.00000000000E+00  0.00000000000E+00  0.36075794518E+02  0.36075794518E+02  0.00000000000E+00 0. -1.
         -1   -1    0    0    0  501 -0.00000000000E+00 -0.00000000000E+00 -0.35984687072E+03  0.35984687072E+03  0.00000000000E+00 0.  1.
         25    2    1    2    0    0 -0.28189589057E+02 -0.21898765036E+02 -0.21078781674E+03  0.24769581458E+03  0.12508998373E+03 0.  0.
          5    1    3    3  502    0  0.24320394866E+02 -0.37975967446E+02 -0.17784372233E+03  0.18351980188E+03  0.41800000000E+01 0. -1.
         -5    1    3    3    0  502 -0.52509983923E+02  0.16077202410E+02 -0.32944094409E+02  0.64176012694E+02  0.41800000000E+01 0. -1.
        -11    1    1    2    0    0 -0.81231145184E+00  0.27116211985E+02 -0.11550844490E+03  0.11865137861E+03  0.00000000000E+00 0.  1.
         11    1    1    2    0    0  0.29001900508E+02 -0.52174469491E+01  0.25251854379E+01  0.29575472055E+02  0.00000000000E+00 0. -1.
</event>
<event>
 7    1  0.2648915E-009  0.1577988E+03  0.7561462E-02  0.1191204E+00
         -2   -1    0    0    0  501 -0.00000000000E+00  0.00000000000E+00  0.80765193307E+03  0.80765193307E+03  0.00000000000E+00 0.  1.
          2   -1    0    0  501    0  0.00000000000E+00 -0.00000000000E+00 -0.32449924224E+02  0.32449924224E+02  0.00000000000E+00 0. -1.
         25    2    1    2    0    0  0.11848613999E+03 -0.13004716450E+02  0.42347616525E+03  0.45737202221E+03  0.12509602769E+03 0.  0.
          5    1    3    3  502    0 -0.39700248352E+01 -0.45530412061E+02  0.12045413164E+03  0.12890092997E+03  0.41800000000E+01 0. -1.
         -5    1    3    3    0  502  0.12245616483E+03  0.32525695611E+02  0.30302203361E+03  0.32847109223E+03  0.41800000000E+01 0. -1.
        -11    1    1    2    0    0 -0.64518401363E+02 -0.32590506692E+02  0.23902340282E+03  0.24971374078E+03  0.00000000000E+00 0.  1.
         11    1    1    2    0    0 -0.53967738629E+02  0.45595223143E+02  0.11270244079E+03  0.13301609431E+03  0.00000000000E+00 0. -1.
</event>
<event>
 7    1  0.2648915E-009  0.3046910E+03  0.7561462E-02  0.1082919E+00
          1   -1    0    0  501    0  0.00000000000E+00  0.00000000000E+00  0.65358674653E+03  0.65358674653E+03  0.00000000000E+00 0. -1.
         -1   -1    0    0    0  501 -0.00000000000E+00 -0.00000000000E+00 -0.15359564884E+03  0.15359564884E+03  0.00000000000E+00 0.  1.
         25    2    1    2    0    0 -0.29591666136E+03  0.28372157364E+02  0.26853054798E+03  0.41967621815E+03  0.12509125908E+03 0.  0.
          5    1    3    3  502    0 -0.42552045514E+02  0.13803033616E+02 -0.65296286330E+01  0.45401638346E+02  0.41800000000E+01 0. -1.
         -5    1    3    3    0  502 -0.25336461585E+03  0.14569123748E+02  0.27506017661E+03  0.37427457980E+03  0.41800000000E+01 0. -1.
        -11    1    1    2    0    0  0.18722134979E+03  0.26137656452E+02  0.13495858005E+03  0.23226887272E+03  0.00000000000E+00 0.  1.
         11    1    1    2    0    0  0.10869531157E+03 -0.54509813815E+02  0.96501969672E+02  0.15523730450E+03  0.00000000000E+00 0. -1.
</event>
<event>
 7    1  0.2648915E-009  0.2339005E+03  0.7561462E-02  0.1123924E+00
          1   -1    0    0  501    0  0.00000000000E+00  0.00000000000E+00  0.16574566410E+04  0.16574566410E+04  0.00000000000E+00 0. -1.
         -1   -1    0    0    0  501 -0.00000000000E+00 -0.00000000000E+00 -0.35559293104E+02  0.35559293104E+02  0.00000000000E+00 0.  1.
         25    2    1    2    0    0 -0.10562179741E+03  0.18019822026E+03  0.10377251528E+04  0.10659027374E+04  0.12509112801E+03 0.  0.
          5    1    3    3  502    0 -0.11776159409E+03  0.88873184551E+02  0.54558293714E+03  0.56519416988E+03  0.41800000000E+01 0. -1.
         -5    1    3    3    0  502  0.12139796681E+02  0.91325035713E+02  0.49214221564E+03  0.50070856756E+03  0.41800000000E+01 0. -1.
        -11    1    1    2    0    0 -0.11114752808E+02 -0.57740713351E+02  0.14347695900E+03  0.15505858722E+03  0.00000000000E+00 0.  1.
         11    1    1    2    0    0  0.11673655022E+03 -0.12245750691E+03  0.44069523616E+03  0.47205460948E+03  0.00000000000E+00 0. -1.
</event>
<event>
 7    1  0.2648915E-009  0.1227643E+03  0.7561462E-02  0.1238605E+00
          1   -1    0    0  501    0  0.00000000000E+00  0.00000000000E+00  0.34169520585E+03  0.34169520585E+03  0.00000000000E+00 0.  1.
         -1   -1    0    0    0  501 -0.00000000000E+00 -0.00000000000E+00 -0.61730407068E+02  0.61730407068E+02  0.00000000000E+00 0. -1.
         25    2    1    2    0    0 -0.87391734800E+02  0.29732831990E+02  0.18904009777E+03  0.24475352156E+03  0.12508705427E+03 0.  0.
          5    1    3    3  502    0 -0.47807860316E+02 -0.22725269158E+02  0.16711734135E+03  0.17535024251E+03  0.41800000000E+01 0. -1.
         -5    1    3    3    0  502 -0.39583874483E+02  0.52458101149E+02  0.21922756413E+02  0.69403279058E+02  0.41800000000E+01 0. -1.
        -11    1    1    2    0    0  0.21119875694E+02 -0.52433906229E+02  0.22786524161E+02  0.60947431079E+02  0.00000000000E+00 0. -1.
         11    1    1    2    0    0  0.66271859105E+02  0.22701074239E+02  0.68138176859E+02  0.97724660279E+02  0.00000000000E+00 0.  1.
</event>
<event>
 7    1  0.2648915E-009  0.8259226E+02  0.7561462E-02  0.1321852E+00
          4   -1    0    0  501    0  0.00000000000E+00  0.00000000000E+00  0.23000967685E+02  0.23000967685E+02  0.00000000000E+00 0.  1.
         -4   -1    0    0    0  501 -0.00000000000E+00 -0.00000000000E+00 -0.11826850872E+04  0.11826850872E+04  0.00000000000E+00 0. -1.
         25    2    1    2    0    0 -0.43890116145E+02 -0.82677246853E+01 -0.10418853148E+04  0.10503180005E+04  0.12509274672E+03 0.  0.
          5    1    3    3  502    0 -0.73567429112E+02 -0.14887660528E+02 -0.95883861124E+03  0.96178103739E+03  0.41800000000E+01 0. -1.
         -5    1    3    3    0  502  0.29677312967E+02  0.66199358425E+01 -0.83046703598E+02  0.88536963095E+02  0.41800000000E+01 0. -1.
        -11    1    1    2    0    0  0.37509492240E+02 -0.10943875939E+02 -0.12718697097E+03  0.13305358324E+03  0.00000000000E+00 0. -1.
         11    1    1    2    0    0  0.63806239045E+01  0.19211600624E+02  0.93881662496E+01  0.22314471212E+02  0.00000000000E+00 0.  1.
</event>
<event>
 7    1  0.2648915E-009  0.1292749E+03  0.7561462E-02  0.1228536E+00
         -2   -1    0    0    0  501 -0.00000000000E+00  0.00000000000E+00  0.24725325853E+03  0.24725325853E+03  0.00000000000E+00 0.  1.
          2   -1    0    0  501    0  0.00000000000E+00 -0.00000000000E+00 -0.96063737441E+02  0.96063737441E+02  0.00000000000E+00 0. -1.
         25    2    1    2    0    0 -0.52686298327E+02 -0.68208209179E+02  0.16396278235E+03  0.22351687244E+03  0.12509113653E+03 0.  0.
          5    1    3    3  502    0 -0.32962880937E+02 -0.10223448464E+03  0.14255578800E+03  0.17854429832E+03  0.41800000000E+01 0. -1.
         -5    1    3    3    0  502 -0.19723417390E+02  0.34026275465E+02  0.21406994347E+02  0.44972574115E+02  0.41800000000E+01 0. -1.
        -11    1    1    2    0    0 -0.17042540334E+02  0.60372376594E+01  0.13719203607E+02  0.22696100264E+02  0.00000000000E+00 0.  1.
         11    1    1    2    0    0  0.69728838661E+02  0.62170971520E+02 -0.26492464865E+02  0.97104023271E+02  0.00000000000E+00 0. -1.
</event>
<event>
 7    1  0.2648915E-009  0.6960382E+02  0.7561462E-02  0.1361445E+00
          1   -1    0    0  501    0  0.00000000000E+00  0.00000000000E+00  0.27518183412E+03  0.27518183412E+03  0.00000000000E+00 0. -1.
         -1   -1    0    0    0  501 -0.00000000000E+00 -0.00000000000E+00 -0.56065082798E+02  0.56065082798E+02  0.00000000000E+00 0.  1.
         25    2    1    2    0    0 -0.32329818626E+02 -0.41726761444E+02  0.81576400639E+02  0.15838275305E+03  0.12507616692E+03 0.  0.
          5    1    3    3  502    0 -0.28339899100E+02 -0.38680945349E+02 -0.23179053772E+02  0.53423836888E+02  0.41800000000E+01 0. -1.
         -5    1    3    3    0  502 -0.39899195260E+01 -0.30458160951E+01  0.10475545441E+03  0.10495891616E+03  0.41800000000E+01 0. -1.
        -11    1    1    2    0    0 -0.15342949750E+02  0.32562765287E+02  0.11485139833E+02  0.37784232520E+02  0.00000000000E+00 0.  1.
         11    1    1    2    0    0  0.47672768375E+02  0.91639961571E+01  0.12605521085E+03  0.13507993134E+03  0.00000000000E+00 0. -1.
</event>
<event>
 7    1  0.2648915E-009  0.1083630E+03  0.7561462E-02  0.1263632E+00
          1   -1    0    0  501    0  0.00000000000E+00  0.00000000000E+00  0.52821855506E+03  0.52821855506E+03  0.00000000000E+00 0. -1.
         -1   -1    0    0    0  501 -0.00000000000E+00 -0.00000000000E+00 -0.24704225037E+02  0.24704225037E+02  0.00000000000E+00 0.  1.
         25    2    1    2    0    0  0.24307360288E+01 -0.32664248603E+02  0.25411236151E+03  0.28512022699E+03  0.12509032716E+03 0.  0.
          5    1    3    3  502    0 -0.50190878510E+02  0.20500284723E+02  0.10505391933E+03  0.11829279067E+03  0.41800000000E+01 0. -1.
         -5    1    3    3    0  502  0.52621614539E+02 -0.53164533326E+02  0.14905844218E+03  0.16682743631E+03  0.41800000000E+01 0. -1.
        -11    1    1    2    0    0 -0.15130869012E+02 -0.24541242657E+02  0.34029451855E+02  0.44600665709E+02  0.00000000000E+00 0.  1.
         11    1    1    2    0    0  0.12700132983E+02  0.57205491260E+02  0.21537251666E+03  0.22320188740E+03  0.00000000000E+00 0. -1.
</event>
<event>
 7    1  0.2648915E-009  0.1121510E+03  0.7561462E-02  0.1256638E+00
          4   -1    0    0  501    0  0.00000000000E+00  0.00000000000E+00  0.13713670878E+03  0.13713670878E+03  0.00000000000E+00 0. -1.
         -4   -1    0    0    0  501 -0.00000000000E+00 -0.00000000000E+00 -0.12380500391E+03  0.12380500391E+03  0.00000000000E+00 0.  1.
         25    2    1    2    0    0 -0.69326684871E+02 -0.88924010758E+01  0.65014124826E+01  0.14343147557E+03  0.12508019742E+03 0.  0.
          5    1    3    3  502    0 -0.61480679956E+02  0.47773800969E+02 -0.19622193533E+02  0.80403438645E+02  0.41800000000E+01 0.  1.
         -5    1    3    3    0  502 -0.78460049150E+01 -0.56666202045E+02  0.26123606015E+02  0.63028036925E+02  0.41800000000E+01 0.  1.
        -11    1    1    2    0    0  0.11510145330E+02  0.26201756794E+02 -0.34152935503E+02  0.44558259707E+02  0.00000000000E+00 0.  1.
         11    1    1    2    0    0  0.57816539541E+02 -0.17309355718E+02  0.40983227889E+02  0.72951977410E+02  0.00000000000E+00 0. -1.
</event>
<event>
 7    1  0.2648915E-009  0.8534979E+02  0.7561462E-02  0.1314520E+00
          1   -1    0    0  501    0  0.00000000000E+00  0.00000000000E+00  0.11648572995E+03  0.11648572995E+03  0.00000000000E+00 0. -1.
         -1   -1    0    0    0  501 -0.00000000000E+00 -0.00000000000E+00 -0.12764577381E+03  0.12764577381E+03  0.00000000000E+00 0.  1.
         25    2    1    2    0    0 -0.35339630130E+02 -0.55267511519E-02  0.35137301217E+02  0.13465146865E+03  0.12508996197E+03 0.  0.
          5    1    3    3  502    0  0.12398351337E+02  0.30506378848E+02 -0.32408808486E+02  0.46391395040E+02  0.41800000000E+01 0.  1.
         -5    1    3    3    0  502 -0.47737981466E+02 -0.30511905599E+02  0.67546109704E+02  0.88260073611E+02  0.41800000000E+01 0.  1.
        -11    1    1    2    0    0 -0.15504992134E+02 -0.20643832724E+02 -0.48079860624E+02  0.54573304905E+02  0.00000000000E+00 0.  1.
         11    1    1    2    0    0  0.50844622263E+02  0.20649359476E+02  0.17825155409E+01  0.54906730202E+02  0.00000000000E+00 0. -1.
</event>
<event>
 7    1  0.2648915E-009  0.1050712E+03  0.7561462E-02  0.1269979E+00
         -2   -1    0    0    0  501 -0.00000000000E+00  0.00000000000E+00  0.71854980080E+02  0.71854980080E+02  0.00000000000E+00 0.  1.
          2   -1    0    0  501    0  0.00000000000E+00 -0.00000000000E+00 -0.26385481913E+03  0.26385481913E+03  0.00000000000E+00 0. -1.
         25    2    1    2    0    0  0.75847261550E+01  0.59092320367E+02 -0.39465017104E+02  0.14406164309E+03  0.12508732565E+03 0.  0.
          5    1    3    3  502    0 -0.37684305806E+01  0.90075268419E+02  0.27804380170E+01  0.90293733367E+02  0.41800000000E+01 0. -1.
         -5    1    3    3    0  502  0.11353156736E+02 -0.30982948052E+02 -0.42245455121E+02  0.53767909726E+02  0.41800000000E+01 0. -1.
        -11    1    1    2    0    0 -0.34893986610E+02 -0.41156367133E+02 -0.24051109664E+02  0.59075314076E+02  0.00000000000E+00 0.  1.
         11    1    1    2    0    0  0.27309260455E+02 -0.17935953233E+02 -0.12848371228E+03  0.13257284204E+03  0.00000000000E+00 0. -1.
</event>
<event>
 7    1  0.2648915E-009  0.1043494E+03  0.7561462E-02  0.1271407E+00
         -3   -1    0    0    0  501 -0.00000000000E+00  0.00000000000E+00  0.28658969213E+02  0.28658969213E+02  0.00000000000E+00 0.  1.
          3   -1    0    0  501    0  0.00000000000E+00 -0.00000000000E+00 -0.52583021757E+03  0.52583021757E+03  0.00000000000E+00 0. -1.
         25    2    1    2    0    0 -0.69266236065E+01 -0.40973999175E+01 -0.40430928498E+03  0.42329008793E+03  0.12507491281E+03 0.  0.
          5    1    3    3  502    0  0.52038753670E+02  0.17093373738E+02 -0.11778995258E+03  0.12996984511E+03  0.41800000000E+01 0. -1.
         -5    1    3    3    0  502 -0.58965377276E+02 -0.21190773656E+02 -0.28651933240E+03  0.29332024282E+03  0.41800000000E+01 0. -1.
        -11    1    1    2    0    0 -0.18512857152E+01  0.47071109727E+02 -0.35481214070E+02  0.58974852112E+02  0.00000000000E+00 0. -1.
         11    1    1    2    0    0  0.87779093217E+01 -0.42973709810E+02 -0.57380749301E+02  0.72224246740E+02  0.00000000000E+00 0.  1.
</event>
<event>
 7    1  0.2648915E-009  0.1126022E+03  0.7561462E-02  0.1255826E+00
         -1   -1    0    0    0  501 -0.00000000000E+00  0.00000000000E+00  0.54967448171E+02  0.54967448171E+02  0.00000000000E+00 0.  1.
          1   -1    0    0  501    0  0.00000000000E+00 -0.00000000000E+00 -0.25302341802E+03  0.25302341802E+03  0.00000000000E+00 0. -1.
         25    2    1    2    0    0  0.41844978062E+02  0.13001889900E+02 -0.90406422007E+02  0.16044139174E+03  0.12509223683E+03 0.  0.
          5    1    3    3  502    0  0.42068637041E+02 -0.47540780165E+02 -0.18306243339E+02  0.66200354579E+02  0.41800000000E+01 0. -1.
         -5    1    3    3    0  502 -0.22365897909E+00  0.60542670065E+02 -0.72100178668E+02  0.94241037165E+02  0.41800000000E+01 0. -1.
        -11    1    1    2    0    0 -0.43814137005E+01 -0.48850197904E+02 -0.53355923863E+02  0.72473396723E+02  0.00000000000E+00 0.  1.
         11    1    1    2    0    0 -0.37463564362E+02  0.35848308005E+02 -0.54293623977E+02  0.75076077722E+02  0.00000000000E+00 0. -1.
</event>
<event>
 7    1  0.2648915E-009  0.1317259E+03  0.7561462E-02  0.1224917E+00
          2   -1    0    0  501    0  0.00000000000E+00  0.00000000000E+00  0.11132191813E+03  0.11132191813E+03  0.00000000000E+00 0. -1.
         -2   -1    0    0    0  501 -0.00000000000E+00 -0.00000000000E+00 -0.16578437552E+03  0.16578437552E+03  0.00000000000E+00 0.  1.
         25    2    1    2    0    0  0.77422651242E+02 -0.81339843377E+01 -0.33540223196E+02  0.15111303921E+03  0.12509906243E+03 0.  0.
          5    1    3    3  502    0  0.59758105987E+01  0.52666197954E+02 -0.77745488226E+01  0.53734111406E+02  0.41800000000E+01 0.  1.
         -5    1    3    3    0  502  0.71446840643E+02 -0.60800182292E+02 -0.25765674374E+02  0.97378927806E+02  0.41800000000E+01 0.  1.
        -11    1    1    2    0    0  0.11806885503E+02 -0.19645840213E+02 -0.23061992646E+02  0.32514874869E+02  0.00000000000E+00 0.  1.
         11    1    1    2    0    0 -0.89229536745E+02  0.27779824551E+02  0.21397584470E+01  0.93478379565E+02  0.00000000000E+00 0. -1.
</event>
<event>
 7    1  0.2648915E-009  0.1125288E+03  0.7561462E-02  0.1255957E+00
          1   -1    0    0  501    0  0.00000000000E+00  0.00000000000E+00  0.56024775885E+03  0.56024775885E+03  0.00000000000E+00 0. -1.
         -1   -1    0    0    0  501 -0.00000000000E+00 -0.00000000000E+00 -0.30801696200E+02  0.30801696200E+02  0.00000000000E+00 0.  1.
         25    2    1    2    0    0 -0.42378374658E+02 -0.84230512120E+01  0.42038702621E+03  0.44072692697E+03  0.12509235758E+03 0.  0.
          5    1    3    3  502    0 -0.99380077557E+01 -0.64949341931E+02  0.18143886288E+03  0.19301480353E+03  0.41800000000E+01 0. -1.
         -5    1    3    3    0  502 -0.32440366902E+02  0.56526290718E+02  0.23894816332E+03  0.24771212345E+03  0.41800000000E+01 0. -1.
        -11    1    1    2    0    0  0.63539052273E+02  0.23697532379E+02  0.45636067036E+02  0.81740044159E+02  0.00000000000E+00 0.  1.
         11    1    1    2    0    0 -0.21160677615E+02 -0.15274481167E+02  0.63422969407E+02  0.68582483919E+02  0.00000000000E+00 0. -1.
</event>
<event>
 7    1  0.2648915E-009  0.1346860E+03  0.7561462E-02  0.1220664E+00
          2   -1    0    0  501    0  0.00000000000E+00  0.00000000000E+00  0.21690031835E+04  0.21690031835E+04  0.00000000000E+00 0. -1.
         -2   -1    0    0    0  501 -0.00000000000E+00 -0.00000000000E+00 -0.13067448630E+02  0.13067448630E+02  0.00000000000E+00 0.  1.
         25    2    1    2    0    0  0.53661638152E+02  0.75495809654E+02  0.17184360888E+04  0.17254712041E+04  0.12509634742E+03 0.  0.
          5    1    3    3  502    0 -0.30829377352E+02  0.59057482234E+02  0.91338171694E+03  0.91581759644E+03  0.41800000000E+01 0. -1.
         -5    1    3    3    0  502  0.84491015504E+02  0.16438327419E+02  0.80505437189E+03  0.80965360767E+03  0.41800000000E+01 0. -1.
        -11    1    1    2    0    0  0.17339599424E+02 -0.11085117185E+02  0.21760726719E+02  0.29951139520E+02  0.00000000000E+00 0.  1.
         11    1    1    2    0    0 -0.71001237576E+02 -0.64410692469E+02  0.41573891934E+03  0.42664828852E+03  0.00000000000E+00 0. -1.
</event>
<event>
 7    1  0.2648915E-009  0.1212609E+03  0.7561462E-02  0.1241031E+00
         -3   -1    0    0    0  501 -0.00000000000E+00  0.00000000000E+00  0.36641372367E+03  0.36641372367E+03  0.00000000000E+00 0.  1.
          3   -1    0    0  501    0  0.00000000000E+00 -0.00000000000E+00 -0.59224574822E+02  0.59224574822E+02  0.00000000000E+00 0. -1.
         25    2    1    2    0    0 -0.24707386704E+02 -0.33947715090E+02  0.18133225993E+03  0.22425667619E+03  0.12508703373E+03 0.  0.
          5    1    3    3  502    0  0.12646101544E+02  0.38500006179E+02  0.10451828451E+03  0.11217717484E+03  0.41800000000E+01 0. -1.
         -5    1    3    3    0  502 -0.37353488249E+02 -0.72447721269E+02  0.76813975426E+02  0.11207950135E+03  0.41800000000E+01 0. -1.
        -11    1    1    2    0    0  0.69796502637E+02  0.15808633226E+02  0.13418154952E+03  0.15207285391E+03  0.00000000000E+00 0.  1.
         11    1    1    2    0    0 -0.45089115933E+02  0.18139081864E+02 -0.83246606001E+01  0.49308768394E+02  0.00000000000E+00 0. -1.
</event>
<event>
 7    1  0.2648915E-009  0.1772266E+03  0.7561462E-02  0.1170514E+00
          1   -1    0    0  501    0  0.00000000000E+00  0.00000000000E+00  0.10554173939E+04  0.10554173939E+04  0.00000000000E+00 0. -1.
         -1   -1    0    0    0  501 -0.00000000000E+00 -0.00000000000E+00 -0.39257432020E+02  0.39257432020E+02  0.00000000000E+00 0.  1.
         25    2    1    2    0    0  0.52288222910E+02 -0.14241643259E+03  0.29096671980E+03  0.35117822044E+03  0.12509201395E+03 0.  0.
          5    1    3    3  502    0  0.58367982198E+02 -0.16069442518E+03  0.28134421601E+03  0.32924392160E+03  0.41800000000E+01 0.  1.
         -5    1    3    3    0  502 -0.60797592883E+01  0.18277992597E+02  0.96225037995E+01  0.21934298843E+02  0.41800000000E+01 0.  1.
        -11    1    1    2    0    0  0.25012398073E+01  0.82487080271E+02  0.38530771588E+03  0.39404620355E+03  0.00000000000E+00 0.  1.
         11    1    1    2    0    0 -0.54789462717E+02  0.59929352315E+02  0.33988552622E+03  0.34945040196E+03  0.00000000000E+00 0. -1.
</event>
<event>
 7    1  0.2648915E-009  0.6823613E+02  0.7561462E-02  0.1366196E+00
         -2   -1    0    0    0  501 -0.00000000000E+00  0.00000000000E+00  0.43022212420E+03  0.43022212420E+03  0.00000000000E+00 0.  1.
          2   -1    0    0  501    0  0.00000000000E+00 -0.00000000000E+00 -0.29484346158E+02  0.29484346158E+02  0.00000000000E+00 0. -1.
         25    2    1    2    0    0 -0.57583653049E+01 -0.33700026540E+02  0.24589298936E+03  0.27799729948E+03  0.12510110207E+03 0.  0.
          5    1    3    3  502    0  0.58957738455E+01 -0.30155217064E+02 -0.75005344056E+00  0.31018256650E+02  0.41800000000E+01 0.  1.
         -5    1    3    3    0  502 -0.11654139150E+02 -0.35448094759E+01  0.24664304280E+03  0.24697904283E+03  0.41800000000E+01 0.  1.
        -11    1    1    2    0    0 -0.38527411731E+02  0.28901278845E+01  0.44850059824E+02  0.59196639770E+02  0.00000000000E+00 0. -1.
         11    1    1    2    0    0  0.44285777036E+02  0.30809898655E+02  0.10999472886E+03  0.12251253111E+03  0.00000000000E+00 0.  1.
</event>
<event>
 7    1  0.2648915E-009  0.1001429E+03  0.7561462E-02  0.1279996E+00
         -1   -1    0    0    0  501 -0.00000000000E+00  0.00000000000E+00  0.82312066098E+02  0.82312066098E+02  0.00000000000E+00 0.  1.
          1   -1    0    0  501    0  0.00000000000E+00 -0.00000000000E+00 -0.16208410350E+03  0.16208410350E+03  0.00000000000E+00 0. -1.
         25    2    1    2    0    0  0.30662442915E+02 -0.14356154261E+02 -0.66595163574E+02  0.14571229660E+03  0.12510344918E+03 0.  0.
          5    1    3    3  502    0 -0.40676236745E+02 -0.24662830748E+02 -0.54576866094E+02  0.72518398830E+02  0.41800000000E+01 0. -1.
         -5    1    3    3    0  502  0.71338679660E+02  0.10306676487E+02 -0.12018297480E+02  0.73193897766E+02  0.41800000000E+01 0. -1.
        -11    1    1    2    0    0 -0.54847502504E+02  0.94591748137E+01  0.18390157793E+02  0.58616741830E+02  0.00000000000E+00 0. -1.
         11    1    1    2    0    0  0.24185059589E+02  0.48969794474E+01 -0.31567031623E+02  0.40067131174E+02  0.00000000000E+00 0.  1.
</event>
<event>
 7    1  0.2648915E-009  0.2326314E+03  0.7561462E-02  0.1124801E+00
         -1   -1    0    0    0  501 -0.00000000000E+00  0.00000000000E+00  0.20414000214E+03  0.20414000214E+03  0.00000000000E+00 0.  1.
          1   -1    0    0  501    0  0.00000000000E+00 -0.00000000000E+00 -0.39153821876E+03  0.39153821876E+03  0.00000000000E+00 0. -1.
         25    2    1    2    0    0  0.13301780690E+03  0.17883029255E+03 -0.23854498355E+03  0.34960657321E+03  0.12508811443E+03 0.  0.
          5    1    3    3  502    0  0.12080284997E+03  0.14711736576E+03 -0.11734041436E+03  0.22365842956E+03  0.41800000000E+01 0. -1.
         -5    1    3    3    0  502  0.12214956921E+02  0.31712926793E+02 -0.12120456919E+03  0.12594814366E+03  0.41800000000E+01 0. -1.
        -11    1    1    2    0    0  0.65925623314E+01 -0.50684215161E+02  0.82722919506E+01  0.51776272159E+02  0.00000000000E+00 0. -1.
         11    1    1    2    0    0 -0.13961036923E+03 -0.12814607739E+03  0.42874474978E+02  0.19429537553E+03  0.00000000000E+00 0.  1.
</event>
<event>
 7    1  0.2648915E-009  0.1049826E+03  0.7561462E-02  0.1270154E+00
          2   -1    0    0  501    0  0.00000000000E+00  0.00000000000E+00  0.11998986953E+04  0.11998986953E+04  0.00000000000E+00 0. -1.
         -2   -1    0    0    0  501 -0.00000000000E+00 -0.00000000000E+00 -0.10020795389E+02  0.10020795389E+02  0.00000000000E+00 0.  1.
         25    2    1    2    0    0 -0.21157317293E+02  0.14643004048E+02  0.74073658115E+03  0.75166389040E+03  0.12508345947E+03 0.  0.
          5    1    3    3  502    0  0.42412323275E+02 -0.19523329787E+02  0.43398027473E+03  0.43650465842E+03  0.41800000000E+01 0.  1.
         -5    1    3    3    0  502 -0.63569640568E+02  0.34166333836E+02  0.30675630643E+03  0.31515923198E+03  0.41800000000E+01 0.  1.
        -11    1    1    2    0    0  0.10890981459E+02  0.36780753055E+02  0.17716095161E+03  0.18126621320E+03  0.00000000000E+00 0.  1.
         11    1    1    2    0    0  0.10266335834E+02 -0.51423757103E+02  0.27198036715E+03  0.27698938709E+03  0.00000000000E+00 0. -1.
</event>
<event>
 7    1  0.2648915E-009  0.8087733E+02  0.7561462E-02  0.1326580E+00
          1   -1    0    0  501    0  0.00000000000E+00  0.00000000000E+00  0.24116301976E+03  0.24116301976E+03  0.00000000000E+00 0. -1.
         -1   -1    0    0    0  501 -0.00000000000E+00 -0.00000000000E+00 -0.72344974162E+02  0.72344974162E+02  0.00000000000E+00 0.  1.
         25    2    1    2    0    0 -0.23134816821E+02  0.54089988467E+02  0.14968676657E+03  0.20375153584E+03  0.12509042197E+03 0.  0.
          5    1    3    3  502    0  0.94921171708E+00  0.57129108880E+02  0.16505734017E+03  0.17471701128E+03  0.41800000000E+01 0. -1.
         -5    1    3    3    0  502 -0.24084028538E+02 -0.30391204130E+01 -0.15370573603E+02  0.29034524559E+02  0.41800000000E+01 0. -1.
        -11    1    1    2    0    0 -0.10538475037E+02 -0.43162965656E+02  0.47018230189E+02  0.64690146316E+02  0.00000000000E+00 0. -1.
         11    1    1    2    0    0  0.33673291858E+02 -0.10927022811E+02 -0.27886951157E+02  0.45066311774E+02  0.00000000000E+00 0.  1.
</event>
<event>
 7    1  0.2648915E-009  0.9217865E+02  0.7561462E-02  0.1297660E+00
         -1   -1    0    0    0  501 -0.00000000000E+00  0.00000000000E+00  0.20761243704E+03  0.20761243704E+03  0.00000000000E+00 0.  1.
          1   -1    0    0  501    0  0.00000000000E+00 -0.00000000000E+00 -0.80757530654E+02  0.80757530654E+02  0.00000000000E+00 0. -1.
         25    2    1    2    0    0 -0.37626899779E+02  0.34571528490E+02  0.12529362650E+03  0.18427422608E+03  0.12509006111E+03 0.  0.
          5    1    3    3  502    0 -0.79631876140E+02  0.18940367533E+01  0.90101349883E+02  0.12033515165E+03  0.41800000000E+01 0. -1.
         -5    1    3    3    0  502  0.42004976360E+02  0.32677491737E+02  0.35192276617E+02  0.63939074428E+02  0.41800000000E+01 0. -1.
        -11    1    1    2    0    0  0.13072261405E+02 -0.98586991442E+01 -0.43881059147E+02  0.46836153972E+02  0.00000000000E+00 0. -1.
         11    1    1    2    0    0  0.24554638374E+02 -0.24712829346E+02  0.45442339033E+02  0.57259587640E+02  0.00000000000E+00 0.  1.
</event>
<event>
 7    1  0.2648915E-009  0.1066937E+03  0.7561462E-02  0.1266818E+00
          1   -1    0    0  501    0  0.00000000000E+00  0.00000000000E+00  0.11739878883E+04  0.11739878883E+04  0.00000000000E+00 0. -1.
         -1   -1    0    0    0  501 -0.00000000000E+00 -0.00000000000E+00 -0.11353191345E+02  0.11353191345E+02  0.00000000000E+00 0.  1.
         25    2    1    2    0    0  0.32753408621E+02 -0.52639952827E+01  0.77136817328E+03  0.78214828140E+03  0.12508628992E+03 0.  0.
          5    1    3    3  502    0 -0.40702273491E+02 -0.11932598100E+02  0.13657652509E+03  0.14307229490E+03  0.41800000000E+01 0.  1.
         -5    1    3    3    0  502  0.73455682112E+02  0.66686028169E+01  0.63479164819E+03  0.63907598649E+03  0.41800000000E+01 0.  1.
        -11    1    1    2    0    0 -0.26952782375E+02  0.47308561259E+02  0.23883806842E+03  0.24496566162E+03  0.00000000000E+00 0. -1.
         11    1    1    2    0    0 -0.58006262464E+01 -0.42044565977E+02  0.15242845525E+03  0.15822713662E+03  0.00000000000E+00 0.  1.
</event>
<event>
 7    1  0.2648915E-009  0.1286746E+03  0.7561462E-02  0.1229436E+00
         -2   -1    0    0    0  501 -0.00000000000E+00  0.00000000000E+00  0.75559095275E+02  0.75559095275E+02  0.00000000000E+00 0.  1.
          2   -1    0    0  501    0  0.00000000000E+00 -0.00000000000E+00 -0.25003771859E+03  0.25003771859E+03  0.00000000000E+00 0. -1.
         25    2    1    2    0    0 -0.11303837028E+02 -0.82359775471E+02 -0.10603169440E+03  0.18385009130E+03  0.12508887443E+03 0.  0.
          5    1    3    3  502    0  0.40943596583E+02 -0.67248009772E+02 -0.10232294332E+03  0.12917480424E+03  0.41800000000E+01 0. -1.
         -5    1    3    3    0  502 -0.52247433610E+02 -0.15111765699E+02 -0.37087510835E+01  0.54675287068E+02  0.41800000000E+01 0. -1.
        -11    1    1    2    0    0  0.50733951071E+02  0.31941646918E+02 -0.29420398147E+02  0.66781452711E+02  0.00000000000E+00 0.  1.
         11    1    1    2    0    0 -0.39430114044E+02  0.50418128554E+02 -0.39026530767E+02  0.74965269852E+02  0.00000000000E+00 0. -1.
</event>
<event>
 7    1  0.2648915E-009  0.1515141E+03  0.7561462E-02  0.1198625E+00
         -2   -1    0    0    0  501 -0.00000000000E+00  0.00000000000E+00  0.96896441057E+02  0.96896441057E+02  0.00000000000E+00 0.  1.
          2   -1    0    0  501    0  0.00000000000E+00 -0.00000000000E+00 -0.31025975157E+03  0.31025975157E+03  0.00000000000E+00 0. -1.
         25    2    1    2    0    0  0.12660661158E+03 -0.49120431913E+02 -0.11050311319E+03  0.21517811256E+03  0.12509448898E+03 0.  0.
          5    1    3    3  502    0  0.84419780328E+01 -0.47711914794E+02  0.62158838066E+01  0.49028597960E+02  0.41800000000E+01 0.  1.
         -5    1    3    3    0  502  0.11816463354E+03 -0.14085171190E+01 -0.11671899700E+03  0.16614951460E+03  0.41800000000E+01 0.  1.
        -11    1    1    2    0    0 -0.80992706928E+02  0.26383380742E+02 -0.96274426701E+01  0.85723911526E+02  0.00000000000E+00 0.  1.
         11    1    1    2    0    0 -0.45613904647E+02  0.22737051171E+02 -0.93232754649E+02  0.10625416854E+03  0.00000000000E+00 0. -1.
</event>
<event>
 7    1  0.2648915E-009  0.1100213E+03  0.7561462E-02  0.1260530E+00
          2   -1    0    0  501    0  0.00000000000E+00  0.00000000000E+00  0.62370104074E+02  0.62370104074E+02  0.00000000000E+00 0.  1.
         -2   -1    0    0    0  501 -0.00000000000E+00 -0.00000000000E+00 -0.20266978250E+03  0.20266978250E+03  0.00000000000E+00 0. -1.
         25    2    1    2    0    0  0.49263158263E+01 -0.24276753119E+02 -0.97846980195E+02  0.16073455053E+03  0.12509170585E+03 0.  0.
          5    1    3    3  502    0  0.45941108899E+02 -0.57868903837E+02 -0.62635074622E+02  0.96953702823E+02  0.41800000000E+01 0.  1.
         -5    1    3    3    0  502 -0.41014793073E+02  0.33592150718E+02 -0.35211905573E+02  0.63780847711E+02  0.41800000000E+01 0.  1.
        -11    1    1    2    0    0 -0.27092489232E+02 -0.26224009980E+02 -0.59595418986E+01  0.38173522393E+02  0.00000000000E+00 0.  1.
         11    1    1    2    0    0  0.22166173406E+02  0.50500763099E+02 -0.36493156332E+02  0.66131813646E+02  0.00000000000E+00 0. -1.
</event>
<event>
 7    1  0.2648915E-009  0.9805918E+02  0.7561462E-02  0.1284431E+00
         -1   -1    0    0    0  501 -0.00000000000E+00  0.00000000000E+00  0.42594353504E+02  0.42594353504E+02  0.00000000000E+00 0.  1.
          1   -1    0    0  501    0  0.00000000000E+00 -0.00000000000E+00 -0.40709780499E+03  0.40709780499E+03  0.00000000000E+00 0. -1.
         25    2    1    2    0    0  0.24216739691E+02 -0.86643642207E+01 -0.80907190234E+02  0.15118673210E+03  0.12509969162E+03 0.  0.
          5    1    3    3  502    0 -0.15991683925E+02 -0.48532658405E+02 -0.79245904554E+02  0.94385055360E+02  0.41800000000E+01 0.  1.
         -5    1    3    3    0  502  0.40208423616E+02  0.39868294184E+02 -0.16612856792E+01  0.56801676744E+02  0.41800000000E+01 0.  1.
        -11    1    1    2    0    0 -0.33964349317E+02  0.41610900758E+02 -0.21723899434E+03  0.22378075151E+03  0.00000000000E+00 0. -1.
         11    1    1    2    0    0  0.97476096260E+01 -0.32946536538E+02 -0.66357266918E+02  0.74724674881E+02  0.00000000000E+00 0.  1.
</event>
<event>
 7    1  0.2648915E-009  0.1155214E+03  0.7561462E-02  0.1250674E+00
         -2   -1    0    0    0  501 -0.00000000000E+00  0.00000000000E+00  0.19284366784E+02  0.19284366784E+02  0.00000000000E+00 0.  1.
          2   -1    0    0  501    0  0.00000000000E+00 -0.00000000000E+00 -0.78951847593E+03  0.78951847593E+03  0.00000000000E+00 0. -1.
         25    2    1    2    0    0 -0.28038542674E+02 -0.29746707314E+02 -0.54052901190E+03  0.55631809994E+03  0.12508872510E+03 0.  0.
          5    1    3    3  502    0  0.22887650857E+02 -0.63607387542E+02 -0.22856090084E+03  0.23838477742E+03  0.41800000000E+01 0. -1.
         -5    1    3    3    0  502 -0.50926193531E+02  0.33860680228E+02 -0.31196811106E+03  0.31793332253E+03  0.41800000000E+01 0. -1.
        -11    1    1    2    0    0  0.14278232366E+02 -0.33960039767E+02 -0.56770549742E+02  0.67676048484E+02  0.00000000000E+00 0.  1.
         11    1    1    2    0    0  0.13760310308E+02  0.63706747081E+02 -0.17293454750E+03  0.18480869429E+03  0.00000000000E+00 0. -1.
</event>
<event>
 7    1  0.2648915E-009  0.8208297E+02  0.7561462E-02  0.1323242E+00
          1   -1    0    0  501    0  0.00000000000E+00  0.00000000000E+00  0.52589366032E+03  0.52589366032E+03  0.00000000000E+00 0. -1.
         -1   -1    0    0    0  501 -0.00000000000E+00 -0.00000000000E+00 -0.24561887386E+02  0.24561887386E+02  0.00000000000E+00 0.  1.
         25    2    1    2    0    0  0.12161574915E+02  0.16637279690E+02  0.34810412258E+03  0.37047091257E+03  0.12509002328E+03 0.  0.
          5    1    3    3  502    0  0.14491840040E+02  0.66247851710E+02  0.12932451197E+03  0.14608590993E+03  0.41800000000E+01 0. -1.
         -5    1    3    3    0  502 -0.23302651253E+01 -0.49610572021E+02  0.21877961061E+03  0.22438500264E+03  0.41800000000E+01 0. -1.
        -11    1    1    2    0    0  0.12052545241E+02  0.57955509605E+01 -0.78852687309E+01  0.15525131905E+02  0.00000000000E+00 0.  1.
         11    1    1    2    0    0 -0.24214120156E+02 -0.22432830650E+02  0.16111291909E+03  0.16445950323E+03  0.00000000000E+00 0. -1.
</event>
<event>
 7    1  0.2648915E-009  0.1572562E+03  0.7561462E-02  0.1191830E+00
          2   -1    0    0  501    0  0.00000000000E+00  0.00000000000E+00  0.59439537879E+03  0.59439537879E+03  0.00000000000E+00 0.  1.
         -2   -1    0    0    0  501 -0.00000000000E+00 -0.00000000000E+00 -0.43657442550E+02  0.43657442550E+02  0.00000000000E+00 0. -1.
         25    2    1    2    0    0  0.11238837801E+03 -0.28240983899E+02  0.35209799128E+03  0.39121576453E+03  0.12509227900E+03 0.  0.
          5    1    3    3  502    0  0.96805033910E+02 -0.72785606825E+02  0.22475506683E+03  0.25534539670E+03  0.41800000000E+01 0.  1.
         -5    1    3    3    0  502  0.15583344103E+02  0.44544622927E+02  0.12734292445E+03  0.13587036783E+03  0.41800000000E+01 0.  1.
        -11    1    1    2    0    0 -0.10257368438E+03 -0.13146815148E+02  0.13043736031E+03  0.16645751543E+03  0.00000000000E+00 0.  1.
         11    1    1    2    0    0 -0.98146936304E+01  0.41387799047E+02  0.68202584644E+02  0.80379541384E+02  0.00000000000E+00 0. -1.
</event>
<event>
 7    1  0.2648915E-009  0.8502699E+02  0.7561462E-02  0.1315362E+00
         -1   -1    0    0    0  501 -0.00000000000E+00  0.00000000000E+00  0.11016870066E+03  0.11016870066E+03  0.00000000000E+00 0.  1.
          1   -1    0    0  501    0  0.00000000000E+00 -0.00000000000E+00 -0.11370508898E+03  0.11370508898E+03  0.00000000000E+00 0. -1.
         25    2    1    2    0    0 -0.20094146715E+02 -0.13016583908E+02  0.26281369563E+02  0.13005236956E+03  0.12509877000E+03 0.  0.
          5    1    3    3  502    0 -0.34962090487E+02 -0.38090448761E+02  0.63883527168E+02  0.82290992833E+02  0.41800000000E+01 0.  1.
         -5    1    3    3    0  502  0.14867943772E+02  0.25073864853E+02 -0.37602157605E+02  0.47761376731E+02  0.41800000000E+01 0.  1.
        -11    1    1    2    0    0  0.31678865830E+02  0.44820265421E+02 -0.15194821470E+02  0.56949884391E+02  0.00000000000E+00 0.  1.
         11    1    1    2    0    0 -0.11584719115E+02 -0.31803681513E+02 -0.14622936414E+02  0.36871535689E+02  0.00000000000E+00 0. -1.
</event>
<event>
 7    1  0.2648915E-009  0.1440904E+03  0.7561462E-02  0.1207929E+00
         -2   -1    0    0    0  501 -0.00000000000E+00  0.00000000000E+00  0.19011214841E+03  0.19011214841E+03  0.00000000000E+00 0.  1.
          2   -1    0    0  501    0  0.00000000000E+00 -0.00000000000E+00 -0.11319389532E+03  0.11319389532E+03  0.00000000000E+00 0. -1.
         25    2    1    2    0    0  0.45526065014E+02 -0.83573137600E+02  0.17326446521E+02  0.15812854933E+03  0.12508932984E+03 0.  0.
          5    1    3    3  502    0 -0.35432949566E+01 -0.10283869375E+03  0.17446828924E+01  0.10299936015E+03  0.41800000000E+01 0.  1.
         -5    1    3    3    0  502  0.49069359971E+02  0.19265556153E+02  0.15581763629E+02  0.55129189180E+02  0.41800000000E+01 0.  1.
        -11    1    1    2    0    0 -0.68509798628E+02  0.85135917364E+02  0.47428046160E+02  0.11912655664E+03  0.00000000000E+00 0. -1.
         11    1    1    2    0    0  0.22983733614E+02 -0.15627797645E+01  0.12163760413E+02  0.26050937772E+02  0.00000000000E+00 0.  1.
</event>
<event>
 7    1  0.2648915E-009  0.1460411E+03  0.7561462E-02  0.1205424E+00
          1   -1    0    0  501    0  0.00000000000E+00  0.00000000000E+00  0.18684863780E+03  0.18684863780E+03  0.00000000000E+00 0. -1.
         -1   -1    0    0    0  501 -0.00000000000E+00 -0.00000000000E+00 -0.15824041653E+03  0.15824041653E+03  0.00000000000E+00 0.  1.
         25    2    1    2    0    0 -0.10455804171E+03 -0.56978793281E+02 -0.46737521458E+02  0.17891478206E+03  0.12508851410E+03 0.  0.
          5    1    3    3  502    0 -0.11747722592E+03 -0.33971642604E+02  0.30638954034E+01  0.12240028990E+03  0.41800000000E+01 0.  1.
         -5    1    3    3    0  502  0.12919184218E+02 -0.23007150677E+02 -0.49801416862E+02  0.56514492164E+02  0.41800000000E+01 0.  1.
        -11    1    1    2    0    0  0.10480354507E+03  0.20827691584E+02  0.74041306955E+02  0.12999881127E+03  0.00000000000E+00 0.  1.
         11    1    1    2    0    0 -0.24550335964E+00  0.36151101697E+02  0.13044357731E+01  0.36175460999E+02  0.00000000000E+00 0. -1.
</event>
<event>
 7    1  0.2648915E-009  0.1445067E+03  0.7561462E-02  0.1207390E+00
          2   -1    0    0  501    0  0.00000000000E+00  0.00000000000E+00  0.65514286920E+03  0.65514286920E+03  0.00000000000E+00 0. -1.
         -2   -1    0    0    0  501 -0.00000000000E+00 -0.00000000000E+00 -0.37101449424E+02  0.37101449424E+02  0.00000000000E+00 0.  1.
         25    2    1    2    0    0  0.73608932183E+02 -0.63733783693E+02  0.20825404391E+03  0.26172531342E+03  0.12510045084E+03 0.  0.
          5    1    3    3  502    0  0.96701410727E+01 -0.88825224495E+02  0.12515688030E+03  0.15383481148E+03  0.41800000000E+01 0. -1.
         -5    1    3    3    0  502  0.63938791111E+02  0.25091440802E+02  0.83097163609E+02  0.10789050195E+03  0.41800000000E+01 0. -1.
        -11    1    1    2    0    0 -0.11208000378E+02 -0.22013965344E+02  0.56654802096E+02  0.61806152955E+02  0.00000000000E+00 0.  1.
         11    1    1    2    0    0 -0.62400931806E+02  0.85747749037E+02  0.35313257377E+03  0.36871285224E+03  0.00000000000E+00 0. -1.
</event>
<event>
 7    1  0.2648915E-009  0.1781922E+03  0.7561462E-02  0.1169564E+00
         -4   -1    0    0    0  501 -0.00000000000E+00  0.00000000000E+00  0.62678649930E+02  0.62678649930E+02  0.00000000000E+00 0.  1.
          4   -1    0    0  501    0  0.00000000000E+00 -0.00000000000E+00 -0.55484303286E+03  0.55484303286E+03  0.00000000000E+00 0. -1.
         25    2    1    2    0    0 -0.84494858787E+02  0.11661440405E+03 -0.19541263002E+03  0.27307929382E+03  0.12509158384E+03 0.  0.
          5    1    3    3  502    0 -0.10884228535E+03  0.12392178063E+03 -0.16953371065E+03  0.23656373822E+03  0.41800000000E+01 0. -1.
         -5    1    3    3    0  502  0.24347426562E+02 -0.73073765799E+01 -0.25878919374E+02  0.36515555598E+02  0.41800000000E+01 0. -1.
        -11    1    1    2    0    0 -0.39087821556E+01 -0.61146610397E+02 -0.16726011432E+03  0.17812953821E+03  0.00000000000E+00 0. -1.
         11    1    1    2    0    0  0.88403640942E+02 -0.55467793650E+02 -0.12949163858E+03  0.16631285076E+03  0.00000000000E+00 0.  1.
</event>
<event>
 7    1  0.2648915E-009  0.6739470E+02  0.7561462E-02  0.1369183E+00
          1   -1    0    0  501    0  0.00000000000E+00  0.00000000000E+00  0.27647172499E+03  0.27647172499E+03  0.00000000000E+00 0. -1.
         -1   -1    0    0    0  501 -0.00000000000E+00 -0.00000000000E+00 -0.45369230000E+02  0.45369230000E+02  0.00000000000E+00 0.  1.
         25    2    1    2    0    0 -0.15207631538E+02 -0.28293047917E+01  0.10463528185E+03  0.16380999153E+03  0.12508354846E+03 0.  0.
          5    1    3    3  502    0 -0.64618527965E+00  0.28841511231E+02 -0.19325054059E+02  0.34973996624E+02  0.41800000000E+01 0.  1.
         -5    1    3    3    0  502 -0.14561446258E+02 -0.31670816023E+02  0.12396033591E+03  0.12883599491E+03  0.41800000000E+01 0.  1.
        -11    1    1    2    0    0 -0.20310117974E+02 -0.19843050485E+02  0.41961765077E+01  0.28702882119E+02  0.00000000000E+00 0.  1.
         11    1    1    2    0    0  0.35517749512E+02  0.22672355277E+02  0.12227103663E+03  0.12932808134E+03  0.00000000000E+00 0. -1.
</event>
<event>
 7    1  0.2648915E-009  0.1354768E+03  0.7561462E-02  0.1219548E+00
         -2   -1    0    0    0  501 -0.00000000000E+00  0.00000000000E+00  0.17156522415E+03  0.17156522415E+03  0.00000000000E+00 0. -1.
          2   -1    0    0  501    0  0.00000000000E+00 -0.00000000000E+00 -0.17632316082E+03  0.17632316082E+03  0.00000000000E+00 0.  1.
         25    2    1    2    0    0  0.78174752760E+02 -0.15164573319E+01  0.10629196390E+03  0.18182408006E+03  0.12509365646E+03 0.  0.
          5    1    3    3  502    0  0.40771492418E+02  0.61606312638E+02  0.51368852293E+02  0.90077098847E+02  0.41800000000E+01 0. -1.
         -5    1    3    3    0  502  0.37403260342E+02 -0.63122769970E+02  0.54923111612E+02  0.91746981215E+02  0.41800000000E+01 0. -1.
        -11    1    1    2    0    0 -0.99766186783E+02 -0.75481083420E+01 -0.90471000841E+02  0.13488983638E+03  0.00000000000E+00 0.  1.
         11    1    1    2    0    0  0.21591434023E+02  0.90645656739E+01 -0.20578899731E+02  0.31174468531E+02  0.00000000000E+00 0. -1.
</event>
<event>
 7    1  0.2648915E-009  0.3491513E+03  0.7561462E-02  0.1062964E+00
          1   -1    0    0  501    0  0.00000000000E+00  0.00000000000E+00  0.25165185887E+03  0.25165185887E+03  0.00000000000E+00 0. -1.
         -1   -1    0    0    0  501 -0.00000000000E+00 -0.00000000000E+00 -0.52644795949E+03  0.52644795949E+03  0.00000000000E+00 0.  1.
         25    2    1    2    0    0  0.16206963942E+03  0.30554501340E+03 -0.10880614189E+03  0.38354993193E+03  0.12508976989E+03 0.  0.
          5    1    3    3  502    0  0.43793789796E+02  0.14284515688E+03  0.10171338197E+02  0.14981175985E+03  0.41800000000E+01 0. -1.
         -5    1    3    3    0  502  0.11827584963E+03  0.16269985652E+03 -0.11897748009E+03  0.23373817208E+03  0.41800000000E+01 0. -1.
        -11    1    1    2    0    0 -0.56386932956E+02 -0.14352951884E+03 -0.12083754059E+03  0.19591304245E+03  0.00000000000E+00 0.  1.
         11    1    1    2    0    0 -0.10568270647E+03 -0.16201549456E+03 -0.45152418135E+02  0.19863684398E+03  0.00000000000E+00 0. -1.
</event>
<event>
 7    1  0.2648915E-009  0.1591648E+03  0.7561462E-02  0.1189643E+00
         -1   -1    0    0    0  501 -0.00000000000E+00  0.00000000000E+00  0.13229502270E+04  0.13229502270E+04  0.00000000000E+00 0.  1.
          1   -1    0    0  501    0  0.00000000000E+00 -0.00000000000E+00 -0.25473350255E+02  0.25473350255E+02  0.00000000000E+00 0. -1.
         25    2    1    2    0    0  0.13455932661E+03  0.61046579025E+02  0.68979544321E+03  0.71644893861E+03  0.12509368878E+03 0.  0.
          5    1    3    3  502    0  0.10393464972E+03  0.41837324205E+02  0.23687356172E+03  0.26206741451E+03  0.41800000000E+01 0.  1.
         -5    1    3    3    0  502  0.30624676890E+02  0.19209254820E+02  0.45292188149E+03  0.45438152410E+03  0.41800000000E+01 0.  1.
        -11    1    1    2    0    0 -0.12902385385E+03 -0.78827543255E+02  0.57296267962E+03  0.59257671965E+03  0.00000000000E+00 0.  1.
         11    1    1    2    0    0 -0.55354727585E+01  0.17780964230E+02  0.34718753928E+02  0.39397919005E+02  0.00000000000E+00 0. -1.
</event>
<event>
 7    1  0.2648915E-009  0.1116956E+03  0.7561462E-02  0.1257462E+00
         -2   -1    0    0    0  501 -0.00000000000E+00  0.00000000000E+00  0.26586555016E+03  0.26586555016E+03  0.00000000000E+00 0.  1.
          2   -1    0    0  501    0  0.00000000000E+00 -0.00000000000E+00 -0.70650363140E+02  0.70650363140E+02  0.00000000000E+00 0. -1.
         25    2    1    2    0    0  0.33753210007E+02 -0.69588016658E+02  0.15156580359E+03  0.21119201253E+03  0.12509237423E+03 0.  0.
          5    1    3    3  502    0  0.56424024504E+02 -0.95726473793E+02  0.12547194221E+03  0.16765413507E+03  0.41800000000E+01 0. -1.
         -5    1    3    3    0  502 -0.22670814497E+02  0.26138457135E+02  0.26093861386E+02  0.43537877456E+02  0.41800000000E+01 0. -1.
        -11    1    1    2    0    0 -0.82487835944E+01  0.16700583575E+02  0.61255732407E+02  0.64025125343E+02  0.00000000000E+00 0.  1.
         11    1    1    2    0    0 -0.25504426413E+02  0.52887433082E+02 -0.17606348978E+02  0.61298775428E+02  0.00000000000E+00 0. -1.
</event>
<event>
 7    1  0.2648915E-009  0.1217177E+03  0.7561462E-02  0.1240290E+00
         -3   -1    0    0    0  501 -0.00000000000E+00  0.00000000000E+00  0.56514937698E+03  0.56514937698E+03  0.00000000000E+00 0.  1.
          3   -1    0    0  501    0  0.00000000000E+00 -0.00000000000E+00 -0.34510913538E+02  0.34510913538E+02  0.00000000000E+00 0. -1.
         25    2    1    2    0    0  0.65322703806E+02 -0.56190973576E+02  0.24231446362E+03  0.28598845088E+03  0.12509441879E+03 0.  0.
          5    1    3    3  502    0  0.94685777599E+02 -0.40220240507E+02  0.11528142460E+03  0.15456501378E+03  0.41800000000E+01 0.  1.
         -5    1    3    3    0  502 -0.29363073793E+02 -0.15970733069E+02  0.12703303902E+03  0.13142343710E+03  0.41800000000E+01 0.  1.
        -11    1    1    2    0    0 -0.48560007831E+02  0.42700858847E+00  0.55820646476E+02  0.73987845420E+02  0.00000000000E+00 0. -1.
         11    1    1    2    0    0 -0.16762695974E+02  0.55763964988E+02  0.23250335335E+03  0.23968399423E+03  0.00000000000E+00 0.  1.
</event>
<event>
 7    1  0.2648915E-009  0.1037753E+03  0.7561462E-02  0.1272552E+00
          1   -1    0    0  501    0  0.00000000000E+00  0.00000000000E+00  0.25944182009E+03  0.25944182009E+03  0.00000000000E+00 0. -1.
         -1   -1    0    0    0  501 -0.00000000000E+00 -0.00000000000E+00 -0.10932859297E+03  0.10932859297E+03  0.00000000000E+00 0.  1.
         25    2    1    2    0    0  0.48594117834E+02  0.79889109413E+02  0.17528242823E+03  0.23476535987E+03  0.12508871435E+03 0.  0.
          5    1    3    3  502    0 -0.88439666590E+01 -0.31547676853E+01 -0.15658173914E+02  0.18730165929E+02  0.41800000000E+01 0. -1.
         -5    1    3    3    0  502  0.57438084493E+02  0.83043877098E+02  0.19094060215E+03  0.21603519394E+03  0.41800000000E+01 0. -1.
        -11    1    1    2    0    0 -0.24693894442E+02 -0.60807865470E+02 -0.59104868573E+02  0.88321970171E+02  0.00000000000E+00 0.  1.
         11    1    1    2    0    0 -0.23900223392E+02 -0.19081243943E+02  0.33935667459E+02  0.45683083023E+02  0.00000000000E+00 0. -1.
</event>
<event>
 7    1  0.2648915E-009  0.9127773E+02  0.7561462E-02  0.1299787E+00
         -1   -1    0    0    0  501 -0.00000000000E+00  0.00000000000E+00  0.37750167759E+02  0.37750167759E+02  0.00000000000E+00 0.  1.
          1   -1    0    0  501    0  0.00000000000E+00 -0.00000000000E+00 -0.37070012774E+03  0.37070012774E+03  0.00000000000E+00 0. -1.
         25    2    1    2    0    0 -0.23735488956E+02  0.23829841522E+02 -0.23722903974E+03  0.27029020935E+03  0.12509174710E+03 0.  0.
          5    1    3    3  502    0  0.14668909204E+02  0.56060381698E+02 -0.19841845020E+03  0.20674935809E+03  0.41800000000E+01 0.  1.
         -5    1    3    3    0  502 -0.38404398160E+02 -0.32230540176E+02 -0.38810589545E+02  0.63540851260E+02  0.41800000000E+01 0.  1.
        -11    1    1    2    0    0  0.19802722297E+02  0.21162311722E+02  0.34520251604E+01  0.29187458360E+02  0.00000000000E+00 0.  1.
         11    1    1    2    0    0  0.39327666588E+01 -0.44992153244E+02 -0.99172945402E+02  0.10897262779E+03  0.00000000000E+00 0. -1.
</event>
<event>
 7    1  0.2648915E-009  0.8943634E+02  0.7561462E-02  0.1304222E+00
         -1   -1    0    0    0  501 -0.00000000000E+00  0.00000000000E+00  0.62914848624E+02  0.62914848624E+02  0.00000000000E+00 0.  1.
          1   -1    0    0  501    0  0.00000000000E+00 -0.00000000000E+00 -0.23112602858E+03  0.23112602858E+03  0.00000000000E+00 0. -1.
         25    2    1    2    0    0  0.20966500186E+02  0.31031034189E+00 -0.36013066587E+02  0.13184748232E+03  0.12508847751E+03 0.  0.
          5    1    3    3  502    0  0.47630156367E+02  0.21997282636E+02  0.27595585440E+02  0.59426433300E+02  0.41800000000E+01 0. -1.
         -5    1    3    3    0  502 -0.26663656182E+02 -0.21686972295E+02 -0.63608652027E+02  0.72421049019E+02  0.41800000000E+01 0. -1.
        -11    1    1    2    0    0 -0.14389605859E+02  0.44273279086E+02 -0.49094865948E+02  0.67657149365E+02  0.00000000000E+00 0. -1.
         11    1    1    2    0    0 -0.65768943268E+01 -0.44583589428E+02 -0.83103247423E+02  0.94536245523E+02  0.00000000000E+00 0.  1.
</event>
<event>
 7    1  0.2648915E-009  0.1027262E+03  0.7561462E-02  0.1274665E+00
          1   -1    0    0  501    0  0.00000000000E+00  0.00000000000E+00  0.56222376651E+02  0.56222376651E+02  0.00000000000E+00 0. -1.
         -1   -1    0    0    0  501 -0.00000000000E+00 -0.00000000000E+00 -0.44717886792E+03  0.44717886792E+03  0.00000000000E+00 0.  1.
         25    2    1    2    0    0  0.34183936280E+02 -0.78263834750E+02 -0.87854633213E+02  0.17509733788E+03  0.12508745672E+03 0.  0.
          5    1    3    3  502    0  0.17683738040E+02 -0.49708067455E+02 -0.11856382186E+03  0.12984012791E+03  0.41800000000E+01 0. -1.
         -5    1    3    3    0  502  0.16500198240E+02 -0.28555767296E+02  0.30709188645E+02  0.45257209978E+02  0.41800000000E+01 0. -1.
        -11    1    1    2    0    0 -0.45785182004E+02  0.60963236002E+01 -0.17316102531E+03  0.17921548131E+03  0.00000000000E+00 0.  1.
         11    1    1    2    0    0  0.11601245725E+02  0.72167511150E+02 -0.12994083274E+03  0.14908842538E+03  0.00000000000E+00 0. -1.
</event>
<event>
 7    1  0.2648915E-009  0.2127819E+03  0.7561462E-02  0.1139382E+00
          1   -1    0    0  501    0  0.00000000000E+00  0.00000000000E+00  0.23079964020E+03  0.23079964020E+03  0.00000000000E+00 0. -1.
         -1   -1    0    0    0  501 -0.00000000000E+00 -0.00000000000E+00 -0.38332256506E+03  0.38332256506E+03  0.00000000000E+00 0.  1.
         25    2    1    2    0    0  0.18154902498E+03  0.99356818236E+02 -0.26849229710E+03  0.36134076885E+03  0.12508881576E+03 0.  0.
          5    1    3    3  502    0  0.67525205079E+01  0.66415478562E+01  0.13387171353E+02  0.16923222151E+02  0.41800000000E+01 0. -1.
         -5    1    3    3    0  502  0.17479650448E+03  0.92715270380E+02 -0.28187946846E+03  0.34441754670E+03  0.41800000000E+01 0. -1.
        -11    1    1    2    0    0 -0.99060155148E+02 -0.90788963064E+02  0.39707354896E+02  0.14011503911E+03  0.00000000000E+00 0.  1.
         11    1    1    2    0    0 -0.82488869835E+02 -0.85678551712E+01  0.76262017344E+02  0.11266639729E+03  0.00000000000E+00 0. -1.
</event>
<event>
 7    1  0.2648915E-009  0.1122337E+03  0.7561462E-02  0.1256489E+00
         -1   -1    0    0    0  501 -0.00000000000E+00  0.00000000000E+00  0.23717774070E+03  0.23717774070E+03  0.00000000000E+00 0.  1.
          1   -1    0    0  501    0  0.00000000000E+00 -0.00000000000E+00 -0.70179478237E+02  0.70179478237E+02  0.00000000000E+00 0. -1.
         25    2    1    2    0    0 -0.50778787625E+02  0.14500679489E+02  0.15553948374E+03  0.20646533437E+03  0.12508656330E+03 0.  0.
          5    1    3    3  502    0  0.36821004719E+02 -0.17359908247E+01  0.85031382373E+02  0.92771808438E+02  0.41800000000E+01 0. -1.
         -5    1    3    3    0  502 -0.87599792344E+02  0.16236670314E+02  0.70508101363E+02  0.11369352593E+03  0.41800000000E+01 0. -1.
        -11    1    1    2    0    0  0.38732723109E+02  0.31938988037E+02 -0.43171992202E+01  0.50388103808E+02  0.00000000000E+00 0.  1.
         11    1    1    2    0    0  0.12046064516E+02 -0.46439667526E+02  0.15775977943E+02  0.50503780753E+02  0.00000000000E+00 0. -1.
</event>
<event>
 7    1  0.2648915E-009  0.5224335E+02  0.7561462E-02  0.1433604E+00
          1   -1    0    0  501    0  0.00000000000E+00  0.00000000000E+00  0.10948561296E+03  0.10948561296E+03  0.00000000000E+00 0. -1.
         -1   -1    0    0    0  501 -0.00000000000E+00 -0.00000000000E+00 -0.12262693180E+03  0.12262693180E+03  0.00000000000E+00 0.  1.
         25    2    1    2    0    0 -0.10339791271E+02 -0.12418353824E+02  0.29576599091E+02  0.12955091226E+03  0.12509011495E+03 0.  0.
          5    1    3    3  502    0 -0.18100814256E+02 -0.39748920252E+02  0.68398842914E+02  0.81261862210E+02  0.41800000000E+01 0.  1.
         -5    1    3    3    0  502  0.77610229850E+01  0.27330566427E+02 -0.38822243823E+02  0.48289050048E+02  0.41800000000E+01 0.  1.
        -11    1    1    2    0    0  0.19727509591E+02  0.63872455279E+01 -0.70042080485E+02  0.73047002531E+02  0.00000000000E+00 0.  1.
         11    1    1    2    0    0 -0.93877183197E+01  0.60311082964E+01  0.27324162559E+02  0.29514629967E+02  0.00000000000E+00 0. -1.
</event>
<event>
 7    1  0.2648915E-009  0.1309747E+03  0.7561462E-02  0.1226017E+00
         -1   -1    0    0    0  501 -0.00000000000E+00  0.00000000000E+00  0.22463126563E+03  0.22463126563E+03  0.00000000000E+00 0.  1.
          1   -1    0    0  501    0  0.00000000000E+00 -0.00000000000E+00 -0.96427218603E+02  0.96427218603E+02  0.00000000000E+00 0. -1.
         25    2    1    2    0    0 -0.87887007081E+02 -0.11452933881E+01  0.11765274275E+03  0.19292399160E+03  0.12510819696E+03 0.  0.
          5    1    3    3  502    0 -0.28738178164E+02  0.52826159784E+02  0.89572098579E+02  0.10796814014E+03  0.41800000000E+01 0. -1.
         -5    1    3    3    0  502 -0.59148828917E+02 -0.53971453173E+02  0.28080644171E+02  0.84955851458E+02  0.41800000000E+01 0. -1.
        -11    1    1    2    0    0  0.52258578204E+02  0.42169219436E+02  0.25420586809E+02  0.71801171978E+02  0.00000000000E+00 0.  1.
         11    1    1    2    0    0  0.35628428877E+02 -0.41023926048E+02 -0.14869282536E+02  0.56333320653E+02  0.00000000000E+00 0. -1.
</event>
<event>
 7    1  0.2648915E-009  0.9588882E+02  0.7561462E-02  0.1289187E+00
         -2   -1    0    0    0  501 -0.00000000000E+00  0.00000000000E+00  0.13064336359E+02  0.13064336359E+02  0.00000000000E+00 0.  1.
          2   -1    0    0  501    0  0.00000000000E+00 -0.00000000000E+00 -0.13137064297E+04  0.13137064297E+04  0.00000000000E+00 0. -1.
         25    2    1    2    0    0  0.66269749669E+02  0.35149078764E+01 -0.86696420527E+03  0.87845235246E+03  0.12509023954E+03 0.  0.
          5    1    3    3  502    0  0.28911512262E+02  0.21908691878E+02 -0.58868263243E+02  0.69273451901E+02  0.41800000000E+01 0.  1.
         -5    1    3    3    0  502  0.37358237406E+02 -0.18393784001E+02 -0.80809594203E+03  0.80917890056E+03  0.41800000000E+01 0.  1.
        -11    1    1    2    0    0  0.64200552053E+00  0.35799843537E+02 -0.12419530968E+03  0.12925368821E+03  0.00000000000E+00 0.  1.
         11    1    1    2    0    0 -0.66911755189E+02 -0.39314751413E+02 -0.30948257836E+03  0.31906472536E+03  0.00000000000E+00 0. -1.
</event>
<event>
 7    1  0.2648915E-009  0.1341783E+03  0.7561462E-02  0.1221384E+00
         -2   -1    0    0    0  501 -0.00000000000E+00  0.00000000000E+00  0.12953922262E+03  0.12953922262E+03  0.00000000000E+00 0.  1.
          2   -1    0    0  501    0  0.00000000000E+00 -0.00000000000E+00 -0.25361984316E+03  0.25361984316E+03  0.00000000000E+00 0. -1.
         25    2    1    2    0    0 -0.11851231453E+03 -0.27002565450E+02  0.18104024485E+02  0.17536015186E+03  0.12509644248E+03 0.  0.
          5    1    3    3  502    0 -0.87691704910E+02 -0.32954465738E+01 -0.46832831551E+02  0.99556424148E+02  0.41800000000E+01 0. -1.
         -5    1    3    3    0  502 -0.30820609620E+02 -0.23707118876E+02  0.64936856036E+02  0.75803727709E+02  0.41800000000E+01 0. -1.
        -11    1    1    2    0    0  0.95350827482E+02 -0.11930462980E+02 -0.58115728175E+02  0.11230117591E+03  0.00000000000E+00 0.  1.
         11    1    1    2    0    0  0.23161487047E+02  0.38933028430E+02 -0.84068916856E+02  0.95497738017E+02  0.00000000000E+00 0. -1.
</event>
<event>
 7    1  0.2648915E-009  0.1190111E+03  0.7561462E-02  0.1244737E+00
         -1   -1    0    0    0  501 -0.00000000000E+00  0.00000000000E+00  0.45293277116E+02  0.45293277116E+02  0.00000000000E+00 0.  1.
          1   -1    0    0  501    0  0.00000000000E+00 -0.00000000000E+00 -0.43059906155E+03  0.43059906155E+03  0.00000000000E+00 0. -1.
         25    2    1    2    0    0 -0.38755025998E+02  0.81070364440E+02 -0.21344869593E+03  0.26321065740E+03  0.12508056741E+03 0.  0.
          5    1    3    3  502    0 -0.74649343656E+02  0.40814568470E+02 -0.71187230765E+02  0.11101102527E+03  0.41800000000E+01 0.  1.
         -5    1    3    3    0  502  0.35894317659E+02  0.40255795970E+02 -0.14226146517E+03  0.15219963213E+03  0.41800000000E+01 0.  1.
        -11    1    1    2    0    0  0.28200720749E+02 -0.15203861795E+02 -0.42887193809E+01  0.32323848443E+02  0.00000000000E+00 0.  1.
         11    1    1    2    0    0  0.10554305249E+02 -0.65866502645E+02 -0.16756836912E+03  0.18035783282E+03  0.00000000000E+00 0. -1.
</event>
<event>
 7    1  0.2648915E-009  0.1221427E+03  0.7561462E-02  0.1239604E+00
          1   -1    0    0  501    0  0.00000000000E+00  0.00000000000E+00  0.51982953376E+03  0.51982953376E+03  0.00000000000E+00 0. -1.
         -1   -1    0    0    0  501 -0.00000000000E+00 -0.00000000000E+00 -0.44716967421E+02  0.44716967421E+02  0.00000000000E+00 0.  1.
         25    2    1    2    0    0  0.10384915671E+03  0.67654713911E+01  0.30789152649E+03  0.34824330550E+03  0.12508312751E+03 0.  0.
          5    1    3    3  502    0  0.97408369901E+02 -0.22112839936E+01  0.31804850012E+03  0.33266439715E+03  0.41800000000E+01 0.  1.
         -5    1    3    3    0  502  0.64407868122E+01  0.89767553847E+01 -0.10156973631E+02  0.15578908348E+02  0.41800000000E+01 0.  1.
        -11    1    1    2    0    0 -0.60065920335E+02 -0.46393022812E+02  0.11307167819E+03  0.13618161315E+03  0.00000000000E+00 0. -1.
         11    1    1    2    0    0 -0.43783236378E+02  0.39627551421E+02  0.54149361663E+02  0.80121582535E+02  0.00000000000E+00 0.  1.
</event>
<event>
 7    1  0.2648915E-009  0.1047625E+03  0.7561462E-02  0.1270588E+00
          1   -1    0    0  501    0  0.00000000000E+00  0.00000000000E+00  0.10418329362E+03  0.10418329362E+03  0.00000000000E+00 0. -1.
         -1   -1    0    0    0  501 -0.00000000000E+00 -0.00000000000E+00 -0.17608391016E+03  0.17608391016E+03  0.00000000000E+00 0.  1.
         25    2    1    2    0    0 -0.31297549059E+02  0.59867395372E+02  0.63104427375E+01  0.14230260260E+03  0.12508623991E+03 0.  0.
          5    1    3    3  502    0  0.15551926552E+02  0.80129227298E+02 -0.20826428980E+02  0.84343156396E+02  0.41800000000E+01 0.  1.
         -5    1    3    3    0  502 -0.46849475610E+02 -0.20261831926E+02  0.27136871718E+02  0.57959446207E+02  0.41800000000E+01 0.  1.
        -11    1    1    2    0    0  0.30087847096E+02 -0.18766217145E+02  0.13115415396E+02  0.37808247378E+02  0.00000000000E+00 0. -1.
         11    1    1    2    0    0  0.12097019626E+01 -0.41101178227E+02 -0.91326474675E+02  0.10015635380E+03  0.00000000000E+00 0.  1.
</event>
<event>
 7    1  0.2648915E-009  0.8909659E+02  0.7561462E-02  0.1305054E+00
         -1   -1    0    0    0  501 -0.00000000000E+00  0.00000000000E+00  0.29977183953E+02  0.29977183953E+02  0.00000000000E+00 0.  1.
          1   -1    0    0  501    0  0.00000000000E+00 -0.00000000000E+00 -0.46125100527E+03  0.46125100527E+03  0.00000000000E+00 0. -1.
         25    2    1    2    0    0  0.31197236358E+02  0.11322806744E+01 -0.17304794615E+03  0.21579622686E+03  0.12509144753E+03 0.  0.
          5    1    3    3  502    0 -0.25343275513E+02  0.14049302072E+02 -0.15067494190E+03  0.15349291520E+03  0.41800000000E+01 0. -1.
         -5    1    3    3    0  502  0.56540511871E+02 -0.12917021398E+02 -0.22373004254E+02  0.62303311660E+02  0.41800000000E+01 0. -1.
        -11    1    1    2    0    0 -0.18915921796E+02 -0.43085355129E+02 -0.89265445647E+02  0.10090827375E+03  0.00000000000E+00 0.  1.
         11    1    1    2    0    0 -0.12281314562E+02  0.41953074455E+02 -0.16896042952E+03  0.17452368861E+03  0.00000000000E+00 0. -1.
</event>
<event>
 7    1  0.2648915E-009  0.9256530E+02  0.7561462E-02  0.1296756E+00
          2   -1    0    0  501    0  0.00000000000E+00  0.00000000000E+00  0.74806920739E+03  0.74806920739E+03  0.00000000000E+00 0.  1.
         -2   -1    0    0    0  501 -0.00000000000E+00 -0.00000000000E+00 -0.19561382755E+02  0.19561382755E+02  0.00000000000E+00 0. -1.
         25    2    1    2    0    0 -0.30762898605E+02 -0.43760634959E+02  0.37875240732E+03  0.40244732042E+03  0.12509640508E+03 0.  0.
          5    1    3    3  502    0 -0.25647501790E+02 -0.58528800008E+02  0.38079361321E+03  0.38614072958E+03  0.41800000000E+01 0. -1.
         -5    1    3    3    0  502 -0.51153968148E+01  0.14768165048E+02 -0.20412058910E+01  0.16306590844E+02  0.41800000000E+01 0. -1.
        -11    1    1    2    0    0  0.46377461615E+02 -0.11256575133E+02  0.15082771628E+03  0.15819791222E+03  0.00000000000E+00 0.  1.
         11    1    1    2    0    0 -0.15614563011E+02  0.55017210092E+02  0.19892770103E+03  0.20698535750E+03  0.00000000000E+00 0. -1.
</event>
<event>
 7    1  0.2648915E-009  0.1485405E+03  0.7561462E-02  0.1202278E+00
          1   -1    0    0  501    0  0.00000000000E+00  0.00000000000E+00  0.49630910574E+03  0.49630910574E+03  0.00000000000E+00 0. -1.
         -1   -1    0    0    0  501 -0.00000000000E+00 -0.00000000000E+00 -0.67374565017E+02  0.67374565017E+02  0.00000000000E+00 0.  1.
         25    2    1    2    0    0 -0.97856460080E+02  0.26597851410E+02  0.38542800357E+03  0.41771378038E+03  0.12508686543E+03 0.  0.
          5    1    3    3  502    0 -0.83883658821E+02 -0.38973583309E+02  0.19709777446E+03  0.21776228671E+03  0.41800000000E+01 0. -1.
         -5    1    3    3    0  502 -0.13972801259E+02  0.65571434719E+02  0.18833022911E+03  0.19995149367E+03  0.41800000000E+01 0. -1.
        -11    1    1    2    0    0  0.66870688381E+02  0.29611095743E+02  0.10778591112E+02  0.73923500878E+02  0.00000000000E+00 0. -1.
         11    1    1    2    0    0  0.30985771700E+02 -0.56208947153E+02  0.32727946037E+02  0.72046389498E+02  0.00000000000E+00 0.  1.
</event>
<event>
 7    1  0.2648915E-009  0.1280678E+03  0.7561462E-02  0.1230351E+00
          1   -1    0    0  501    0  0.00000000000E+00  0.00000000000E+00  0.26446725916E+03  0.26446725916E+03  0.00000000000E+00 0. -1.
         -1   -1    0    0    0  501 -0.00000000000E+00 -0.00000000000E+00 -0.79369771346E+02  0.79369771346E+02  0.00000000000E+00 0.  1.
         25    2    1    2    0    0 -0.16383363766E+02  0.78766383973E+02  0.16094610306E+03  0.21914137897E+03  0.12508692192E+03 0.  0.
          5    1    3    3  502    0  0.51435700521E+02  0.54619957318E+02  0.97472493123E+02  0.12307449102E+03  0.41800000000E+01 0. -1.
         -5    1    3    3    0  502 -0.67819064287E+02  0.24146426655E+02  0.63473609934E+02  0.96066887943E+02  0.41800000000E+01 0. -1.
        -11    1    1    2    0    0 -0.23023154966E+02 -0.26568211332E+01 -0.17848080791E+02  0.29251980293E+02  0.00000000000E+00 0.  1.
         11    1    1    2    0    0  0.39406518732E+02 -0.76109562840E+02  0.41999465549E+02  0.95443671245E+02  0.00000000000E+00 0. -1.
</event>
<event>
 7    1  0.2648915E-009  0.1401472E+03  0.7561462E-02  0.1213131E+00
         -1   -1    0    0    0  501 -0.00000000000E+00  0.00000000000E+00  0.15172476982E+03  0.15172476982E+03  0.00000000000E+00 0.  1.
          1   -1    0    0  501    0  0.00000000000E+00 -0.00000000000E+00 -0.22990611101E+03  0.22990611101E+03  0.00000000000E+00 0. -1.
         25    2    1    2    0    0 -0.11400808473E+03  0.37742621674E+02 -0.13547464432E+03  0.22005327143E+03  0.12509082356E+03 0.  0.
          5    1    3    3  502    0 -0.85699933427E+02  0.58148136448E+02 -0.14974812072E+03  0.18211989573E+03  0.41800000000E+01 0. -1.
         -5    1    3    3    0  502 -0.28308151300E+02 -0.20405514774E+02  0.14273476400E+02  0.37933375697E+02  0.41800000000E+01 0. -1.
        -11    1    1    2    0    0  0.10857026257E+03 -0.56203064026E+02  0.26231805639E+02  0.12503757015E+03  0.00000000000E+00 0. -1.
         11    1    1    2    0    0  0.54378221533E+01  0.18460442353E+02  0.31061497498E+02  0.36540039251E+02  0.00000000000E+00 0.  1.
</event>
<event>
 7    1  0.2648915E-009  0.1979246E+03  0.7561462E-02  0.1151502E+00
          1   -1    0    0  501    0  0.00000000000E+00  0.00000000000E+00  0.51787382760E+02  0.51787382760E+02  0.00000000000E+00 0. -1.
         -1   -1    0    0    0  501 -0.00000000000E+00 -0.00000000000E+00 -0.89437215318E+03  0.89437215318E+03  0.00000000000E+00 0.  1.
         25    2    1    2    0    0  0.12979412417E+01 -0.18018136818E+03 -0.34036512940E+03  0.40492555758E+03  0.12509706542E+03 0.  0.
          5    1    3    3  502    0 -0.34100225210E+02 -0.12201787568E+03 -0.29994986887E+03  0.32563566079E+03  0.41800000000E+01 0. -1.
         -5    1    3    3    0  502  0.35398166451E+02 -0.58163492509E+02 -0.40415260530E+02  0.79289896788E+02  0.41800000000E+01 0. -1.
        -11    1    1    2    0    0 -0.41110763653E+02  0.49966142555E+02 -0.18639089569E+03  0.19730249944E+03  0.00000000000E+00 0.  1.
         11    1    1    2    0    0  0.39812822412E+02  0.13021522563E+03 -0.31582874533E+03  0.34393147892E+03  0.00000000000E+00 0. -1.
</event>
<event>
 7    1  0.2648915E-009  0.9951251E+02  0.7561462E-02  0.1281324E+00
          1   -1    0    0  501    0  0.00000000000E+00  0.00000000000E+00  0.11093319937E+04  0.11093319937E+04  0.00000000000E+00 0. -1.
         -1   -1    0    0    0  501 -0.00000000000E+00 -0.00000000000E+00 -0.18775273791E+02  0.18775273791E+02  0.00000000000E+00 0.  1.
         25    2    1    2    0    0 -0.28256481094E+02  0.62046765095E+01  0.95243202866E+03  0.96104527684E+03  0.12507728882E+03 0.  0.
          5    1    3    3  502    0 -0.64357330721E+02  0.42117298142E+02  0.60212527451E+03  0.60703216672E+03  0.41800000000E+01 0. -1.
         -5    1    3    3    0  502  0.36100849626E+02 -0.35912621633E+02  0.35030675415E+03  0.35401311012E+03  0.41800000000E+01 0. -1.
        -11    1    1    2    0    0  0.39206761757E+02 -0.26861097587E+02  0.13543108452E+03  0.14352793242E+03  0.00000000000E+00 0. -1.
         11    1    1    2    0    0 -0.10950280662E+02  0.20656421078E+02  0.26936066970E+01  0.23534058200E+02  0.00000000000E+00 0.  1.
</event>
<event>
 7    1  0.2648915E-009  0.6219281E+02  0.7561462E-02  0.1388853E+00
         -2   -1    0    0    0  501 -0.00000000000E+00  0.00000000000E+00  0.85054200920E+02  0.85054200920E+02  0.00000000000E+00 0.  1.
          2   -1    0    0  501    0  0.00000000000E+00 -0.00000000000E+00 -0.15172025539E+03  0.15172025539E+03  0.00000000000E+00 0. -1.
         25    2    1    2    0    0  0.33615566520E+02 -0.44835290023E+01 -0.55108056488E+02  0.14083540479E+03  0.12509038735E+03 0.  0.
          5    1    3    3  502    0  0.47201413146E+02 -0.87292793036E+01 -0.90462636985E+02  0.10249455991E+03  0.41800000000E+01 0. -1.
         -5    1    3    3    0  502 -0.13585846627E+02  0.42457503013E+01  0.35354580497E+02  0.38340844882E+02  0.41800000000E+01 0. -1.
        -11    1    1    2    0    0  0.13661947897E+02  0.33939126834E+01 -0.38861709334E+02  0.41332794679E+02  0.00000000000E+00 0. -1.
         11    1    1    2    0    0 -0.47277514416E+02  0.10896163189E+01  0.27303711349E+02  0.54606256844E+02  0.00000000000E+00 0.  1.
</event>
<event>
 7    1  0.2648915E-009  0.1702428E+03  0.7561462E-02  0.1177595E+00
          1   -1    0    0  501    0  0.00000000000E+00  0.00000000000E+00  0.12358967085E+03  0.12358967085E+03  0.00000000000E+00 0. -1.
         -1   -1    0    0    0  501 -0.00000000000E+00 -0.00000000000E+00 -0.29454555558E+03  0.29454555558E+03  0.00000000000E+00 0.  1.
         25    2    1    2    0    0  0.15348921390E+03 -0.27911595522E+02 -0.10545955722E+03  0.22606881045E+03  0.12508953954E+03 0.  0.
          5    1    3    3  502    0  0.15440171034E+03 -0.46997709356E+02 -0.12044555497E+03  0.20142809375E+03  0.41800000000E+01 0. -1.
         -5    1    3    3    0  502 -0.91249643459E+00  0.19086113834E+02  0.14985997752E+02  0.24640716703E+02  0.41800000000E+01 0. -1.
        -11    1    1    2    0    0 -0.98565918331E+02  0.33886769340E+02  0.27451736461E+01  0.10426451636E+03  0.00000000000E+00 0. -1.
         11    1    1    2    0    0 -0.54923295570E+02 -0.59751738179E+01 -0.68241501157E+02  0.87801899630E+02  0.00000000000E+00 0.  1.
</event>
<event>
 7    1  0.2648915E-009  0.1078840E+03  0.7561462E-02  0.1264539E+00
         -1   -1    0    0    0  501 -0.00000000000E+00  0.00000000000E+00  0.14657706296E+03  0.14657706296E+03  0.00000000000E+00 0.  1.
          1   -1    0    0  501    0  0.00000000000E+00 -0.00000000000E+00 -0.10417026333E+03  0.10417026333E+03  0.00000000000E+00 0. -1.
         25    2    1    2    0    0 -0.18633217642E+02  0.41354248971E+02  0.59511185640E+02  0.14576006508E+03  0.12508814751E+03 0.  0.
          5    1    3    3  502    0 -0.62063886612E+02 -0.84112290196E+01  0.11061707447E+02  0.63737811122E+02  0.41800000000E+01 0.  1.
         -5    1    3    3    0  502  0.43430668970E+02  0.49765477991E+02  0.48449478193E+02  0.82022253956E+02  0.41800000000E+01 0.  1.
        -11    1    1    2    0    0  0.41560010035E+02 -0.47462899381E+02 -0.37764466454E+02  0.73526295829E+02  0.00000000000E+00 0.  1.
         11    1    1    2    0    0 -0.22926792392E+02  0.61086504103E+01  0.20660080444E+02  0.31460965389E+02  0.00000000000E+00 0. -1.
</event>
<event>
 7    1  0.2648915E-009  0.1259290E+03  0.7561462E-02  0.1233624E+00
          2   -1    0    0  501    0  0.00000000000E+00  0.00000000000E+00  0.11418348200E+03  0.11418348200E+03  0.00000000000E+00 0. -1.
         -2   -1    0    0    0  501 -0.00000000000E+00 -0.00000000000E+00 -0.16480168068E+03  0.16480168068E+03  0.00000000000E+00 0.  1.
         25    2    1    2    0    0 -0.72059719612E+02 -0.15036619649E+02 -0.67761548149E+02  0.16017573956E+03  0.12508372002E+03 0.  0.
          5    1    3    3  502    0 -0.70785487401E+02  0.44599902150E+02 -0.51008240587E+02  0.98076753138E+02  0.41800000000E+01 0.  1.
         -5    1    3    3    0  502 -0.12742322112E+01 -0.59636521799E+02 -0.16753307562E+02  0.62098986419E+02  0.41800000000E+01 0.  1.
        -11    1    1    2    0    0  0.18572023617E+02  0.43790657073E+02 -0.15291363016E+02  0.49963661705E+02  0.00000000000E+00 0. -1.
         11    1    1    2    0    0  0.53487695995E+02 -0.28754037423E+02  0.32434712491E+02  0.68845761419E+02  0.00000000000E+00 0.  1.
</event>
<event>
 7    1  0.2648915E-009  0.1375887E+03  0.7561462E-02  0.1216611E+00
          2   -1    0    0  501    0  0.00000000000E+00  0.00000000000E+00  0.21687967813E+03  0.21687967813E+03  0.00000000000E+00 0. -1.
         -2   -1    0    0    0  501 -0.00000000000E+00 -0.00000000000E+00 -0.10255654211E+03  0.10255654211E+03  0.00000000000E+00 0.  1.
         25    2    1    2    0    0 -0.87245399649E+02 -0.45273960911E+02  0.89223386544E+02  0.18238857418E+03  0.12507313056E+03 0.  0.
          5    1    3    3  502    0  0.81728535199E+01  0.30836200578E+02  0.38431606466E+02  0.50121129041E+02  0.41800000000E+01 0. -1.
         -5    1    3    3    0  502 -0.95418253169E+02 -0.76110161489E+02  0.50791780077E+02  0.13226744514E+03  0.41800000000E+01 0. -1.
        -11    1    1    2    0    0 -0.24642817251E+01  0.29728853578E+02 -0.19525616930E+02  0.35652869954E+02  0.00000000000E+00 0.  1.
         11    1    1    2    0    0  0.89709681374E+02  0.15545107333E+02  0.44625366403E+02  0.10139477610E+03  0.00000000000E+00 0. -1.
</event>
<event>
 7    1  0.2648915E-009  0.9020058E+02  0.7561462E-02  0.1302367E+00
         -1   -1    0    0    0  501 -0.00000000000E+00  0.00000000000E+00  0.81771849405E+02  0.81771849405E+02  0.00000000000E+00 0.  1.
          1   -1    0    0  501    0  0.00000000000E+00 -0.00000000000E+00 -0.21766317060E+03  0.21766317060E+03  0.00000000000E+00 0. -1.
         25    2    1    2    0    0  0.34370378280E+02  0.68005206848E+02 -0.93930426464E+02  0.17400002615E+03  0.12508818098E+03 0.  0.
          5    1    3    3  502    0  0.15506961901E+02  0.74738610770E+02 -0.11912518680E+03  0.14154366230E+03  0.41800000000E+01 0. -1.
         -5    1    3    3    0  502  0.18863416379E+02 -0.67334039216E+01  0.25194760335E+02  0.32456363847E+02  0.41800000000E+01 0. -1.
        -11    1    1    2    0    0 -0.93606561511E+01 -0.54052897297E+02  0.19022475406E+02  0.58061968278E+02  0.00000000000E+00 0.  1.
         11    1    1    2    0    0 -0.25009722129E+02 -0.13952309551E+02 -0.60983370140E+02  0.67373025585E+02  0.00000000000E+00 0. -1.
</event>
<event>
 7    1  0.2648915E-009  0.1316754E+03  0.7561462E-02  0.1224991E+00
         -4   -1    0    0    0  501 -0.00000000000E+00  0.00000000000E+00  0.35778091075E+03  0.35778091075E+03  0.00000000000E+00 0.  1.
          4   -1    0    0  501    0  0.00000000000E+00 -0.00000000000E+00 -0.52829400683E+02  0.52829400683E+02  0.00000000000E+00 0. -1.
         25    2    1    2    0    0  0.50671865143E+02  0.55390641741E+02  0.10919387690E+03  0.18223091321E+03  0.12509613050E+03 0.  0.
          5    1    3    3  502    0  0.22078819548E+02 -0.40156911742E+02  0.36791787186E+02  0.58916549777E+02  0.41800000000E+01 0.  1.
         -5    1    3    3    0  502  0.28593045595E+02  0.95547553482E+02  0.72402089714E+02  0.12331436343E+03  0.41800000000E+01 0.  1.
        -11    1    1    2    0    0 -0.62458844156E+02 -0.16355467132E+01  0.10909725948E+03  0.12572189249E+03  0.00000000000E+00 0.  1.
         11    1    1    2    0    0  0.11786979013E+02 -0.53755095027E+02  0.86660373684E+02  0.10265750573E+03  0.00000000000E+00 0. -1.
</event>
<event>
 7    1  0.2648915E-009  0.2004806E+03  0.7561462E-02  0.1149334E+00
          1   -1    0    0  501    0  0.00000000000E+00  0.00000000000E+00  0.33086581360E+02  0.33086581360E+02  0.00000000000E+00 0. -1.
         -1   -1    0    0    0  501 -0.00000000000E+00 -0.00000000000E+00 -0.13168834056E+04  0.13168834056E+04  0.00000000000E+00 0.  1.
         25    2    1    2    0    0  0.81936472883E+02 -0.15238168295E+03 -0.80476652029E+03  0.83260497653E+03  0.12509249328E+03 0.  0.
          5    1    3    3  502    0 -0.86008837735E+01 -0.11510003828E+03 -0.43624135782E+03  0.45127152434E+03  0.41800000000E+01 0.  1.
         -5    1    3    3    0  502  0.90537356657E+02 -0.37281644670E+02 -0.36852516248E+03  0.38133345219E+03  0.41800000000E+01 0.  1.
        -11    1    1    2    0    0 -0.27449897976E+02  0.20097166939E+01 -0.30058605921E+02  0.40756050471E+02  0.00000000000E+00 0. -1.
         11    1    1    2    0    0 -0.54486574907E+02  0.15037196626E+03 -0.44897169801E+03  0.47660895994E+03  0.00000000000E+00 0.  1.
</event>
<event>
 7    1  0.4000560E-009  0.1310481E+03  0.7561462E-02  0.1225909E+00
         -2   -1    0    0    0  501 -0.00000000000E+00  0.00000000000E+00  0.42557294384E+02  0.42557294384E+02  0.00000000000E+00 0.  1.
          2   -1    0    0  501    0  0.00000000000E+00 -0.00000000000E+00 -0.54306760468E+03  0.54306760468E+03  0.00000000000E+00 0. -1.
         25    2    1    2    0    0 -0.74517549954E+02  0.61259217650E+02 -0.18429189738E+03  0.24272430068E+03  0.12508407454E+03 0.  0.
          5    1    3    3  502    0  0.11696132663E+02  0.50643662323E+02 -0.18176818049E+02  0.55221817854E+02  0.41800000000E+01 0.  1.
         -5    1    3    3    0  502 -0.86213682617E+02  0.10615555327E+02 -0.16611507933E+03  0.18750248282E+03  0.41800000000E+01 0.  1.
        -11    1    1    2    0    0  0.61034604929E+02 -0.79786906359E+00 -0.92970884813E+02  0.11121800671E+03  0.00000000000E+00 0.  1.
         11    1    1    2    0    0  0.13482945025E+02 -0.60461348586E+02 -0.22324752811E+03  0.23168259168E+03  0.00000000000E+00 0. -1.
</event>
<event>
 7    1  0.2648915E-009  0.9767558E+02  0.7561462E-02  0.1285261E+00
          1   -1    0    0  501    0  0.00000000000E+00  0.00000000000E+00  0.46078569600E+03  0.46078569600E+03  0.00000000000E+00 0. -1.
         -1   -1    0    0    0  501 -0.00000000000E+00 -0.00000000000E+00 -0.36260315789E+02  0.36260315789E+02  0.00000000000E+00 0.  1.
         25    2    1    2    0    0 -0.44787341168E+02  0.14989577382E+01  0.33133000472E+03  0.35698048710E+03  0.12508934144E+03 0.  0.
          5    1    3    3  502    0 -0.33304217739E+02 -0.56500640248E+02  0.11273502442E+03  0.13049195913E+03  0.41800000000E+01 0. -1.
         -5    1    3    3    0  502 -0.11483123429E+02  0.57999597986E+02  0.21859498030E+03  0.22648852797E+03  0.41800000000E+01 0. -1.
        -11    1    1    2    0    0 -0.22884277282E+01  0.18911421906E+02 -0.12354584323E+02  0.22704945139E+02  0.00000000000E+00 0.  1.
         11    1    1    2    0    0  0.47075768896E+02 -0.20410379644E+02  0.10554995981E+03  0.11736057954E+03  0.00000000000E+00 0. -1.
</event>
<event>
 7    1  0.2648915E-009  0.2768497E+03  0.7561462E-02  0.1097422E+00
          2   -1    0    0  501    0  0.00000000000E+00  0.00000000000E+00  0.25067841185E+04  0.25067841185E+04  0.00000000000E+00 0.  1.
         -2   -1    0    0    0  501 -0.00000000000E+00 -0.00000000000E+00 -0.32530801144E+02  0.32530801144E+02  0.00000000000E+00 0. -1.
         25    2    1    2    0    0  0.16098261807E+03  0.19831053947E+03  0.15777552747E+04  0.16031847999E+04  0.12508925821E+03 0.  0.
          5    1    3    3  502    0  0.10632814401E+03  0.20299689034E+03  0.12954936635E+04  0.13156119171E+04  0.41800000000E+01 0.  1.
         -5    1    3    3    0  502  0.54654474055E+02 -0.46863508697E+01  0.28226161119E+03  0.28757288288E+03  0.41800000000E+01 0.  1.
        -11    1    1    2    0    0 -0.45839501576E+02 -0.12462267432E+03  0.43734359065E+03  0.45705742215E+03  0.00000000000E+00 0.  1.
         11    1    1    2    0    0 -0.11514311649E+03 -0.73687865150E+02  0.45915445201E+03  0.47907269756E+03  0.00000000000E+00 0. -1.
</event>
<event>
 7    1  0.2648915E-009  0.1415175E+03  0.7561462E-02  0.1211302E+00
          4   -1    0    0  501    0  0.00000000000E+00  0.00000000000E+00  0.23782010017E+02  0.23782010017E+02  0.00000000000E+00 0. -1.
         -4   -1    0    0    0  501 -0.00000000000E+00 -0.00000000000E+00 -0.95456292242E+03  0.95456292242E+03  0.00000000000E+00 0.  1.
         25    2    1    2    0    0  0.92704390223E+01 -0.10040790974E+03 -0.52157734591E+03  0.54576422805E+03  0.12509186814E+03 0.  0.
          5    1    3    3  502    0 -0.43591480519E+02 -0.63445277363E+01 -0.24291664246E+03  0.24691382664E+03  0.41800000000E+01 0. -1.
         -5    1    3    3    0  502  0.52861919541E+02 -0.94063382000E+02 -0.27866070345E+03  0.29885040140E+03  0.41800000000E+01 0. -1.
        -11    1    1    2    0    0 -0.35612371046E+02  0.10514072959E+02 -0.56193575826E+02  0.67353579459E+02  0.00000000000E+00 0. -1.
         11    1    1    2    0    0  0.26341932024E+02  0.89893836777E+02 -0.35300999067E+03  0.36522712493E+03  0.00000000000E+00 0.  1.
</event>
<event>
 7    1  0.2648915E-009  0.1031413E+03  0.7561462E-02  0.1273825E+00
         -2   -1    0    0    0  501 -0.00000000000E+00  0.00000000000E+00  0.46663912172E+03  0.46663912172E+03  0.00000000000E+00 0.  1.
          2   -1    0    0  501    0  0.00000000000E+00 -0.00000000000E+00 -0.32284960083E+02  0.32284960083E+02  0.00000000000E+00 0. -1.
         25    2    1    2    0    0  0.11829685150E+01 -0.31299805691E+02  0.14379714939E+03  0.19314787783E+03  0.12508958905E+03 0.  0.
          5    1    3    3  502    0 -0.60882035755E+02 -0.69589642991E+01  0.58648681789E+02  0.84924612083E+02  0.41800000000E+01 0. -1.
         -5    1    3    3    0  502  0.62065004270E+02 -0.24340841392E+02  0.85148467598E+02  0.10822326575E+03  0.41800000000E+01 0. -1.
        -11    1    1    2    0    0 -0.36348320031E+02  0.16004341668E+02  0.23461278165E+03  0.23795061806E+03  0.00000000000E+00 0. -1.
         11    1    1    2    0    0  0.35165351516E+02  0.15295464023E+02  0.55944230597E+02  0.67825585910E+02  0.00000000000E+00 0.  1.
</event>
<event>
 7    1  0.2648915E-009  0.1616630E+03  0.7561462E-02  0.1186832E+00
          1   -1    0    0  501    0  0.00000000000E+00  0.00000000000E+00  0.14744142767E+03  0.14744142767E+03  0.00000000000E+00 0. -1.
         -1   -1    0    0    0  501 -0.00000000000E+00 -0.00000000000E+00 -0.22976000676E+03  0.22976000676E+03  0.00000000000E+00 0.  1.
         25    2    1    2    0    0 -0.88613782016E+02 -0.10897211530E+03 -0.33500671689E+01  0.18811156851E+03  0.12508962779E+03 0.  0.
          5    1    3    3  502    0 -0.35527902406E+02 -0.10736877399E+03  0.39370420410E+02  0.11982398708E+03  0.41800000000E+01 0. -1.
         -5    1    3    3    0  502 -0.53085879610E+02 -0.16033413066E+01 -0.42720487579E+02  0.68287581421E+02  0.41800000000E+01 0. -1.
        -11    1    1    2    0    0  0.42457522696E+02  0.45356984497E+01  0.10570236789E+02  0.43987994949E+02  0.00000000000E+00 0.  1.
         11    1    1    2    0    0  0.46156259320E+02  0.10443641685E+03 -0.89538748713E+02  0.14510187097E+03  0.00000000000E+00 0. -1.
</event>
<event>
 7    1  0.2648915E-009  0.9756334E+02  0.7561462E-02  0.1285505E+00
          2   -1    0    0  501    0  0.00000000000E+00  0.00000000000E+00  0.10516727835E+03  0.10516727835E+03  0.00000000000E+00 0. -1.
         -2   -1    0    0    0  501 -0.00000000000E+00 -0.00000000000E+00 -0.12876379349E+03  0.12876379349E+03  0.00000000000E+00 0.  1.
         25    2    1    2    0    0 -0.14060329779E+02 -0.14281047675E+02  0.25537177081E+02  0.12923408197E+03  0.12509060450E+03 0.  0.
          5    1    3    3  502    0 -0.33980025055E+02 -0.63800771283E+02  0.21556365826E+02  0.75546871720E+02  0.41800000000E+01 0. -1.
         -5    1    3    3    0  502  0.19919695276E+02  0.49519723609E+02  0.39808112542E+01  0.53687210250E+02  0.41800000000E+01 0. -1.
        -11    1    1    2    0    0 -0.14709463609E+02 -0.19745409880E+02 -0.54511847857E+02  0.59814639410E+02  0.00000000000E+00 0.  1.
         11    1    1    2    0    0  0.28769793388E+02  0.34026457554E+02  0.53781556330E+01  0.44882350466E+02  0.00000000000E+00 0. -1.
</event>
<event>
 7    1  0.2648915E-009  0.1033654E+03  0.7561462E-02  0.1273374E+00
          3   -1    0    0  501    0  0.00000000000E+00  0.00000000000E+00  0.35491548348E+02  0.35491548348E+02  0.00000000000E+00 0. -1.
         -3   -1    0    0    0  501 -0.00000000000E+00 -0.00000000000E+00 -0.35586971535E+03  0.35586971535E+03  0.00000000000E+00 0.  1.
         25    2    1    2    0    0  0.26463964098E+02 -0.52507361700E+01 -0.15386231256E+03  0.20012499956E+03  0.12509393509E+03 0.  0.
          5    1    3    3  502    0  0.40153140381E+01 -0.64337926594E+02 -0.75671571691E+02  0.99494475763E+02  0.41800000000E+01 0.  1.
         -5    1    3    3    0  502  0.22448650059E+02  0.59087190424E+02 -0.78190740869E+02  0.10063052380E+03  0.41800000000E+01 0.  1.
        -11    1    1    2    0    0 -0.26003396479E+02  0.37993652398E+02 -0.41434815739E+02  0.61939795013E+02  0.00000000000E+00 0. -1.
         11    1    1    2    0    0 -0.46056761894E+00 -0.32742916228E+02 -0.12508103871E+03  0.12929646913E+03  0.00000000000E+00 0.  1.
</event>
<event>
 7    1  0.2648915E-009  0.1387852E+03  0.7561462E-02  0.1214973E+00
          2   -1    0    0  501    0  0.00000000000E+00  0.00000000000E+00  0.14736543729E+03  0.14736543729E+03  0.00000000000E+00 0. -1.
         -2   -1    0    0    0  501 -0.00000000000E+00 -0.00000000000E+00 -0.21398848479E+03  0.21398848479E+03  0.00000000000E+00 0.  1.
         25    2    1    2    0    0  0.86929273589E+01  0.95618857080E+02 -0.13930835506E+03  0.21041020617E+03  0.12508838578E+03 0.  0.
          5    1    3    3  502    0 -0.54093395266E+02  0.58188013529E+02 -0.46329151357E+02  0.92064124366E+02  0.41800000000E+01 0.  1.
         -5    1    3    3    0  502  0.62786322625E+02  0.37430843550E+02 -0.92979203700E+02  0.11834608180E+03  0.41800000000E+01 0.  1.
        -11    1    1    2    0    0 -0.34901602638E+02 -0.11590950077E+02 -0.24310030533E-01  0.36775978320E+02  0.00000000000E+00 0.  1.
         11    1    1    2    0    0  0.26208675280E+02 -0.84027907003E+02  0.72709617591E+02  0.11416773759E+03  0.00000000000E+00 0. -1.
</event>
<event>
 7    1  0.2648915E-009  0.1031173E+03  0.7561462E-02  0.1273874E+00
         -1   -1    0    0    0  501 -0.00000000000E+00  0.00000000000E+00  0.42972314700E+02  0.42972314700E+02  0.00000000000E+00 0.  1.
          1   -1    0    0  501    0  0.00000000000E+00 -0.00000000000E+00 -0.38462961799E+03  0.38462961799E+03  0.00000000000E+00 0. -1.
         25    2    1    2    0    0  0.65053419153E+02 -0.24356567931E+02 -0.18559300097E+03  0.23434387804E+03  0.12508837445E+03 0.  0.
          5    1    3    3  502    0 -0.72461618786E+01 -0.20898524179E+02  0.10820324889E+02  0.24976128714E+02  0.41800000000E+01 0.  1.
         -5    1    3    3    0  502  0.72299581031E+02 -0.34580437513E+01 -0.19641332586E+03  0.20936774932E+03  0.41800000000E+01 0.  1.
        -11    1    1    2    0    0 -0.47329914748E+02  0.56992754558E+02 -0.12271904190E+03  0.14334663633E+03  0.00000000000E+00 0. -1.
         11    1    1    2    0    0 -0.17723504405E+02 -0.32636186627E+02 -0.33345260416E+02  0.49911418314E+02  0.00000000000E+00 0.  1.
</event>
<event>
 7    1  0.3328456E-009  0.1056891E+03  0.7561462E-02  0.1268768E+00
         -2   -1    0    0    0  501 -0.00000000000E+00  0.00000000000E+00  0.23830573112E+02  0.23830573112E+02  0.00000000000E+00 0. -1.
          2   -1    0    0  501    0  0.00000000000E+00 -0.00000000000E+00 -0.56274769686E+03  0.56274769686E+03  0.00000000000E+00 0.  1.
         25    2    1    2    0    0  0.40544831765E+02 -0.20159582629E+01 -0.29847871200E+03  0.32616693826E+03  0.12508949849E+03 0.  0.
          5    1    3    3  502    0 -0.37415821428E+02  0.27378036767E+01 -0.35558030281E+02  0.51858318326E+02  0.41800000000E+01 0. -1.
         -5    1    3    3    0  502  0.77960653193E+02 -0.47537619396E+01 -0.26292068171E+03  0.27430861994E+03  0.41800000000E+01 0. -1.
        -11    1    1    2    0    0  0.20194630769E+02  0.23500758851E+02 -0.45069993141E+02  0.54693811900E+02  0.00000000000E+00 0. -1.
         11    1    1    2    0    0 -0.60739462534E+02 -0.21484800588E+02 -0.19536841861E+03  0.20571751981E+03  0.00000000000E+00 0.  1.
</event>
<event>
 7    1  0.2648915E-009  0.1054892E+03  0.7561462E-02  0.1269159E+00
          2   -1    0    0  501    0  0.00000000000E+00  0.00000000000E+00  0.10601551066E+03  0.10601551066E+03  0.00000000000E+00 0. -1.
         -2   -1    0    0    0  501 -0.00000000000E+00 -0.00000000000E+00 -0.13045668720E+03  0.13045668720E+03  0.00000000000E+00 0.  1.
         25    2    1    2    0    0 -0.12447199037E+02 -0.21984654418E+02 -0.53482498278E+02  0.13837099090E+03  0.12509154930E+03 0.  0.
          5    1    3    3  502    0  0.28978210073E+02 -0.61773558963E+02 -0.17866261854E+02  0.70656811127E+02  0.41800000000E+01 0. -1.
         -5    1    3    3    0  502 -0.41425409110E+02  0.39788904545E+02 -0.35616236424E+02  0.67714179769E+02  0.41800000000E+01 0. -1.
        -11    1    1    2    0    0 -0.15361420219E+02  0.45866724431E+02 -0.42849639077E+01  0.48560174597E+02  0.00000000000E+00 0. -1.
         11    1    1    2    0    0  0.27808619256E+02 -0.23882070013E+02  0.33326285650E+02  0.49541032369E+02  0.00000000000E+00 0.  1.
</event>
<event>
 7    1  0.2648915E-009  0.1032485E+03  0.7561462E-02  0.1273609E+00
          2   -1    0    0  501    0  0.00000000000E+00  0.00000000000E+00  0.14643219157E+04  0.14643219157E+04  0.00000000000E+00 0. -1.
         -2   -1    0    0    0  501 -0.00000000000E+00 -0.00000000000E+00 -0.10595596372E+02  0.10595596372E+02  0.00000000000E+00 0.  1.
         25    2    1    2    0    0 -0.55095967550E+01 -0.60566111328E+02  0.91865383968E+03  0.92912382502E+03  0.12509034955E+03 0.  0.
          5    1    3    3  502    0 -0.28940599469E+02 -0.68523492846E+02  0.87929055032E+03  0.88244114345E+03  0.41800000000E+01 0. -1.
         -5    1    3    3    0  502  0.23431002714E+02  0.79573815182E+01  0.39363289360E+02  0.46682681564E+02  0.41800000000E+01 0. -1.
        -11    1    1    2    0    0 -0.29497818965E+02 -0.74313429813E+01  0.12481284535E+03  0.12846630899E+03  0.00000000000E+00 0.  1.
         11    1    1    2    0    0  0.35007415719E+02  0.67997454309E+02  0.41025963433E+03  0.41732737810E+03  0.00000000000E+00 0. -1.
</event>
<event>
 7    1  0.2648915E-009  0.7578919E+02  0.7561462E-02  0.1341444E+00
         -1   -1    0    0    0  501 -0.00000000000E+00  0.00000000000E+00  0.28536433628E+03  0.28536433628E+03  0.00000000000E+00 0.  1.
          1   -1    0    0  501    0  0.00000000000E+00 -0.00000000000E+00 -0.56265036344E+02  0.56265036344E+02  0.00000000000E+00 0. -1.
         25    2    1    2    0    0 -0.43803989068E+02 -0.19294567820E+02  0.65278198676E+02  0.14899330185E+03  0.12508673378E+03 0.  0.
          5    1    3    3  502    0  0.26351939347E+01 -0.36759758245E+02 -0.25808716072E+02  0.45186129493E+02  0.41800000000E+01 0. -1.
         -5    1    3    3    0  502 -0.46439183002E+02  0.17465190425E+02  0.91086914748E+02  0.10380717236E+03  0.41800000000E+01 0. -1.
        -11    1    1    2    0    0 -0.20169349371E+00  0.20669270511E+02 -0.22831755490E+01  0.20795968703E+02  0.00000000000E+00 0. -1.
         11    1    1    2    0    0  0.44005682561E+02 -0.13747026908E+01  0.16610427681E+03  0.17184010207E+03  0.00000000000E+00 0.  1.
</event>
<event>
 7    1  0.2648915E-009  0.9085009E+02  0.7561462E-02  0.1300806E+00
         -1   -1    0    0    0  501 -0.00000000000E+00  0.00000000000E+00  0.80631948046E+02  0.80631948046E+02  0.00000000000E+00 0. -1.
          1   -1    0    0  501    0  0.00000000000E+00 -0.00000000000E+00 -0.23375634069E+03  0.23375634069E+03  0.00000000000E+00 0.  1.
         25    2    1    2    0    0 -0.61672420458E+01  0.52360023127E+02 -0.15553378480E+03  0.20644282758E+03  0.12509306914E+03 0.  0.
          5    1    3    3  502    0 -0.48852640090E+02  0.18787013779E+02 -0.13341562487E+02  0.54175658926E+02  0.41800000000E+01 0.  1.
         -5    1    3    3    0  502  0.42685398044E+02  0.33573009347E+02 -0.14219222231E+03  0.15226716865E+03  0.41800000000E+01 0.  1.
        -11    1    1    2    0    0 -0.14499166414E+02  0.37118596478E+01 -0.34569492923E+02  0.37670327443E+02  0.00000000000E+00 0.  1.
         11    1    1    2    0    0  0.20666408459E+02 -0.56071882774E+02  0.36978885081E+02  0.70275133713E+02  0.00000000000E+00 0. -1.
</event>
<event>
 7    1  0.2648915E-009  0.1054796E+03  0.7561462E-02  0.1269178E+00
          2   -1    0    0  501    0  0.00000000000E+00  0.00000000000E+00  0.83011701507E+03  0.83011701507E+03  0.00000000000E+00 0. -1.
         -2   -1    0    0    0  501 -0.00000000000E+00 -0.00000000000E+00 -0.21841638199E+02  0.21841638199E+02  0.00000000000E+00 0.  1.
         25    2    1    2    0    0 -0.32337186274E+02 -0.75484192269E+02  0.40081929686E+03  0.42784313098E+03  0.12510027616E+03 0.  0.
          5    1    3    3  502    0  0.46072054325E+01 -0.49140313423E+02  0.38673737319E+02  0.62842080674E+02  0.41800000000E+01 0. -1.
         -5    1    3    3    0  502 -0.36944391706E+02 -0.26343878845E+02  0.36214555954E+03  0.36500105031E+03  0.41800000000E+01 0. -1.
        -11    1    1    2    0    0  0.46925477527E+02  0.89835031758E+01  0.20593567199E+03  0.21140530922E+03  0.00000000000E+00 0. -1.
         11    1    1    2    0    0 -0.14588291253E+02  0.66500689093E+02  0.20152040803E+03  0.21271021307E+03  0.00000000000E+00 0.  1.
</event>
<event>
 7    1  0.2648915E-009  0.1129337E+03  0.7561462E-02  0.1255232E+00
         -2   -1    0    0    0  501 -0.00000000000E+00  0.00000000000E+00  0.26032943236E+03  0.26032943236E+03  0.00000000000E+00 0. -1.
          2   -1    0    0  501    0  0.00000000000E+00 -0.00000000000E+00 -0.72795846118E+02  0.72795846118E+02  0.00000000000E+00 0.  1.
         25    2    1    2    0    0  0.12889079298E+02  0.75216064281E+02  0.57887645735E+02  0.15754886091E+03  0.12508828624E+03 0.  0.
          5    1    3    3  502    0  0.89816734223E+01  0.92609628740E+02  0.84157306023E+02  0.12552744062E+03  0.41800000000E+01 0. -1.
         -5    1    3    3    0  502  0.39074058760E+01 -0.17393564459E+02 -0.26269660288E+02  0.32021420283E+02  0.41800000000E+01 0. -1.
        -11    1    1    2    0    0  0.36082355847E+02 -0.41341633968E+02  0.39789842243E+02  0.67781255878E+02  0.00000000000E+00 0.  1.
         11    1    1    2    0    0 -0.48971435146E+02 -0.33874430313E+02  0.89856098269E+02  0.10779516170E+03  0.00000000000E+00 0. -1.
</event>
<event>
 7    1  0.2648915E-009  0.9820715E+02  0.7561462E-02  0.1284112E+00
         -2   -1    0    0    0  501 -0.00000000000E+00  0.00000000000E+00  0.42714619779E+02  0.42714619779E+02  0.00000000000E+00 0.  1.
          2   -1    0    0  501    0  0.00000000000E+00 -0.00000000000E+00 -0.71514062357E+03  0.71514062357E+03  0.00000000000E+00 0. -1.
         25    2    1    2    0    0 -0.38648593416E+02 -0.41137379431E+02 -0.62826828535E+03  0.64308274906E+03  0.12509350901E+03 0.  0.
          5    1    3    3  502    0 -0.33590540522E+01  0.38773313813E+02 -0.32831029073E+03  0.33063540722E+03  0.41800000000E+01 0.  1.
         -5    1    3    3    0  502 -0.35289539364E+02 -0.79910693244E+02 -0.29995799462E+03  0.31244734184E+03  0.41800000000E+01 0.  1.
        -11    1    1    2    0    0  0.35005877636E+02  0.72694440209E+01 -0.65466671531E+02  0.74593172387E+02  0.00000000000E+00 0. -1.
         11    1    1    2    0    0  0.36427157797E+01  0.33867935410E+02  0.21308953090E+02  0.40179321908E+02  0.00000000000E+00 0.  1.
</event>
<event>
 7    1  0.2648915E-009  0.2040921E+03  0.7561462E-02  0.1146332E+00
          2   -1    0    0  501    0  0.00000000000E+00  0.00000000000E+00  0.14977400882E+04  0.14977400882E+04  0.00000000000E+00 0. -1.
         -2   -1    0    0    0  501 -0.00000000000E+00 -0.00000000000E+00 -0.30448588517E+02  0.30448588517E+02  0.00000000000E+00 0.  1.
         25    2    1    2    0    0  0.18412943726E+03 -0.24252568332E+02  0.73654611154E+03  0.76982975958E+03  0.12508336251E+03 0.  0.
          5    1    3    3  502    0  0.20842949077E+02  0.27457913957E+02  0.28087590587E+03  0.28301433261E+03  0.41800000000E+01 0.  1.
         -5    1    3    3    0  502  0.16328648818E+03 -0.51710482289E+02  0.45567020567E+03  0.48681542698E+03  0.41800000000E+01 0.  1.
        -11    1    1    2    0    0 -0.64354164117E+02  0.47669214276E+02  0.31969903021E+03  0.32957742997E+03  0.00000000000E+00 0.  1.
         11    1    1    2    0    0 -0.11977527314E+03 -0.23416645945E+02  0.41104635789E+03  0.42878148712E+03  0.00000000000E+00 0. -1.
</event>
<event>
 7    1  0.2648915E-009  0.1200410E+03  0.7561462E-02  0.1243029E+00
         -4   -1    0    0    0  501 -0.00000000000E+00  0.00000000000E+00  0.34402895813E+03  0.34402895813E+03  0.00000000000E+00 0.  1.
          4   -1    0    0  501    0  0.00000000000E+00 -0.00000000000E+00 -0.66248289564E+02  0.66248289564E+02  0.00000000000E+00 0. -1.
         25    2    1    2    0    0 -0.40077672109E+01 -0.99732191401E+02  0.10427990940E+03  0.19100822705E+03  0.12508905267E+03 0.  0.
          5    1    3    3  502    0  0.12738577605E+02  0.42826660519E+01 -0.22236557389E+02  0.26316334707E+02  0.41800000000E+01 0.  1.
         -5    1    3    3    0  502 -0.16746344816E+02 -0.10401485745E+03  0.12651646679E+03  0.16469189235E+03  0.41800000000E+01 0.  1.
        -11    1    1    2    0    0  0.10257914087E+02 -0.77814742084E+01  0.65482901480E+02  0.66736695517E+02  0.00000000000E+00 0.  1.
         11    1    1    2    0    0 -0.62501468762E+01  0.10751366561E+03  0.10801785769E+03  0.15253232513E+03  0.00000000000E+00 0. -1.
</event>
<event>
 7    1  0.2648915E-009  0.2414026E+03  0.7561462E-02  0.1118862E+00
         -2   -1    0    0    0  501 -0.00000000000E+00  0.00000000000E+00  0.16655004179E+03  0.16655004179E+03  0.00000000000E+00 0.  1.
          2   -1    0    0  501    0  0.00000000000E+00 -0.00000000000E+00 -0.47228862658E+03  0.47228862658E+03  0.00000000000E+00 0. -1.
         25    2    1    2    0    0  0.21629178400E+03 -0.10615798583E+03 -0.26048747805E+03  0.37623468415E+03  0.12508859883E+03 0.  0.
          5    1    3    3  502    0  0.19819336736E+03 -0.93052832719E+02 -0.27324182912E+03  0.35016854531E+03  0.41800000000E+01 0. -1.
         -5    1    3    3    0  502  0.18098416637E+02 -0.13105153114E+02  0.12754351071E+02  0.26066138843E+02  0.41800000000E+01 0. -1.
        -11    1    1    2    0    0 -0.13116833517E+03  0.59847843305E+02 -0.73274219382E+02  0.16172819088E+03  0.00000000000E+00 0. -1.
         11    1    1    2    0    0 -0.85123448828E+02  0.46310142528E+02  0.28023112638E+02  0.10087579335E+03  0.00000000000E+00 0.  1.
</event>
<event>
 7    1  0.2648915E-009  0.2555545E+03  0.7561462E-02  0.1109844E+00
         -2   -1    0    0    0  501 -0.00000000000E+00  0.00000000000E+00  0.49527429186E+03  0.49527429186E+03  0.00000000000E+00 0.  1.
          2   -1    0    0  501    0  0.00000000000E+00 -0.00000000000E+00 -0.15217777620E+03  0.15217777620E+03  0.00000000000E+00 0. -1.
         25    2    1    2    0    0  0.93867292946E+02  0.22939442767E+03  0.22818231206E+03  0.35937125533E+03  0.12509060513E+03 0.  0.
          5    1    3    3  502    0 -0.12374937942E+02  0.70997465817E+02  0.15818706204E+02  0.73901847794E+02  0.41800000000E+01 0. -1.
         -5    1    3    3    0  502  0.10624223089E+03  0.15839696186E+03  0.21236360586E+03  0.28546940754E+03  0.41800000000E+01 0. -1.
        -11    1    1    2    0    0 -0.68816033326E+02 -0.15336906580E+03  0.12202307438E+03  0.20771939599E+03  0.00000000000E+00 0.  1.
         11    1    1    2    0    0 -0.25051259620E+02 -0.76025361873E+02 -0.71088707878E+01  0.80361416739E+02  0.00000000000E+00 0. -1.
</event>
<event>
 7    1  0.2648915E-009  0.1297666E+03  0.7561462E-02  0.1227802E+00
         -1   -1    0    0    0  501 -0.00000000000E+00  0.00000000000E+00  0.58670423219E+03  0.58670423219E+03  0.00000000000E+00 0.  1.
          1   -1    0    0  501    0  0.00000000000E+00 -0.00000000000E+00 -0.39828996229E+02  0.39828996229E+02  0.00000000000E+00 0. -1.
         25    2    1    2    0    0 -0.57828377753E+02 -0.81271929965E+02  0.36868023160E+03  0.40189812784E+03  0.12509094340E+03 0.  0.
          5    1    3    3  502    0 -0.61600366641E+01 -0.84454438705E+02  0.11453066738E+03  0.14249647167E+03  0.41800000000E+01 0.  1.
         -5    1    3    3    0  502 -0.51668341089E+02  0.31825087395E+01  0.25414956422E+03  0.25940165617E+03  0.41800000000E+01 0.  1.
        -11    1    1    2    0    0  0.56260923671E+02  0.17350019171E+02  0.36736309066E+02  0.69396477586E+02  0.00000000000E+00 0. -1.
         11    1    1    2    0    0  0.15674540815E+01  0.63921910794E+02  0.14145869530E+03  0.15523862299E+03  0.00000000000E+00 0.  1.
</event>
<event>
 7    1  0.2648915E-009  0.1325412E+03  0.7561462E-02  0.1223733E+00
         -2   -1    0    0    0  501 -0.00000000000E+00  0.00000000000E+00  0.34974989801E+02  0.34974989801E+02  0.00000000000E+00 0. -1.
          2   -1    0    0  501    0  0.00000000000E+00 -0.00000000000E+00 -0.81254658350E+03  0.81254658350E+03  0.00000000000E+00 0.  1.
         25    2    1    2    0    0 -0.47100299929E+01 -0.12632549384E+03 -0.34237716321E+03  0.38581540172E+03  0.12510430666E+03 0.  0.
          5    1    3    3  502    0 -0.51416786776E+01 -0.10505785234E+03 -0.34787276732E+03  0.36345085478E+03  0.41800000000E+01 0. -1.
         -5    1    3    3    0  502  0.43164868470E+00 -0.21267641500E+02  0.54956041088E+01  0.22364546945E+02  0.41800000000E+01 0. -1.
        -11    1    1    2    0    0  0.29797998501E+02  0.81375086972E+02 -0.36196163346E+03  0.37219087790E+03  0.00000000000E+00 0.  1.
         11    1    1    2    0    0 -0.25087968508E+02  0.44950406869E+02 -0.73232797033E+02  0.89515293681E+02  0.00000000000E+00 0. -1.
</event>
<event>
 7    1  0.2648915E-009  0.1415059E+03  0.7561462E-02  0.1211317E+00
          2   -1    0    0  501    0  0.00000000000E+00  0.00000000000E+00  0.16063012398E+04  0.16063012398E+04  0.00000000000E+00 0. -1.
         -2   -1    0    0    0  501 -0.00000000000E+00 -0.00000000000E+00 -0.13066937926E+02  0.13066937926E+02  0.00000000000E+00 0.  1.
         25    2    1    2    0    0 -0.69115984951E+02  0.62623579691E+02  0.10468736541E+04  0.10584383445E+04  0.12509416247E+03 0.  0.
          5    1    3    3  502    0 -0.74035225641E+02  0.96405253617E+02  0.82272443167E+03  0.83166588870E+03  0.41800000000E+01 0.  1.
         -5    1    3    3    0  502  0.49192406904E+01 -0.33781673926E+02  0.22414922240E+03  0.22677245583E+03  0.41800000000E+01 0.  1.
        -11    1    1    2    0    0  0.72281825585E+02 -0.85023711719E+01  0.30828528997E+03  0.31675980275E+03  0.00000000000E+00 0. -1.
         11    1    1    2    0    0 -0.31658406348E+01 -0.54121208519E+02  0.23807535780E+03  0.24417003041E+03  0.00000000000E+00 0.  1.
</event>
<event>
 7    1  0.2648915E-009  0.1672437E+03  0.7561462E-02  0.1180753E+00
          2   -1    0    0  501    0  0.00000000000E+00  0.00000000000E+00  0.41703824576E+03  0.41703824576E+03  0.00000000000E+00 0.  1.
         -2   -1    0    0    0  501 -0.00000000000E+00 -0.00000000000E+00 -0.84112885743E+02  0.84112885743E+02  0.00000000000E+00 0. -1.
         25    2    1    2    0    0  0.10305357825E+03  0.10680103606E+03  0.22900201676E+03  0.30019394062E+03  0.12509187428E+03 0.  0.
          5    1    3    3  502    0  0.37154575161E+02  0.96123592960E+02  0.62110044552E+02  0.12039658472E+03  0.41800000000E+01 0.  1.
         -5    1    3    3    0  502  0.65899003091E+02  0.10677443096E+02  0.16689197221E+03  0.17979735590E+03  0.41800000000E+01 0.  1.
        -11    1    1    2    0    0 -0.10946971233E+03 -0.76660119941E+02  0.10525120591E+03  0.17011234009E+03  0.00000000000E+00 0. -1.
         11    1    1    2    0    0  0.64161340757E+01 -0.30140916115E+02 -0.13278626604E+01  0.30844850785E+02  0.00000000000E+00 0.  1.
</event>
<event>
 7    1  0.2648915E-009  0.9061084E+02  0.7561462E-02  0.1301379E+00
         -1   -1    0    0    0  501 -0.00000000000E+00  0.00000000000E+00  0.47909931815E+03  0.47909931815E+03  0.00000000000E+00 0.  1.
          1   -1    0    0  501    0  0.00000000000E+00 -0.00000000000E+00 -0.33160140557E+02  0.33160140557E+02  0.00000000000E+00 0. -1.
         25    2    1    2    0    0  0.56644621270E+01  0.17981878073E+02  0.37395801839E+03  0.39477487051E+03  0.12508862779E+03 0.  0.
          5    1    3    3  502    0  0.35885704098E+02 -0.36692208026E+02  0.25704890611E+03  0.26215589717E+03  0.41800000000E+01 0.  1.
         -5    1    3    3    0  502 -0.30221241971E+02  0.54674086099E+02  0.11690911228E+03  0.13261897334E+03  0.41800000000E+01 0.  1.
        -11    1    1    2    0    0 -0.35163915623E+02 -0.96020633936E+01  0.78123479520E+02  0.86208924338E+02  0.00000000000E+00 0.  1.
         11    1    1    2    0    0  0.29499453496E+02 -0.83798146794E+01 -0.61423203175E+01  0.31275663854E+02  0.00000000000E+00 0. -1.
</event>
<event>
 7    1  0.2648915E-009  0.4459619E+03  0.7561462E-02  0.1028933E+00
         -2   -1    0    0    0  501 -0.00000000000E+00  0.00000000000E+00  0.82456561769E+02  0.82456561769E+02  0.00000000000E+00 0.  1.
          2   -1    0    0  501    0  0.00000000000E+00 -0.00000000000E+00 -0.25104120666E+04  0.25104120666E+04  0.00000000000E+00 0. -1.
         25    2    1    2    0    0  0.26181407245E+03  0.35327397059E+03 -0.11068526075E+04  0.11975473031E+04  0.12509093306E+03 0.  0.
          5    1    3    3  502    0  0.15804429626E+03  0.27781703489E+03 -0.88854370856E+03  0.94429216817E+03  0.41800000000E+01 0.  1.
         -5    1    3    3    0  502  0.10376977619E+03  0.75456935694E+02 -0.21830889896E+03  0.25325513491E+03  0.41800000000E+01 0.  1.
        -11    1    1    2    0    0 -0.11543690888E+03 -0.10695434451E+03 -0.37218518303E+03  0.40408751800E+03  0.00000000000E+00 0.  1.
         11    1    1    2    0    0 -0.14637716357E+03 -0.24631962608E+03 -0.94891771428E+03  0.99123380727E+03  0.00000000000E+00 0. -1.
</event>
<event>
 7    1  0.2648915E-009  0.1592773E+03  0.7561462E-02  0.1189515E+00
          3   -1    0    0  501    0  0.00000000000E+00  0.00000000000E+00  0.60288993413E+03  0.60288993413E+03  0.00000000000E+00 0. -1.
         -3   -1    0    0    0  501 -0.00000000000E+00 -0.00000000000E+00 -0.72865823548E+02  0.72865823548E+02  0.00000000000E+00 0.  1.
         25    2    1    2    0    0 -0.12838297040E+03  0.80490906105E+02  0.43204903192E+03  0.47463173725E+03  0.12509175422E+03 0.  0.
          5    1    3    3  502    0  0.36715251737E+01  0.12184552945E+02  0.19045461280E+03  0.19092505169E+03  0.41800000000E+01 0.  1.
         -5    1    3    3    0  502 -0.13205449558E+03  0.68306353159E+02  0.24159441912E+03  0.28370668556E+03  0.41800000000E+01 0.  1.
        -11    1    1    2    0    0  0.58729696271E+02 -0.59679767727E+02  0.97377202554E+02  0.12842574305E+03  0.00000000000E+00 0.  1.
         11    1    1    2    0    0  0.69653274132E+02 -0.20811138378E+02  0.59787611351E+00  0.72698277378E+02  0.00000000000E+00 0. -1.
</event>
<event>
 7    1  0.2648915E-009  0.1050266E+03  0.7561462E-02  0.1270067E+00
          4   -1    0    0  501    0  0.00000000000E+00  0.00000000000E+00  0.41426746321E+03  0.41426746321E+03  0.00000000000E+00 0. -1.
         -4   -1    0    0    0  501 -0.00000000000E+00 -0.00000000000E+00 -0.54773600214E+02  0.54773600214E+02  0.00000000000E+00 0.  1.
         25    2    1    2    0    0 -0.66825951580E+02  0.45135284876E+02  0.29447028645E+03  0.32994326960E+03  0.12508760851E+03 0.  0.
          5    1    3    3  502    0 -0.32576249702E+02  0.62378474638E+02  0.60748303884E+02  0.93059738703E+02  0.41800000000E+01 0.  1.
         -5    1    3    3    0  502 -0.34249701877E+02 -0.17243189762E+02  0.23372198257E+03  0.23688353089E+03  0.41800000000E+01 0.  1.
        -11    1    1    2    0    0  0.21524133579E+02 -0.50950730316E+02  0.74164687168E+02  0.92518463394E+02  0.00000000000E+00 0. -1.
         11    1    1    2    0    0  0.45301818001E+02  0.58154454401E+01 -0.91411106281E+01  0.46579330430E+02  0.00000000000E+00 0.  1.
</event>
<event>
 7    1  0.2993672E-009  0.1036852E+03  0.7561462E-02  0.1272732E+00
         -1   -1    0    0    0  501 -0.00000000000E+00  0.00000000000E+00  0.71905706020E+02  0.71905706020E+02  0.00000000000E+00 0.  1.
          1   -1    0    0  501    0  0.00000000000E+00 -0.00000000000E+00 -0.18326269584E+03  0.18326269584E+03  0.00000000000E+00 0. -1.
         25    2    1    2    0    0 -0.88334513864E+01 -0.28148782631E+02 -0.90838482012E+02  0.15738213540E+03  0.12508846030E+03 0.  0.
          5    1    3    3  502    0  0.52035574065E+02  0.13485631804E+02 -0.46736057494E+02  0.71353308988E+02  0.41800000000E+01 0. -1.
         -5    1    3    3    0  502 -0.60869025452E+02 -0.41634414435E+02 -0.44102424518E+02  0.86028826408E+02  0.41800000000E+01 0. -1.
        -11    1    1    2    0    0 -0.15405739086E+02 -0.20259417978E+02  0.18147185655E+02  0.31258617384E+02  0.00000000000E+00 0.  1.
         11    1    1    2    0    0  0.24239190473E+02  0.48408200609E+02 -0.38665693459E+02  0.66527649076E+02  0.00000000000E+00 0. -1.
</event>
<event>
 7    1  0.2648915E-009  0.1101711E+03  0.7561462E-02  0.1260253E+00
          2   -1    0    0  501    0  0.00000000000E+00  0.00000000000E+00  0.16176711789E+03  0.16176711789E+03  0.00000000000E+00 0. -1.
         -2   -1    0    0    0  501 -0.00000000000E+00 -0.00000000000E+00 -0.12145568663E+03  0.12145568663E+03  0.00000000000E+00 0.  1.
         25    2    1    2    0    0 -0.13705582328E+02  0.50154154655E+02 -0.54128600216E+02  0.14587903415E+03  0.12508998772E+03 0.  0.
          5    1    3    3  502    0 -0.43167109810E+02 -0.21792216534E+02  0.40221611726E+01  0.48702671912E+02  0.41800000000E+01 0.  1.
         -5    1    3    3    0  502  0.29461527482E+02  0.71946371189E+02 -0.58150761388E+02  0.97176362243E+02  0.41800000000E+01 0.  1.
        -11    1    1    2    0    0  0.58707302264E+01  0.21285724693E+02  0.44960144766E+02  0.50089541488E+02  0.00000000000E+00 0. -1.
         11    1    1    2    0    0  0.78348521016E+01 -0.71439879348E+02  0.49479886703E+02  0.87254228877E+02  0.00000000000E+00 0.  1.
</event>
<event>
 7    1  0.2648915E-009  0.1028575E+03  0.7561462E-02  0.1274399E+00
          2   -1    0    0  501    0  0.00000000000E+00  0.00000000000E+00  0.11111849864E+03  0.11111849864E+03  0.00000000000E+00 0.  1.
         -2   -1    0    0    0  501 -0.00000000000E+00 -0.00000000000E+00 -0.13002734721E+03  0.13002734721E+03  0.00000000000E+00 0. -1.
         25    2    1    2    0    0 -0.16475035524E+02  0.40530955304E+02  0.20101763493E+02  0.13403435434E+03  0.12508773767E+03 0.  0.
          5    1    3    3  502    0  0.11856324133E+02  0.81503210587E+02  0.14511359874E+02  0.83734089374E+02  0.41800000000E+01 0. -1.
         -5    1    3    3    0  502 -0.28331359657E+02 -0.40972255283E+02  0.55904036191E+01  0.50300264966E+02  0.41800000000E+01 0. -1.
        -11    1    1    2    0    0  0.15831324654E+02  0.12532829228E+02  0.19534410495E+02  0.28094409446E+02  0.00000000000E+00 0.  1.
         11    1    1    2    0    0  0.64371087066E+00 -0.53063784531E+02 -0.58545022559E+02  0.79017082070E+02  0.00000000000E+00 0. -1.
</event>
<event>
 7    1  0.2648915E-009  0.1306576E+03  0.7561462E-02  0.1226483E+00
         -1   -1    0    0    0  501 -0.00000000000E+00  0.00000000000E+00  0.16327540049E+02  0.16327540049E+02  0.00000000000E+00 0.  1.
          1   -1    0    0  501    0  0.00000000000E+00 -0.00000000000E+00 -0.10889188386E+04  0.10889188386E+04  0.00000000000E+00 0. -1.
         25    2    1    2    0    0 -0.44779914719E+02  0.58640796160E+02 -0.50837383019E+03  0.52871153220E+03  0.12509176359E+03 0.  0.
          5    1    3    3  502    0  0.33248379808E+02  0.56983817718E+02 -0.20289596355E+03  0.21339366126E+03  0.41800000000E+01 0. -1.
         -5    1    3    3    0  502 -0.78028294527E+02  0.16569784423E+01 -0.30547786664E+03  0.31531787093E+03  0.41800000000E+01 0. -1.
        -11    1    1    2    0    0 -0.14886509198E+02 -0.55324523683E+02 -0.32181089576E+03  0.32687101999E+03  0.00000000000E+00 0.  1.
         11    1    1    2    0    0  0.59666423916E+02 -0.33162724775E+01 -0.24240657264E+03  0.24966382650E+03  0.00000000000E+00 0. -1.
</event>
<event>
 7    1  0.2648915E-009  0.1421132E+03  0.7561462E-02  0.1210513E+00
          1   -1    0    0  501    0  0.00000000000E+00  0.00000000000E+00  0.11737324430E+04  0.11737324430E+04  0.00000000000E+00 0. -1.
         -1   -1    0    0    0  501 -0.00000000000E+00 -0.00000000000E+00 -0.18634638236E+02  0.18634638236E+02  0.00000000000E+00 0.  1.
         25    2    1    2    0    0 -0.89680665579E+02 -0.40561358243E+02  0.49973126845E+03  0.52446447509E+03  0.12507517500E+03 0.  0.
          5    1    3    3  502    0 -0.11718513859E+03 -0.15931946235E+02  0.32624461674E+03  0.34704352172E+03  0.41800000000E+01 0. -1.
         -5    1    3    3    0  502  0.27504473015E+02 -0.24629412008E+02  0.17348665171E+03  0.17742095337E+03  0.41800000000E+01 0. -1.
        -11    1    1    2    0    0  0.30442836379E+02 -0.25709113410E+02  0.21266896172E+03  0.21636961912E+03  0.00000000000E+00 0.  1.
         11    1    1    2    0    0  0.59237829199E+02  0.66270471654E+02  0.44269757460E+03  0.45153298703E+03  0.00000000000E+00 0. -1.
</event>
<event>
 7    1  0.2648915E-009  0.2372161E+03  0.7561462E-02  0.1121661E+00
         -2   -1    0    0    0  501 -0.00000000000E+00  0.00000000000E+00  0.67054700383E+02  0.67054700383E+02  0.00000000000E+00 0.  1.
          2   -1    0    0  501    0  0.00000000000E+00 -0.00000000000E+00 -0.93923545991E+03  0.93923545991E+03  0.00000000000E+00 0. -1.
         25    2    1    2    0    0  0.88157522791E+02 -0.20730358176E+03 -0.48262177863E+03  0.54709938130E+03  0.12508967973E+03 0.  0.
          5    1    3    3  502    0  0.21043604021E+02 -0.12962329506E+03 -0.37920772066E+03  0.40132405821E+03  0.41800000000E+01 0.  1.
         -5    1    3    3    0  502  0.67113918770E+02 -0.77680286708E+02 -0.10341405796E+03  0.14577532308E+03  0.41800000000E+01 0.  1.
        -11    1    1    2    0    0 -0.25169132519E+02  0.15885697304E+03 -0.29197860668E+03  0.33334746117E+03  0.00000000000E+00 0.  1.
         11    1    1    2    0    0 -0.62988390272E+02  0.48446608725E+02 -0.97580374219E+02  0.12584331782E+03  0.00000000000E+00 0. -1.
</event>
<event>
 7    1  0.2648915E-009  0.1602712E+03  0.7561462E-02  0.1188391E+00
         -2   -1    0    0    0  501 -0.00000000000E+00  0.00000000000E+00  0.29807468166E+03  0.29807468166E+03  0.00000000000E+00 0.  1.
          2   -1    0    0  501    0  0.00000000000E+00 -0.00000000000E+00 -0.15816361822E+03  0.15816361822E+03  0.00000000000E+00 0. -1.
         25    2    1    2    0    0 -0.11939964372E+03  0.39194676687E+02  0.21892582412E+03  0.28172355026E+03  0.12508854746E+03 0.  0.
          5    1    3    3  502    0 -0.13819627221E+03  0.67287216488E+01  0.18435538806E+03  0.23053821127E+03  0.41800000000E+01 0.  1.
         -5    1    3    3    0  502  0.18796628484E+02  0.32465955038E+02  0.34570436054E+02  0.51185338993E+02  0.41800000000E+01 0.  1.
        -11    1    1    2    0    0  0.12031499689E+03 -0.52331922001E+02 -0.46105674783E+02  0.13906855066E+03  0.00000000000E+00 0.  1.
         11    1    1    2    0    0 -0.91535316411E+00  0.13137245315E+02 -0.32909085895E+02  0.35446198954E+02  0.00000000000E+00 0. -1.
</event>
<event>
 7    1  0.2648915E-009  0.2370680E+03  0.7561462E-02  0.1121762E+00
          1   -1    0    0  501    0  0.00000000000E+00  0.00000000000E+00  0.73121888685E+03  0.73121888685E+03  0.00000000000E+00 0. -1.
         -1   -1    0    0    0  501 -0.00000000000E+00 -0.00000000000E+00 -0.95558231300E+02  0.95558231300E+02  0.00000000000E+00 0.  1.
         25    2    1    2    0    0  0.22503203552E+03 -0.97666339932E+01  0.19473968972E+03  0.32296352835E+03  0.12508832777E+03 0.  0.
          5    1    3    3  502    0  0.13274418250E+03 -0.31945617349E+02  0.41681711353E+02  0.14281588818E+03  0.41800000000E+01 0. -1.
         -5    1    3    3    0  502  0.92287853022E+02  0.22178983356E+02  0.15305797836E+03  0.18014764017E+03  0.41800000000E+01 0. -1.
        -11    1    1    2    0    0 -0.85394179647E+02  0.47724738217E+02  0.20302855797E+03  0.22536728224E+03  0.00000000000E+00 0. -1.
         11    1    1    2    0    0 -0.13963785588E+03 -0.37958104224E+02  0.23789240787E+03  0.27844630756E+03  0.00000000000E+00 0.  1.
</event>
<event>
 7    1  0.3889340E-009  0.2324133E+03  0.7561462E-02  0.1124953E+00
          2   -1    0    0  501    0  0.00000000000E+00  0.00000000000E+00  0.79717583542E+03  0.79717583542E+03  0.00000000000E+00 0. -1.
         -2   -1    0    0    0  501 -0.00000000000E+00 -0.00000000000E+00 -0.79313773311E+02  0.79313773311E+02  0.00000000000E+00 0.  1.
         25    2    1    2    0    0  0.15618049915E+03  0.15237112214E+03  0.26318900486E+03  0.36404222473E+03  0.12509589095E+03 0.  0.
          5    1    3    3  502    0  0.15208807439E+03  0.11386211069E+03  0.26375915301E+03  0.32508725878E+03  0.41800000000E+01 0. -1.
         -5    1    3    3    0  502  0.40924247597E+01  0.38509011453E+02 -0.57014815464E+00  0.38954965953E+02  0.41800000000E+01 0. -1.
        -11    1    1    2    0    0 -0.11591322806E+03 -0.50754830107E+02  0.26107815824E+03  0.29012709961E+03  0.00000000000E+00 0. -1.
         11    1    1    2    0    0 -0.40267271089E+02 -0.10161629203E+03  0.19359489902E+03  0.22232028439E+03  0.00000000000E+00 0.  1.
</event>
<event>
 7    1  0.2648915E-009  0.1088239E+03  0.7561462E-02  0.1262763E+00
         -2   -1    0    0    0  501 -0.00000000000E+00  0.00000000000E+00  0.27300662434E+03  0.27300662434E+03  0.00000000000E+00 0.  1.
          2   -1    0    0  501    0  0.00000000000E+00 -0.00000000000E+00 -0.82649702714E+02  0.82649702714E+02  0.00000000000E+00 0. -1.
         25    2    1    2    0    0 -0.43726280442E+02 -0.48467649924E+02  0.91288223233E+01  0.14139384281E+03  0.12509109760E+03 0.  0.
          5    1    3    3  502    0 -0.28055429108E+02 -0.74850138254E+02  0.46725641002E+02  0.92684455148E+02  0.41800000000E+01 0. -1.
         -5    1    3    3    0  502 -0.15670851334E+02  0.26382488331E+02 -0.37596818678E+02  0.48709387666E+02  0.41800000000E+01 0. -1.
        -11    1    1    2    0    0  0.49939079825E+02 -0.73454617848E+01  0.12494001766E+03  0.13475116146E+03  0.00000000000E+00 0.  1.
         11    1    1    2    0    0 -0.62127993823E+01  0.55813111708E+02  0.56288081643E+02  0.79511322777E+02  0.00000000000E+00 0. -1.
</event>
<event>
 7    1  0.2648915E-009  0.1310578E+03  0.7561462E-02  0.1225895E+00
          1   -1    0    0  501    0  0.00000000000E+00  0.00000000000E+00  0.31215891712E+02  0.31215891712E+02  0.00000000000E+00 0. -1.
         -1   -1    0    0    0  501 -0.00000000000E+00 -0.00000000000E+00 -0.62483583377E+03  0.62483583377E+03  0.00000000000E+00 0.  1.
         25    2    1    2    0    0  0.72709443871E+02 -0.37046788091E+02 -0.40889611493E+03  0.43531858992E+03  0.12508842549E+03 0.  0.
          5    1    3    3  502    0 -0.29246895548E+02 -0.24680640701E+02 -0.18488875936E+03  0.18885401945E+03  0.41800000000E+01 0.  1.
         -5    1    3    3    0  502  0.10195633942E+03 -0.12366147389E+02 -0.22400735557E+03  0.24646457047E+03  0.41800000000E+01 0.  1.
        -11    1    1    2    0    0 -0.58490109815E+02 -0.20172279285E+02 -0.94129012682E+02  0.11264228703E+03  0.00000000000E+00 0. -1.
         11    1    1    2    0    0 -0.14219334056E+02  0.57219067376E+02 -0.90594814452E+02  0.10809084854E+03  0.00000000000E+00 0.  1.
</event>
<event>
 7    1  0.2648915E-009  0.9628247E+02  0.7561462E-02  0.1288313E+00
          1   -1    0    0  501    0  0.00000000000E+00  0.00000000000E+00  0.82035513064E+02  0.82035513064E+02  0.00000000000E+00 0. -1.
         -1   -1    0    0    0  501 -0.00000000000E+00 -0.00000000000E+00 -0.16362760678E+03  0.16362760678E+03  0.00000000000E+00 0.  1.
         25    2    1    2    0    0 -0.34256266130E+02  0.18534238690E+02 -0.29977981874E+02  0.13439535794E+03  0.12508566291E+03 0.  0.
          5    1    3    3  502    0  0.33709120901E+01  0.64812981601E+02 -0.35944275114E+02  0.74307125807E+02  0.41800000000E+01 0. -1.
         -5    1    3    3    0  502 -0.37627178220E+02 -0.46278742911E+02  0.59662932408E+01  0.60088232136E+02  0.41800000000E+01 0. -1.
        -11    1    1    2    0    0  0.46671817812E+02 -0.15464591873E+01  0.86004168201E+01  0.47482810399E+02  0.00000000000E+00 0. -1.
         11    1    1    2    0    0 -0.12415551682E+02 -0.16987779502E+02 -0.60214528661E+02  0.63784951500E+02  0.00000000000E+00 0.  1.
</event>
<event>
 7    1  0.3684197E-009  0.1292329E+03  0.7561462E-02  0.1228598E+00
         -1   -1    0    0    0  501 -0.00000000000E+00  0.00000000000E+00  0.21602016240E+02  0.21602016240E+02  0.00000000000E+00 0.  1.
          1   -1    0    0  501    0  0.00000000000E+00 -0.00000000000E+00 -0.17202166940E+04  0.17202166940E+04  0.00000000000E+00 0. -1.
         25    2    1    2    0    0  0.92628302971E+02  0.73960301214E+01 -0.14782049160E+04  0.14863954682E+04  0.12508800978E+03 0.  0.
          5    1    3    3  502    0  0.58383610563E+02  0.63756039757E+02 -0.98263612454E+03  0.98644042103E+03  0.41800000000E+01 0.  1.
         -5    1    3    3    0  502  0.34244692408E+02 -0.56360009636E+02 -0.49556879151E+03  0.49995504714E+03  0.41800000000E+01 0.  1.
        -11    1    1    2    0    0 -0.11392178034E+02 -0.20592953335E+02 -0.39731953155E+01  0.23867084624E+02  0.00000000000E+00 0.  1.
         11    1    1    2    0    0 -0.81236124937E+02  0.13196923214E+02 -0.21643656636E+03  0.23155615741E+03  0.00000000000E+00 0. -1.
</event>
<event>
 7    1  0.2648915E-009  0.9604145E+02  0.7561462E-02  0.1288848E+00
         -3   -1    0    0    0  501 -0.00000000000E+00  0.00000000000E+00  0.75782764749E+02  0.75782764749E+02  0.00000000000E+00 0.  1.
          3   -1    0    0  501    0  0.00000000000E+00 -0.00000000000E+00 -0.21393528099E+03  0.21393528099E+03  0.00000000000E+00 0. -1.
         25    2    1    2    0    0 -0.30406769044E+02  0.72141622610E+01 -0.92388569000E+01  0.12926133628E+03  0.12508605373E+03 0.  0.
          5    1    3    3  502    0 -0.64970423012E+02  0.43377617734E+02 -0.11170289559E+02  0.79025447519E+02  0.41800000000E+01 0. -1.
         -5    1    3    3    0  502  0.34563653968E+02 -0.36163455473E+02  0.19314326590E+01  0.50235888760E+02  0.41800000000E+01 0. -1.
        -11    1    1    2    0    0  0.13590373694E+02  0.24351117227E+02 -0.12903650445E+01  0.27916665440E+02  0.00000000000E+00 0.  1.
         11    1    1    2    0    0  0.16816395351E+02 -0.31565279488E+02 -0.12762329430E+03  0.13254004402E+03  0.00000000000E+00 0. -1.
</event>
<event>
 7    1  0.2648915E-009  0.1252183E+03  0.7561462E-02  0.1234729E+00
         -1   -1    0    0    0  501 -0.00000000000E+00  0.00000000000E+00  0.33139350896E+03  0.33139350896E+03  0.00000000000E+00 0.  1.
          1   -1    0    0  501    0  0.00000000000E+00 -0.00000000000E+00 -0.67686271800E+02  0.67686271800E+02  0.00000000000E+00 0. -1.
         25    2    1    2    0    0  0.87076517850E+02  0.24094549848E+02  0.85730716848E+02  0.17652194188E+03  0.12508945943E+03 0.  0.
          5    1    3    3  502    0  0.34759902704E+02  0.64150713857E+02  0.64740716921E+01  0.73368596338E+02  0.41800000000E+01 0. -1.
         -5    1    3    3    0  502  0.52316615147E+02 -0.40056164009E+02  0.79256645156E+02  0.10315334554E+03  0.41800000000E+01 0. -1.
        -11    1    1    2    0    0 -0.39511711962E+02  0.21892100166E+02  0.13812198832E+03  0.14532075932E+03  0.00000000000E+00 0.  1.
         11    1    1    2    0    0 -0.47564805889E+02 -0.45986650014E+02  0.39854531998E+02  0.77237079564E+02  0.00000000000E+00 0. -1.
</event>
<event>
 7    1  0.2648915E-009  0.3385982E+03  0.7561462E-02  0.1067395E+00
         -2   -1    0    0    0  501 -0.00000000000E+00  0.00000000000E+00  0.67134831804E+02  0.67134831804E+02  0.00000000000E+00 0. -1.
          2   -1    0    0  501    0  0.00000000000E+00 -0.00000000000E+00 -0.20306589703E+04  0.20306589703E+04  0.00000000000E+00 0.  1.
         25    2    1    2    0    0  0.29231108204E+03  0.16757236957E+03 -0.70251734748E+03  0.78911649020E+03  0.12509174186E+03 0.  0.
          5    1    3    3  502    0  0.43684375818E+02  0.30531231061E+02 -0.35466920227E+02  0.64154934269E+02  0.41800000000E+01 0. -1.
         -5    1    3    3    0  502  0.24862670622E+03  0.13704113851E+03 -0.66705042725E+03  0.72496155593E+03  0.41800000000E+01 0. -1.
        -11    1    1    2    0    0 -0.23521813248E+03 -0.11347026360E+03 -0.10834193803E+04  0.11144508173E+04  0.00000000000E+00 0.  1.
         11    1    1    2    0    0 -0.57092949555E+02 -0.54102105964E+02 -0.17758741071E+03  0.19422649459E+03  0.00000000000E+00 0. -1.
</event>
<event>
 7    1  0.2648915E-009  0.7764818E+02  0.7561462E-02  0.1335861E+00
         -2   -1    0    0    0  501 -0.00000000000E+00  0.00000000000E+00  0.63704116392E+02  0.63704116392E+02  0.00000000000E+00 0. -1.
          2   -1    0    0  501    0  0.00000000000E+00 -0.00000000000E+00 -0.25995732939E+03  0.25995732939E+03  0.00000000000E+00 0.  1.
         25    2    1    2    0    0 -0.50189064501E+02  0.44082916564E+02 -0.10791712728E+03  0.17820033255E+03  0.12508799476E+03 0.  0.
          5    1    3    3  502    0 -0.31935542957E+01  0.12168144359E+02  0.27917970553E+02  0.30905468869E+02  0.41800000000E+01 0.  1.
         -5    1    3    3    0  502 -0.46995510206E+02  0.31914772205E+02 -0.13583509784E+03  0.14729486369E+03  0.41800000000E+01 0.  1.
        -11    1    1    2    0    0  0.31268587577E+01 -0.37415917254E+02 -0.90397011594E+02  0.97884359398E+02  0.00000000000E+00 0.  1.
         11    1    1    2    0    0  0.47062205744E+02 -0.66669993099E+01  0.20609258806E+01  0.47576753827E+02  0.00000000000E+00 0. -1.
</event>
<event>
 7    1  0.2648915E-009  0.6592355E+02  0.7561462E-02  0.1374531E+00
         -1   -1    0    0    0  501 -0.00000000000E+00  0.00000000000E+00  0.73627976890E+02  0.73627976890E+02  0.00000000000E+00 0.  1.
          1   -1    0    0  501    0  0.00000000000E+00 -0.00000000000E+00 -0.19454032286E+03  0.19454032286E+03  0.00000000000E+00 0. -1.
         25    2    1    2    0    0 -0.15305120183E+02 -0.28806434121E+02 -0.23004543190E+02  0.13130588259E+03  0.12509184004E+03 0.  0.
          5    1    3    3  502    0 -0.22275066873E+02  0.12409264157E+02 -0.66192247400E+02  0.71056698889E+02  0.41800000000E+01 0.  1.
         -5    1    3    3    0  502  0.69699466902E+01 -0.41215698277E+02  0.43187704210E+02  0.60249183698E+02  0.41800000000E+01 0.  1.
        -11    1    1    2    0    0 -0.51550210302E+01 -0.14885995362E+02 -0.85646248189E+02  0.87082988744E+02  0.00000000000E+00 0. -1.
         11    1    1    2    0    0  0.20460141213E+02  0.43692429483E+02 -0.12261554588E+02  0.49779428416E+02  0.00000000000E+00 0.  1.
</event>
<event>
 7    1  0.2648915E-009  0.1545167E+03  0.7561462E-02  0.1195030E+00
          4   -1    0    0  501    0  0.00000000000E+00  0.00000000000E+00  0.11094837725E+03  0.11094837725E+03  0.00000000000E+00 0. -1.
         -4   -1    0    0    0  501 -0.00000000000E+00 -0.00000000000E+00 -0.25876901129E+03  0.25876901129E+03  0.00000000000E+00 0.  1.
         25    2    1    2    0    0  0.10584227623E+03  0.65637007593E+02 -0.11718730109E+03  0.21188272397E+03  0.12510244192E+03 0.  0.
          5    1    3    3  502    0  0.17507115710E+02 -0.29935801885E+02 -0.60517811824E+02  0.69875097731E+02  0.41800000000E+01 0.  1.
         -5    1    3    3    0  502  0.88335160524E+02  0.95572809478E+02 -0.56669489270E+02  0.14200762624E+03  0.41800000000E+01 0.  1.
        -11    1    1    2    0    0 -0.11000459128E+03 -0.38665457916E+02 -0.47329579524E+02  0.12584163395E+03  0.00000000000E+00 0.  1.
         11    1    1    2    0    0  0.41623150412E+01 -0.26971549677E+02  0.16696246579E+02  0.31993030621E+02  0.00000000000E+00 0. -1.
</event>
<event>
 7    1  0.2648915E-009  0.1326511E+03  0.7561462E-02  0.1223574E+00
         -2   -1    0    0    0  501 -0.00000000000E+00  0.00000000000E+00  0.22881497148E+02  0.22881497148E+02  0.00000000000E+00 0.  1.
          2   -1    0    0  501    0  0.00000000000E+00 -0.00000000000E+00 -0.12041151664E+04  0.12041151664E+04  0.00000000000E+00 0. -1.
         25    2    1    2    0    0  0.95296865304E+02  0.76831809355E+02 -0.73063894684E+03  0.75130947885E+03  0.12509213766E+03 0.  0.
          5    1    3    3  502    0  0.98243152368E+02  0.79545424444E+02 -0.37752254022E+03  0.39814561697E+03  0.41800000000E+01 0. -1.
         -5    1    3    3    0  502 -0.29462870642E+01 -0.27136150888E+01 -0.35311640662E+03  0.35316386188E+03  0.41800000000E+01 0. -1.
        -11    1    1    2    0    0 -0.44276946795E+02 -0.44794969495E+01 -0.57304759553E+02  0.72555836277E+02  0.00000000000E+00 0.  1.
         11    1    1    2    0    0 -0.51019918509E+02 -0.72352312405E+02 -0.39328996284E+03  0.40313134840E+03  0.00000000000E+00 0. -1.
</event>
<event>
 7    1  0.2648915E-009  0.1329241E+03  0.7561462E-02  0.1223180E+00
         -1   -1    0    0    0  501 -0.00000000000E+00  0.00000000000E+00  0.15508410278E+03  0.15508410278E+03  0.00000000000E+00 0.  1.
          1   -1    0    0  501    0  0.00000000000E+00 -0.00000000000E+00 -0.15061649144E+03  0.15061649144E+03  0.00000000000E+00 0. -1.
         25    2    1    2    0    0 -0.92561377311E+02 -0.48786075987E+02 -0.20625372866E+02  0.16436516528E+03  0.12507122680E+03 0.  0.
          5    1    3    3  502    0 -0.37901420201E+02 -0.82019550163E+02  0.13965353940E+02  0.91521733883E+02  0.41800000000E+01 0. -1.
         -5    1    3    3    0  502 -0.54659957110E+02  0.33233474177E+02 -0.34590726806E+02  0.72843431400E+02  0.41800000000E+01 0. -1.
        -11    1    1    2    0    0  0.64996159790E+02  0.13275762594E+02  0.55973292622E+02  0.86797212782E+02  0.00000000000E+00 0.  1.
         11    1    1    2    0    0  0.27565217522E+02  0.35510313393E+02 -0.30880308410E+02  0.54538216158E+02  0.00000000000E+00 0. -1.
</event>
<event>
 7    1  0.2648915E-009  0.1068361E+03  0.7561462E-02  0.1266544E+00
         -1   -1    0    0    0  501 -0.00000000000E+00  0.00000000000E+00  0.57942560666E+02  0.57942560666E+02  0.00000000000E+00 0.  1.
          1   -1    0    0  501    0  0.00000000000E+00 -0.00000000000E+00 -0.28595972722E+03  0.28595972722E+03  0.00000000000E+00 0. -1.
         25    2    1    2    0    0 -0.35236930765E+02 -0.46851247767E+02 -0.17841306549E+03  0.22564408257E+03  0.12508936548E+03 0.  0.
          5    1    3    3  502    0  0.61331758854E+01 -0.81118241841E+02 -0.84480545907E+02  0.11735510233E+03  0.41800000000E+01 0.  1.
         -5    1    3    3    0  502 -0.41370106650E+02  0.34266994074E+02 -0.93932519585E+02  0.10828898025E+03  0.41800000000E+01 0.  1.
        -11    1    1    2    0    0  0.47027464203E+02  0.24413364349E+02 -0.68529669990E+02  0.86625114240E+02  0.00000000000E+00 0.  1.
         11    1    1    2    0    0 -0.11790533438E+02  0.22437883418E+02  0.18925568933E+02  0.31633091067E+02  0.00000000000E+00 0. -1.
</event>
<event>
 7    1  0.2648915E-009  0.7974095E+02  0.7561462E-02  0.1329788E+00
          1   -1    0    0  501    0  0.00000000000E+00  0.00000000000E+00  0.59563854156E+02  0.59563854156E+02  0.00000000000E+00 0. -1.
         -1   -1    0    0    0  501 -0.00000000000E+00 -0.00000000000E+00 -0.21197622267E+03  0.21197622267E+03  0.00000000000E+00 0.  1.
         25    2    1    2    0    0 -0.12764165788E+02  0.23485599239E+02 -0.75919483253E+02  0.14874967502E+03  0.12509276790E+03 0.  0.
          5    1    3    3  502    0  0.21559399732E+02  0.12008901956E+00 -0.98762827520E+02  0.10117504948E+03  0.41800000000E+01 0.  1.
         -5    1    3    3    0  502 -0.34323565520E+02  0.23365510220E+02  0.22843344267E+02  0.47574625538E+02  0.41800000000E+01 0.  1.
        -11    1    1    2    0    0  0.51881651135E+02 -0.38615233809E+01 -0.36989327186E+02  0.63834374854E+02  0.00000000000E+00 0.  1.
         11    1    1    2    0    0 -0.39117485347E+02 -0.19624075858E+02 -0.39503558077E+02  0.58956026952E+02  0.00000000000E+00 0. -1.
</event>
<event>
 7    1  0.2648915E-009  0.3979885E+03  0.7561462E-02  0.1044478E+00
          1   -1    0    0  501    0  0.00000000000E+00  0.00000000000E+00  0.10196603619E+04  0.10196603619E+04  0.00000000000E+00 0. -1.
         -1   -1    0    0    0  501 -0.00000000000E+00 -0.00000000000E+00 -0.16425983940E+03  0.16425983940E+03  0.00000000000E+00 0.  1.
         25    2    1    2    0    0 -0.37647065067E+03 -0.71093791839E+02  0.56934986459E+03  0.69756114232E+03  0.12509117041E+03 0.  0.
          5    1    3    3  502    0 -0.18821757834E+03 -0.98938519679E+02  0.30184458050E+03  0.36924559665E+03  0.41800000000E+01 0. -1.
         -5    1    3    3    0  502 -0.18825307233E+03  0.27844727840E+02  0.26750528409E+03  0.32831554567E+03  0.41800000000E+01 0. -1.
        -11    1    1    2    0    0  0.87409955272E+02  0.55352992129E+02  0.85033453888E+02  0.13392215014E+03  0.00000000000E+00 0. -1.
         11    1    1    2    0    0  0.28906069540E+03  0.15740799710E+02  0.20101720405E+03  0.35243690886E+03  0.00000000000E+00 0.  1.
</event>
<event>
 7    1  0.2648915E-009  0.1407061E+03  0.7561462E-02  0.1212382E+00
         -1   -1    0    0    0  501 -0.00000000000E+00  0.00000000000E+00  0.43225701312E+03  0.43225701312E+03  0.00000000000E+00 0.  1.
          1   -1    0    0  501    0  0.00000000000E+00 -0.00000000000E+00 -0.52375547147E+02  0.52375547147E+02  0.00000000000E+00 0. -1.
         25    2    1    2    0    0  0.70309931606E+02 -0.75850606309E+02  0.23228116589E+03  0.28337284467E+03  0.12509527613E+03 0.  0.
          5    1    3    3  502    0  0.79716903827E+02 -0.12264811022E+02  0.63560996620E+02  0.10277491443E+03  0.41800000000E+01 0.  1.
         -5    1    3    3    0  502 -0.94069722208E+01 -0.63585795287E+02  0.16872016927E+03  0.18059793024E+03  0.41800000000E+01 0.  1.
        -11    1    1    2    0    0  0.21408530987E+02  0.15792883198E+02  0.36588875928E+02  0.45238105624E+02  0.00000000000E+00 0.  1.
         11    1    1    2    0    0 -0.91718462593E+02  0.60057723110E+02  0.11101142416E+03  0.15602160998E+03  0.00000000000E+00 0. -1.
</event>
<event>
 7    1  0.2648915E-009  0.1086117E+03  0.7561462E-02  0.1263163E+00
          1   -1    0    0  501    0  0.00000000000E+00  0.00000000000E+00  0.31764809810E+03  0.31764809810E+03  0.00000000000E+00 0. -1.
         -1   -1    0    0    0  501 -0.00000000000E+00 -0.00000000000E+00 -0.49080169340E+02  0.49080169340E+02  0.00000000000E+00 0.  1.
         25    2    1    2    0    0  0.58380059538E+02  0.21190597509E+02  0.12636189024E+03  0.18833945852E+03  0.12508857485E+03 0.  0.
          5    1    3    3  502    0  0.61787753686E+02  0.55386281002E+02  0.34122127339E+02  0.89817362481E+02  0.41800000000E+01 0. -1.
         -5    1    3    3    0  502 -0.34076941477E+01 -0.34195683493E+02  0.92239762899E+02  0.98522096043E+02  0.41800000000E+01 0. -1.
        -11    1    1    2    0    0 -0.48372488385E+02 -0.49671516522E+02  0.12675052095E+03  0.14447439824E+03  0.00000000000E+00 0. -1.
         11    1    1    2    0    0 -0.10007571154E+02  0.28480919013E+02  0.15455517578E+02  0.33914410681E+02  0.00000000000E+00 0.  1.
</event>
<event>
 7    1  0.2648915E-009  0.1087653E+03  0.7561462E-02  0.1262874E+00
          2   -1    0    0  501    0  0.00000000000E+00  0.00000000000E+00  0.80601490246E+03  0.80601490246E+03  0.00000000000E+00 0. -1.
         -2   -1    0    0    0  501 -0.00000000000E+00 -0.00000000000E+00 -0.22554646466E+02  0.22554646466E+02  0.00000000000E+00 0.  1.
         25    2    1    2    0    0  0.35918290083E+01  0.79989894244E+02  0.41685116076E+03  0.44251971079E+03  0.12509004673E+03 0.  0.
          5    1    3    3  502    0 -0.26345372728E+02  0.46801710983E+02  0.38175774430E+03  0.38553978594E+03  0.41800000000E+01 0. -1.
         -5    1    3    3    0  502  0.29937201737E+02  0.33188183261E+02  0.35093416466E+02  0.56979924845E+02  0.41800000000E+01 0. -1.
        -11    1    1    2    0    0 -0.38280155575E+02 -0.83590900459E+01  0.88693714549E+02  0.96962981068E+02  0.00000000000E+00 0.  1.
         11    1    1    2    0    0  0.34688326566E+02 -0.71630804198E+02  0.27791538068E+03  0.28908685706E+03  0.00000000000E+00 0. -1.
</event>
<event>
 7    1  0.2648915E-009  0.1092730E+03  0.7561462E-02  0.1261922E+00
         -2   -1    0    0    0  501 -0.00000000000E+00  0.00000000000E+00  0.14720778755E+03  0.14720778755E+03  0.00000000000E+00 0.  1.
          2   -1    0    0  501    0  0.00000000000E+00 -0.00000000000E+00 -0.14962794666E+03  0.14962794666E+03  0.00000000000E+00 0. -1.
         25    2    1    2    0    0  0.93129632700E+02 -0.11494287525E+02 -0.36424104689E+02  0.16055793892E+03  0.12508752622E+03 0.  0.
          5    1    3    3  502    0  0.40194515326E+02 -0.43000007115E+02 -0.68964808790E+02  0.90764623756E+02  0.41800000000E+01 0.  1.
         -5    1    3    3    0  502  0.52935117374E+02  0.31505719590E+02  0.32540704101E+02  0.69793315164E+02  0.41800000000E+01 0.  1.
        -11    1    1    2    0    0 -0.17449951455E+02  0.13539344840E+02 -0.29922519621E+02  0.37191018337E+02  0.00000000000E+00 0. -1.
         11    1    1    2    0    0 -0.75679681246E+02 -0.20450573156E+01  0.63926465199E+02  0.99086776947E+02  0.00000000000E+00 0.  1.
</event>
<event>
 7    1  0.2648915E-009  0.1075000E+03  0.7561462E-02  0.1265271E+00
          1   -1    0    0  501    0  0.00000000000E+00  0.00000000000E+00  0.22379126598E+03  0.22379126598E+03  0.00000000000E+00 0. -1.
         -1   -1    0    0    0  501 -0.00000000000E+00 -0.00000000000E+00 -0.66477236819E+02  0.66477236819E+02  0.00000000000E+00 0.  1.
         25    2    1    2    0    0 -0.13620358454E+02  0.34028002480E+02  0.13670806154E+03  0.18889015163E+03  0.12508787381E+03 0.  0.
          5    1    3    3  502    0 -0.47298555695E+02 -0.28391109975E+02  0.83338265051E+02  0.10002973217E+03  0.41800000000E+01 0. -1.
         -5    1    3    3    0  502  0.33678197241E+02  0.62419112456E+02  0.53369796494E+02  0.88860419462E+02  0.41800000000E+01 0. -1.
        -11    1    1    2    0    0 -0.32821400475E+02 -0.25141388932E+02 -0.13032414759E+02  0.43349482131E+02  0.00000000000E+00 0.  1.
         11    1    1    2    0    0  0.46441758929E+02 -0.88866135483E+01  0.33638382376E+02  0.58028869036E+02  0.00000000000E+00 0. -1.
</event>
<event>
 7    1  0.2648915E-009  0.1008141E+03  0.7561462E-02  0.1278593E+00
         -2   -1    0    0    0  501 -0.00000000000E+00  0.00000000000E+00  0.13479692184E+03  0.13479692184E+03  0.00000000000E+00 0.  1.
          2   -1    0    0  501    0  0.00000000000E+00 -0.00000000000E+00 -0.91678819075E+02  0.91678819075E+02  0.00000000000E+00 0. -1.
         25    2    1    2    0    0  0.11068992500E+02  0.30628361752E+01  0.55430251095E+02  0.13730301998E+03  0.12509077903E+03 0.  0.
          5    1    3    3  502    0 -0.56506180145E+02 -0.21836092450E+01  0.33903394404E+02  0.66065339596E+02  0.41800000000E+01 0. -1.
         -5    1    3    3    0  502  0.67575172644E+02  0.52464454203E+01  0.21526856691E+02  0.71237680384E+02  0.41800000000E+01 0. -1.
        -11    1    1    2    0    0 -0.30876026521E+02 -0.30353455439E+02 -0.28430888119E+02  0.51797458143E+02  0.00000000000E+00 0. -1.
         11    1    1    2    0    0  0.19807034021E+02  0.27290619264E+02  0.16118739792E+02  0.37375262795E+02  0.00000000000E+00 0.  1.
</event>
<event>
 7    1  0.2648915E-009  0.1065230E+03  0.7561462E-02  0.1267148E+00
          4   -1    0    0  501    0  0.00000000000E+00  0.00000000000E+00  0.69806860680E+02  0.69806860680E+02  0.00000000000E+00 0. -1.
         -4   -1    0    0    0  501 -0.00000000000E+00 -0.00000000000E+00 -0.30798859888E+03  0.30798859888E+03  0.00000000000E+00 0.  1.
         25    2    1    2    0    0  0.26492424839E+02  0.75461807470E+01 -0.73493218229E+01  0.12829725265E+03  0.12508948432E+03 0.  0.
          5    1    3    3  502    0 -0.22565248069E+02 -0.42408571117E+02  0.21065339491E+02  0.52620321668E+02  0.41800000000E+01 0.  1.
         -5    1    3    3    0  502  0.49057672908E+02  0.49954751864E+02 -0.28414661314E+02  0.75676930980E+02  0.41800000000E+01 0.  1.
        -11    1    1    2    0    0 -0.57793708073E+02  0.10226154822E+02 -0.14242610900E+03  0.15404506958E+03  0.00000000000E+00 0. -1.
         11    1    1    2    0    0  0.31301283234E+02 -0.17772335569E+02 -0.88406307371E+02  0.95453137333E+02  0.00000000000E+00 0.  1.
</event>
<event>
 7    1  0.2648915E-009  0.1202908E+03  0.7561462E-02  0.1242618E+00
         -1   -1    0    0    0  501 -0.00000000000E+00  0.00000000000E+00  0.18027957248E+02  0.18027957248E+02  0.00000000000E+00 0.  1.
          1   -1    0    0  501    0  0.00000000000E+00 -0.00000000000E+00 -0.86663111923E+03  0.86663111923E+03  0.00000000000E+00 0. -1.
         25    2    1    2    0    0 -0.46955410906E+02 -0.33017541133E+02 -0.54699379543E+03  0.56404399626E+03  0.12509376017E+03 0.  0.
          5    1    3    3  502    0 -0.82926801235E+02 -0.45831874927E+02 -0.44643263364E+03  0.45639564405E+03  0.41800000000E+01 0.  1.
         -5    1    3    3    0  502  0.35971390329E+02  0.12814333794E+02 -0.10056116179E+03  0.10764835221E+03  0.41800000000E+01 0.  1.
        -11    1    1    2    0    0 -0.25793768775E+02  0.21688765133E+02 -0.12018046550E+03  0.12481612608E+03  0.00000000000E+00 0.  1.
         11    1    1    2    0    0  0.72749179681E+02  0.11328776000E+02 -0.18142890104E+03  0.19579895414E+03  0.00000000000E+00 0. -1.
</event>
<event>
 7    1  0.2648915E-009  0.9949333E+02  0.7561462E-02  0.1281365E+00
          1   -1    0    0  501    0  0.00000000000E+00  0.00000000000E+00  0.11029534814E+04  0.11029534814E+04  0.00000000000E+00 0. -1.
         -1   -1    0    0    0  501 -0.00000000000E+00 -0.00000000000E+00 -0.12164905366E+02  0.12164905366E+02  0.00000000000E+00 0.  1.
         25    2    1    2    0    0 -0.23931218861E+02  0.32958809933E+02  0.71794615011E+03  0.72989900625E+03  0.12508756324E+03 0.  0.
          5    1    3    3  502    0 -0.54761668316E+02  0.43151097322E+02  0.65712081312E+03  0.66082228546E+03  0.41800000000E+01 0. -1.
         -5    1    3    3    0  502  0.30830449455E+02 -0.10192287389E+02  0.60825336988E+02  0.69076720793E+02  0.41800000000E+01 0. -1.
        -11    1    1    2    0    0  0.53898650420E+02 -0.38089038686E+02  0.23714317698E+03  0.24615589730E+03  0.00000000000E+00 0.  1.
         11    1    1    2    0    0 -0.29967431559E+02  0.51302287533E+01  0.13569924890E+03  0.13906348317E+03  0.00000000000E+00 0. -1.
</event>
<event>
 7    1  0.2648915E-009  0.1420417E+03  0.7561462E-02  0.1210608E+00
         -1   -1    0    0    0  501 -0.00000000000E+00  0.00000000000E+00  0.19514234905E+03  0.19514234905E+03  0.00000000000E+00 0.  1.
          1   -1    0    0  501    0  0.00000000000E+00 -0.00000000000E+00 -0.10971262896E+03  0.10971262896E+03  0.00000000000E+00 0. -1.
         25    2    1    2    0    0 -0.53510616943E+02 -0.80881531055E+02  0.63524206154E+02  0.17054909737E+03  0.12508581717E+03 0.  0.
          5    1    3    3  502    0 -0.74359372209E+02 -0.98831955912E+02  0.69720192941E+02  0.14204030924E+03  0.41800000000E+01 0. -1.
         -5    1    3    3    0  502  0.20848755266E+02  0.17950424857E+02 -0.61959867873E+01  0.28508788136E+02  0.41800000000E+01 0. -1.
        -11    1    1    2    0    0  0.73824676868E+02  0.33734699058E+02  0.12959245932E+02  0.82195224255E+02  0.00000000000E+00 0.  1.
         11    1    1    2    0    0 -0.20314059925E+02  0.47146831997E+02  0.89462680043E+01  0.52110656388E+02  0.00000000000E+00 0. -1.
</event>
<event>
 7    1  0.2648915E-009  0.1047921E+03  0.7561462E-02  0.1270530E+00
         -2   -1    0    0    0  501 -0.00000000000E+00  0.00000000000E+00  0.40496946271E+02  0.40496946271E+02  0.00000000000E+00 0.  1.
          2   -1    0    0  501    0  0.00000000000E+00 -0.00000000000E+00 -0.29971588552E+03  0.29971588552E+03  0.00000000000E+00 0. -1.
         25    2    1    2    0    0 -0.28168619966E+02  0.23596350595E+02 -0.20260259182E+03  0.24092300551E+03  0.12508327411E+03 0.  0.
          5    1    3    3  502    0  0.28864787486E+02 -0.35466136391E+02 -0.52231361299E+02  0.69545742430E+02  0.41800000000E+01 0. -1.
         -5    1    3    3    0  502 -0.57033407451E+02  0.59062486985E+02 -0.15037123052E+03  0.17137726308E+03  0.41800000000E+01 0. -1.
        -11    1    1    2    0    0 -0.87170267282E+01 -0.40106408072E+02 -0.25932449177E+02  0.48548969543E+02  0.00000000000E+00 0. -1.
         11    1    1    2    0    0  0.36885646694E+02  0.16510057477E+02 -0.30683898253E+02  0.50740856732E+02  0.00000000000E+00 0.  1.
</event>
<event>
 7    1  0.2648915E-009  0.1092283E+03  0.7561462E-02  0.1262006E+00
          2   -1    0    0  501    0  0.00000000000E+00  0.00000000000E+00  0.12555173303E+03  0.12555173303E+03  0.00000000000E+00 0. -1.
         -2   -1    0    0    0  501 -0.00000000000E+00 -0.00000000000E+00 -0.17430440686E+03  0.17430440686E+03  0.00000000000E+00 0.  1.
         25    2    1    2    0    0  0.24896392932E+01 -0.29943446617E+02  0.70671006928E+02  0.14678283750E+03  0.12509197363E+03 0.  0.
          5    1    3    3  502    0  0.61884654064E+02 -0.16846814469E+01  0.26672295687E+02  0.67538376627E+02  0.41800000000E+01 0.  1.
         -5    1    3    3    0  502 -0.59395014770E+02 -0.28258765170E+02  0.43998711240E+02  0.79244460875E+02  0.41800000000E+01 0.  1.
        -11    1    1    2    0    0 -0.44373980833E-01 -0.30253721446E+02 -0.65786601038E+02  0.72409712791E+02  0.00000000000E+00 0.  1.
         11    1    1    2    0    0 -0.24452653124E+01  0.60197168063E+02 -0.53637079726E+02  0.80663589598E+02  0.00000000000E+00 0. -1.
</event>
<event>
 7    1  0.2648915E-009  0.7974767E+02  0.7561462E-02  0.1329769E+00
          1   -1    0    0  501    0  0.00000000000E+00  0.00000000000E+00  0.22685978981E+03  0.22685978981E+03  0.00000000000E+00 0. -1.
         -1   -1    0    0    0  501 -0.00000000000E+00 -0.00000000000E+00 -0.55626941195E+02  0.55626941195E+02  0.00000000000E+00 0.  1.
         25    2    1    2    0    0  0.23539721769E+02  0.52506558315E+01  0.13620990024E+03  0.18649883951E+03  0.12508793838E+03 0.  0.
          5    1    3    3  502    0 -0.35968774016E+02  0.38204372613E+02  0.89649272412E+02  0.10396052729E+03  0.41800000000E+01 0.  1.
         -5    1    3    3    0  502  0.59508495786E+02 -0.32953716781E+02  0.46560627829E+02  0.82538312221E+02  0.41800000000E+01 0.  1.
        -11    1    1    2    0    0 -0.19845738206E+02 -0.17160089663E+02 -0.24063425540E+02  0.35600146782E+02  0.00000000000E+00 0.  1.
         11    1    1    2    0    0 -0.36939835632E+01  0.11909433831E+02  0.59086373912E+02  0.60387744707E+02  0.00000000000E+00 0. -1.
</event>
<event>
 7    1  0.2648915E-009  0.8641670E+02  0.7561462E-02  0.1311769E+00
          2   -1    0    0  501    0  0.00000000000E+00  0.00000000000E+00  0.16265775353E+03  0.16265775353E+03  0.00000000000E+00 0. -1.
         -2   -1    0    0    0  501 -0.00000000000E+00 -0.00000000000E+00 -0.99163970640E+02  0.99163970640E+02  0.00000000000E+00 0.  1.
         25    2    1    2    0    0  0.66230788056E+01 -0.53064920261E+02  0.68016855596E+02  0.15209712669E+03  0.12508993711E+03 0.  0.
          5    1    3    3  502    0  0.23467311384E+02 -0.14258423325E+02 -0.32623977775E+02  0.42846396175E+02  0.41800000000E+01 0.  1.
         -5    1    3    3    0  502 -0.16844232578E+02 -0.38806496936E+02  0.10064083337E+03  0.10925073051E+03  0.41800000000E+01 0.  1.
        -11    1    1    2    0    0  0.34143496426E+02  0.51450125363E+02 -0.21709681609E+02  0.65453831238E+02  0.00000000000E+00 0.  1.
         11    1    1    2    0    0 -0.40766575232E+02  0.16147948978E+01  0.17186608908E+02  0.44270766251E+02  0.00000000000E+00 0. -1.
</event>
<event>
 7    1  0.2648915E-009  0.1809321E+03  0.7561462E-02  0.1166904E+00
          2   -1    0    0  501    0  0.00000000000E+00  0.00000000000E+00  0.73863764965E+02  0.73863764965E+02  0.00000000000E+00 0. -1.
         -2   -1    0    0    0  501 -0.00000000000E+00 -0.00000000000E+00 -0.58868737851E+03  0.58868737851E+03  0.00000000000E+00 0.  1.
         25    2    1    2    0    0 -0.34817096643E+02  0.17426992553E+03 -0.25873004388E+03  0.33788979080E+03  0.12508412353E+03 0.  0.
          5    1    3    3  502    0 -0.56977533605E+01  0.57122332804E+02 -0.61122991530E+01  0.57881412382E+02  0.41800000000E+01 0.  1.
         -5    1    3    3    0  502 -0.29119343283E+02  0.11714759272E+03 -0.25261774473E+03  0.28000837842E+03  0.41800000000E+01 0.  1.
        -11    1    1    2    0    0  0.42577941615E+02 -0.97896845107E+02 -0.20876700714E+03  0.23447886187E+03  0.00000000000E+00 0.  1.
         11    1    1    2    0    0 -0.77608449713E+01 -0.76373080419E+02 -0.47326562528E+02  0.90182490807E+02  0.00000000000E+00 0. -1.
</event>
<event>
 7    1  0.2648915E-009  0.9734957E+02  0.7561462E-02  0.1285970E+00
          2   -1    0    0  501    0  0.00000000000E+00  0.00000000000E+00  0.10004210205E+03  0.10004210205E+03  0.00000000000E+00 0. -1.
         -2   -1    0    0    0  501 -0.00000000000E+00 -0.00000000000E+00 -0.12194268297E+03  0.12194268297E+03  0.00000000000E+00 0.  1.
         25    2    1    2    0    0 -0.15010503953E+02  0.15850122515E+02 -0.23929793471E+02  0.12921409429E+03  0.12508839089E+03 0.  0.
          5    1    3    3  502    0  0.51382925306E+02  0.77627113496E+01  0.11533686875E+02  0.53394410133E+02  0.41800000000E+01 0. -1.
         -5    1    3    3    0  502 -0.66393429259E+02  0.80874111653E+01 -0.35463480346E+02  0.75819684162E+02  0.41800000000E+01 0. -1.
        -11    1    1    2    0    0 -0.17251866354E+02 -0.34293603199E+02  0.27929369509E+02  0.47473443042E+02  0.00000000000E+00 0. -1.
         11    1    1    2    0    0  0.32262370307E+02  0.18443480684E+02 -0.25900156961E+02  0.45297247689E+02  0.00000000000E+00 0.  1.
</event>
<event>
 7    1  0.2648915E-009  0.1874710E+03  0.7561462E-02  0.1160762E+00
         -1   -1    0    0    0  501 -0.00000000000E+00  0.00000000000E+00  0.10118467527E+03  0.10118467527E+03  0.00000000000E+00 0.  1.
          1   -1    0    0  501    0  0.00000000000E+00 -0.00000000000E+00 -0.40702714525E+03  0.40702714525E+03  0.00000000000E+00 0. -1.
         25    2    1    2    0    0 -0.76206249101E+02  0.15150983111E+03 -0.12829653847E+03  0.24671792101E+03  0.12508840649E+03 0.  0.
          5    1    3    3  502    0 -0.65863272369E+02  0.14314629399E+02 -0.16826944043E+02  0.69595241992E+02  0.41800000000E+01 0.  1.
         -5    1    3    3    0  502 -0.10342976731E+02  0.13719520171E+03 -0.11146959442E+03  0.17712267902E+03  0.41800000000E+01 0.  1.
        -11    1    1    2    0    0  0.14548816363E+02 -0.35983829475E+02  0.24645272889E+01  0.38891874936E+02  0.00000000000E+00 0.  1.
         11    1    1    2    0    0  0.61657432738E+02 -0.11552600164E+03 -0.18001045880E+03  0.22260202458E+03  0.00000000000E+00 0. -1.
</event>
<event>
 7    1  0.2648915E-009  0.9021648E+02  0.7561462E-02  0.1302328E+00
          2   -1    0    0  501    0  0.00000000000E+00  0.00000000000E+00  0.35858652532E+02  0.35858652532E+02  0.00000000000E+00 0.  1.
         -2   -1    0    0    0  501 -0.00000000000E+00 -0.00000000000E+00 -0.96281867348E+03  0.96281867348E+03  0.00000000000E+00 0. -1.
         25    2    1    2    0    0  0.47692711999E+02  0.56594643140E+02 -0.83948176231E+03  0.85197248133E+03  0.12509968540E+03 0.  0.
          5    1    3    3  502    0  0.47050615255E+02  0.56529091868E+02 -0.84315713807E+03  0.84636914553E+03  0.41800000000E+01 0. -1.
         -5    1    3    3    0  502  0.64209674417E+00  0.65551271424E-01  0.36753757581E+01  0.56033358065E+01  0.41800000000E+01 0. -1.
        -11    1    1    2    0    0 -0.33314275555E+01 -0.58055947730E+02 -0.12355523239E+02  0.59449562075E+02  0.00000000000E+00 0.  1.
         11    1    1    2    0    0 -0.44361284443E+02  0.14613045908E+01 -0.75122735396E+02  0.87255282602E+02  0.00000000000E+00 0. -1.
</event>
<event>
 7    1  0.2648915E-009  0.3983868E+03  0.7561462E-02  0.1044340E+00
         -2   -1    0    0    0  501 -0.00000000000E+00  0.00000000000E+00  0.78927052432E+02  0.78927052432E+02  0.00000000000E+00 0.  1.
          2   -1    0    0  501    0  0.00000000000E+00 -0.00000000000E+00 -0.20134725534E+04  0.20134725534E+04  0.00000000000E+00 0. -1.
         25    2    1    2    0    0 -0.37263765099E+03  0.90531147917E+02 -0.99185602071E+03  0.10707380805E+04  0.12508782313E+03 0.  0.
          5    1    3    3  502    0 -0.29686521723E+03  0.16628668256E+02 -0.72209488126E+03  0.78092506667E+03  0.41800000000E+01 0.  1.
         -5    1    3    3    0  502 -0.75772433760E+02  0.73902479661E+02 -0.26976113945E+03  0.28981301381E+03  0.41800000000E+01 0.  1.
        -11    1    1    2    0    0  0.23996463776E+03 -0.14112645273E+02 -0.55389025811E+03  0.60380179874E+03  0.00000000000E+00 0. -1.
         11    1    1    2    0    0  0.13267301323E+03 -0.76418502644E+02 -0.38879922220E+03  0.41785972666E+03  0.00000000000E+00 0.  1.
</event>
<event>
 7    1  0.2648915E-009  0.1133434E+03  0.7561462E-02  0.1254501E+00
         -1   -1    0    0    0  501 -0.00000000000E+00  0.00000000000E+00  0.26810801314E+02  0.26810801314E+02  0.00000000000E+00 0.  1.
          1   -1    0    0  501    0  0.00000000000E+00 -0.00000000000E+00 -0.93817392913E+03  0.93817392913E+03  0.00000000000E+00 0. -1.
         25    2    1    2    0    0 -0.10280399522E+03 -0.18759262008E+02 -0.65739754982E+03  0.67730313536E+03  0.12508967710E+03 0.  0.
          5    1    3    3  502    0 -0.11114535230E+03 -0.18228391662E+02 -0.31122699646E+03  0.33100646417E+03  0.41800000000E+01 0.  1.
         -5    1    3    3    0  502  0.83413570802E+01 -0.53087034623E+00 -0.34617055336E+03  0.34629667119E+03  0.41800000000E+01 0.  1.
        -11    1    1    2    0    0  0.66359891776E+02  0.14660998063E+02 -0.23830135418E+03  0.24780257365E+03  0.00000000000E+00 0. -1.
         11    1    1    2    0    0  0.36444103443E+02  0.40982639457E+01 -0.15664223816E+02  0.39879021438E+02  0.00000000000E+00 0.  1.
</event>
<event>
 7    1  0.2648915E-009  0.2153104E+03  0.7561462E-02  0.1137428E+00
          2   -1    0    0  501    0  0.00000000000E+00  0.00000000000E+00  0.10756799035E+03  0.10756799035E+03  0.00000000000E+00 0. -1.
         -2   -1    0    0    0  501 -0.00000000000E+00 -0.00000000000E+00 -0.50127328327E+03  0.50127328327E+03  0.00000000000E+00 0.  1.
         25    2    1    2    0    0 -0.48861176901E+02 -0.19263238471E+03 -0.26638747737E+03  0.35511438612E+03  0.12509711780E+03 0.  0.
          5    1    3    3  502    0  0.21972656278E+01 -0.15971782402E+03 -0.24096192852E+03  0.28912754051E+03  0.41800000000E+01 0.  1.
         -5    1    3    3    0  502 -0.51058442529E+02 -0.32914560691E+02 -0.25425548852E+02  0.65986845609E+02  0.41800000000E+01 0.  1.
        -11    1    1    2    0    0  0.11652335805E+02 -0.19666112337E+01  0.75789971550E+01  0.14038721000E+02  0.00000000000E+00 0. -1.
         11    1    1    2    0    0  0.37208841096E+02  0.19459899595E+03 -0.13489681270E+03  0.23968816649E+03  0.00000000000E+00 0.  1.
</event>
<event>
 7    1  0.2648915E-009  0.1550911E+03  0.7561462E-02  0.1194353E+00
         -1   -1    0    0    0  501 -0.00000000000E+00  0.00000000000E+00  0.63708227318E+02  0.63708227318E+02  0.00000000000E+00 0.  1.
          1   -1    0    0  501    0  0.00000000000E+00 -0.00000000000E+00 -0.53525722056E+03  0.53525722056E+03  0.00000000000E+00 0. -1.
         25    2    1    2    0    0  0.75171505122E+02 -0.10530347646E+03 -0.36796502214E+03  0.40961700678E+03  0.12509299497E+03 0.  0.
          5    1    3    3  502    0 -0.14486576855E+02 -0.24403615398E+01  0.18721890584E+01  0.15388104669E+02  0.41800000000E+01 0.  1.
         -5    1    3    3    0  502  0.89658081977E+02 -0.10286311492E+03 -0.36983721120E+03  0.39422890211E+03  0.41800000000E+01 0.  1.
        -11    1    1    2    0    0  0.21327790763E+02  0.13776352615E+02 -0.19261265508E+02  0.31869403810E+02  0.00000000000E+00 0.  1.
         11    1    1    2    0    0 -0.96499295885E+02  0.91527123844E+02 -0.84322705593E+02  0.15747903728E+03  0.00000000000E+00 0. -1.
</event>
<event>
 7    1  0.2648915E-009  0.1468548E+03  0.7561462E-02  0.1204392E+00
         -2   -1    0    0    0  501 -0.00000000000E+00  0.00000000000E+00  0.25780129653E+02  0.25780129653E+02  0.00000000000E+00 0.  1.
          2   -1    0    0  501    0  0.00000000000E+00 -0.00000000000E+00 -0.87932088100E+03  0.87932088100E+03  0.00000000000E+00 0. -1.
         25    2    1    2    0    0  0.35372715089E+02 -0.92751497888E+02 -0.51879833622E+03  0.54282056647E+03  0.12509350257E+03 0.  0.
          5    1    3    3  502    0  0.14251266506E+02 -0.12012894026E+03 -0.44576931852E+03  0.46191105055E+03  0.41800000000E+01 0. -1.
         -5    1    3    3    0  502  0.21121448583E+02  0.27377442367E+02 -0.73029017698E+02  0.80909515922E+02  0.41800000000E+01 0. -1.
        -11    1    1    2    0    0 -0.65790379994E+02  0.82961560853E+02 -0.24075160284E+03  0.26300632873E+03  0.00000000000E+00 0. -1.
         11    1    1    2    0    0  0.30417664905E+02  0.97899370348E+01 -0.93990812286E+02  0.99274115456E+02  0.00000000000E+00 0.  1.
</event>
<event>
 7    1  0.2648915E-009  0.4495457E+02  0.7561462E-02  0.1474625E+00
          4   -1    0    0  501    0  0.00000000000E+00  0.00000000000E+00  0.84356073464E+02  0.84356073464E+02  0.00000000000E+00 0. -1.
         -4   -1    0    0    0  501 -0.00000000000E+00 -0.00000000000E+00 -0.14841502704E+03  0.14841502704E+03  0.00000000000E+00 0.  1.
         25    2    1    2    0    0 -0.15071316342E+02  0.25959204289E+02 -0.41203965998E+02  0.13508028594E+03  0.12509153437E+03 0.  0.
          5    1    3    3  502    0 -0.16444119288E+02  0.27415058209E+02  0.41329115633E+02  0.52417198273E+02  0.41800000000E+01 0. -1.
         -5    1    3    3    0  502  0.13728029458E+01 -0.14558539204E+01 -0.82533081631E+02  0.82663087663E+02  0.41800000000E+01 0. -1.
        -11    1    1    2    0    0  0.37327164717E+01  0.12444116771E+02 -0.48453757588E+02  0.50165285196E+02  0.00000000000E+00 0.  1.
         11    1    1    2    0    0  0.11338599870E+02 -0.38403321060E+02  0.25598770014E+02  0.47525529367E+02  0.00000000000E+00 0. -1.
</event>
<event>
 7    1  0.2648915E-009  0.8850579E+02  0.7561462E-02  0.1306511E+00
         -2   -1    0    0    0  501 -0.00000000000E+00  0.00000000000E+00  0.47880564508E+03  0.47880564508E+03  0.00000000000E+00 0.  1.
          2   -1    0    0  501    0  0.00000000000E+00 -0.00000000000E+00 -0.26188460672E+02  0.26188460672E+02  0.00000000000E+00 0. -1.
         25    2    1    2    0    0 -0.18971051276E+02  0.15582824030E+01  0.21756414177E+03  0.25167973695E+03  0.12508479194E+03 0.  0.
          5    1    3    3  502    0  0.15099836541E+02 -0.38150439845E+02  0.17425390953E+02  0.44772511364E+02  0.41800000000E+01 0. -1.
         -5    1    3    3    0  502 -0.34070887817E+02  0.39708722248E+02  0.20013875082E+03  0.20690722559E+03  0.41800000000E+01 0. -1.
        -11    1    1    2    0    0  0.14581434155E+01 -0.40529105199E+02  0.17484823208E+03  0.17948994070E+03  0.00000000000E+00 0.  1.
         11    1    1    2    0    0  0.17512907861E+02  0.38970822796E+02  0.60204810562E+02  0.73824428111E+02  0.00000000000E+00 0. -1.
</event>
<event>
 7    1  0.2648915E-009  0.1046008E+03  0.7561462E-02  0.1270908E+00
          2   -1    0    0  501    0  0.00000000000E+00  0.00000000000E+00  0.21956843027E+03  0.21956843027E+03  0.00000000000E+00 0. -1.
         -2   -1    0    0    0  501 -0.00000000000E+00 -0.00000000000E+00 -0.91726290424E+02  0.91726290424E+02  0.00000000000E+00 0.  1.
         25    2    1    2    0    0  0.72159303704E+02 -0.12270880104E+01  0.14655397866E+03  0.20575615614E+03  0.12509618808E+03 0.  0.
          5    1    3    3  502    0  0.66778064424E+02 -0.32818383697E+02  0.15531756680E+03  0.17227122555E+03  0.41800000000E+01 0.  1.
         -5    1    3    3    0  502  0.53812392805E+01  0.31591295686E+02 -0.87635881411E+01  0.33484930587E+02  0.41800000000E+01 0.  1.
        -11    1    1    2    0    0 -0.86532353174E+02 -0.50418693461E+01 -0.91217604314E+01  0.87157759871E+02  0.00000000000E+00 0. -1.
         11    1    1    2    0    0  0.14373049470E+02  0.62689573565E+01 -0.95900783819E+01  0.18380804683E+02  0.00000000000E+00 0.  1.
</event>
<event>
 7    1  0.2648915E-009  0.2050961E+03  0.7561462E-02  0.1145509E+00
         -3   -1    0    0    0  501 -0.00000000000E+00  0.00000000000E+00  0.24818946948E+03  0.24818946948E+03  0.00000000000E+00 0.  1.
          3   -1    0    0  501    0  0.00000000000E+00 -0.00000000000E+00 -0.24031882144E+03  0.24031882144E+03  0.00000000000E+00 0. -1.
         25    2    1    2    0    0  0.18674441798E+03  0.34128323846E+02  0.11310343360E+03  0.25392400798E+03  0.12508714963E+03 0.  0.
          5    1    3    3  502    0  0.18873247642E+03  0.48103507442E+01  0.69595891393E+02  0.20125642258E+03  0.41800000000E+01 0. -1.
         -5    1    3    3    0  502 -0.19880584426E+01  0.29317973101E+02  0.43507542205E+02  0.52667585400E+02  0.41800000000E+01 0. -1.
        -11    1    1    2    0    0 -0.13689355806E+03 -0.36784351396E+02 -0.11641367737E+03  0.18342594970E+03  0.00000000000E+00 0. -1.
         11    1    1    2    0    0 -0.49850859924E+02  0.26560275503E+01  0.11180891818E+02  0.51158333235E+02  0.00000000000E+00 0.  1.
</event>
<event>
 7    1  0.2648915E-009  0.7455777E+02  0.7561462E-02  0.1345246E+00
          1   -1    0    0  501    0  0.00000000000E+00  0.00000000000E+00  0.24965297548E+03  0.24965297548E+03  0.00000000000E+00 0. -1.
         -1   -1    0    0    0  501 -0.00000000000E+00 -0.00000000000E+00 -0.60526932896E+02  0.60526932896E+02  0.00000000000E+00 0.  1.
         25    2    1    2    0    0 -0.45460142654E+02  0.12899534081E+02  0.66773521216E+02  0.14946242961E+03  0.12508913693E+03 0.  0.
          5    1    3    3  502    0 -0.42611291626E+02  0.48229549877E+01 -0.29820398568E+02  0.52399538544E+02  0.41800000000E+01 0. -1.
         -5    1    3    3    0  502 -0.28488510281E+01  0.80765790929E+01  0.96593919784E+02  0.97062891062E+02  0.41800000000E+01 0. -1.
        -11    1    1    2    0    0  0.47070344426E+02 -0.44548657719E+02  0.50414135138E+02  0.82108375034E+02  0.00000000000E+00 0.  1.
         11    1    1    2    0    0 -0.16102017722E+01  0.31649123639E+02  0.71938386228E+02  0.78609103734E+02  0.00000000000E+00 0. -1.
</event>
<event>
 7    1  0.2648915E-009  0.1347246E+03  0.7561462E-02  0.1220609E+00
          2   -1    0    0  501    0  0.00000000000E+00  0.00000000000E+00  0.45566359016E+03  0.45566359016E+03  0.00000000000E+00 0. -1.
         -2   -1    0    0    0  501 -0.00000000000E+00 -0.00000000000E+00 -0.61938866577E+02  0.61938866577E+02  0.00000000000E+00 0.  1.
         25    2    1    2    0    0  0.33747986213E+02 -0.10551876037E+03  0.29830168270E+03  0.34191246852E+03  0.12508839620E+03 0.  0.
          5    1    3    3  502    0  0.18651063896E+02  0.21274732662E+02  0.11485559643E+03  0.11836281876E+03  0.41800000000E+01 0.  1.
         -5    1    3    3    0  502  0.15096922317E+02 -0.12679349303E+03  0.18344608627E+03  0.22354964976E+03  0.41800000000E+01 0.  1.
        -11    1    1    2    0    0 -0.30205077094E+01  0.46093930425E+02 -0.13268174030E+02  0.48060569399E+02  0.00000000000E+00 0.  1.
         11    1    1    2    0    0 -0.30727478503E+02  0.59424829944E+02  0.10869121491E+03  0.12762941882E+03  0.00000000000E+00 0. -1.
</event>
<event>
 7    1  0.2648915E-009  0.1207762E+03  0.7561462E-02  0.1241822E+00
         -3   -1    0    0    0  501 -0.00000000000E+00  0.00000000000E+00  0.87856147707E+03  0.87856147707E+03  0.00000000000E+00 0.  1.
          3   -1    0    0  501    0  0.00000000000E+00 -0.00000000000E+00 -0.18461726697E+02  0.18461726697E+02  0.00000000000E+00 0. -1.
         25    2    1    2    0    0 -0.67773682667E+02  0.93268787564E+01  0.53270709106E+03  0.55145662217E+03  0.12508916235E+03 0.  0.
          5    1    3    3  502    0 -0.70476867142E+02 -0.43020688693E+02  0.40490900890E+03  0.41326328937E+03  0.41800000000E+01 0.  1.
         -5    1    3    3    0  502  0.27031844744E+01  0.52347567450E+02  0.12779808216E+03  0.13819333279E+03  0.41800000000E+01 0.  1.
        -11    1    1    2    0    0 -0.18763929610E+02  0.25793923693E+01  0.28890672218E+02  0.34545756043E+02  0.00000000000E+00 0. -1.
         11    1    1    2    0    0  0.86537612277E+02 -0.11906271126E+02  0.29850198710E+03  0.31102082556E+03  0.00000000000E+00 0.  1.
</event>
<event>
 7    1  0.2648915E-009  0.1096879E+03  0.7561462E-02  0.1261149E+00
          1   -1    0    0  501    0  0.00000000000E+00  0.00000000000E+00  0.71175342593E+02  0.71175342593E+02  0.00000000000E+00 0. -1.
         -1   -1    0    0    0  501 -0.00000000000E+00 -0.00000000000E+00 -0.31591100939E+03  0.31591100939E+03  0.00000000000E+00 0.  1.
         25    2    1    2    0    0 -0.79807873348E+02 -0.22707118045E+02 -0.51990922797E+02  0.15886255581E+03  0.12509734500E+03 0.  0.
          5    1    3    3  502    0 -0.12351446693E+01 -0.34089664781E+02  0.29296538531E+02  0.45159610241E+02  0.41800000000E+01 0.  1.
         -5    1    3    3    0  502 -0.78572728679E+02  0.11382546736E+02 -0.81287461328E+02  0.11370294557E+03  0.41800000000E+01 0.  1.
        -11    1    1    2    0    0  0.56347847464E+02  0.45780017411E+02 -0.17786381296E+03  0.19211045226E+03  0.00000000000E+00 0.  1.
         11    1    1    2    0    0  0.23460025884E+02 -0.23072899366E+02 -0.14880931040E+02  0.36113343909E+02  0.00000000000E+00 0. -1.
</event>
<event>
 7    1  0.2648915E-009  0.1430543E+03  0.7561462E-02  0.1209277E+00
         -1   -1    0    0    0  501 -0.00000000000E+00  0.00000000000E+00  0.40309535469E+02  0.40309535469E+02  0.00000000000E+00 0.  1.
          1   -1    0    0  501    0  0.00000000000E+00 -0.00000000000E+00 -0.64787797107E+03  0.64787797107E+03  0.00000000000E+00 0. -1.
         25    2    1    2    0    0  0.76309967435E+02  0.63394308625E+02 -0.46555657899E+03  0.49217068996E+03  0.12508801029E+03 0.  0.
          5    1    3    3  502    0  0.10507159150E+03  0.30761971122E+02 -0.26216631709E+03  0.28413903009E+03  0.41800000000E+01 0. -1.
         -5    1    3    3    0  502 -0.28761624063E+02  0.32632337504E+02 -0.20339026190E+03  0.20803165987E+03  0.41800000000E+01 0. -1.
        -11    1    1    2    0    0 -0.93108616412E+02 -0.68155174675E+02 -0.13391710580E+03  0.17677141599E+03  0.00000000000E+00 0.  1.
         11    1    1    2    0    0  0.16798648977E+02  0.47608660498E+01 -0.80947508016E+01  0.19245400581E+02  0.00000000000E+00 0. -1.
</event>
<event>
 7    1  0.2648915E-009  0.9647966E+02  0.7561462E-02  0.1287878E+00
          1   -1    0    0  501    0  0.00000000000E+00  0.00000000000E+00  0.21911392539E+03  0.21911392539E+03  0.00000000000E+00 0. -1.
         -1   -1    0    0    0  501 -0.00000000000E+00 -0.00000000000E+00 -0.53155023797E+02  0.53155023797E+02  0.00000000000E+00 0.  1.
         25    2    1    2    0    0 -0.30090245980E+01  0.63757772203E+01  0.82667325321E+02  0.15010402821E+03  0.12509047863E+03 0.  0.
          5    1    3    3  502    0  0.35641145122E+02  0.51929307450E+02  0.56629568492E+02  0.84801678199E+02  0.41800000000E+01 0.  1.
         -5    1    3    3    0  502 -0.38650169720E+02 -0.45553530230E+02  0.26037756829E+02  0.65302350007E+02  0.41800000000E+01 0.  1.
        -11    1    1    2    0    0 -0.16427797814E+02 -0.33072301323E+02  0.81050350015E+02  0.89066317390E+02  0.00000000000E+00 0. -1.
         11    1    1    2    0    0  0.19436822412E+02  0.26696524102E+02  0.22412262581E+01  0.33098603592E+02  0.00000000000E+00 0.  1.
</event>
<event>
 7    1  0.2648915E-009  0.9547880E+02  0.7561462E-02  0.1290101E+00
         -2   -1    0    0    0  501 -0.00000000000E+00  0.00000000000E+00  0.41819329209E+02  0.41819329209E+02  0.00000000000E+00 0. -1.
          2   -1    0    0  501    0  0.00000000000E+00 -0.00000000000E+00 -0.35458993260E+03  0.35458993260E+03  0.00000000000E+00 0.  1.
         25    2    1    2    0    0 -0.40362759422E+02  0.36838742690E+02 -0.18658529043E+03  0.23118051775E+03  0.12507644011E+03 0.  0.
          5    1    3    3  502    0  0.30219920332E+02 -0.45808404008E+01 -0.40743870115E+01  0.31117530640E+02  0.41800000000E+01 0. -1.
         -5    1    3    3    0  502 -0.70582679753E+02  0.41419583090E+02 -0.18251090342E+03  0.20006298711E+03  0.41800000000E+01 0. -1.
        -11    1    1    2    0    0  0.26419381046E+02 -0.51530310483E+02 -0.26815401928E+02  0.63815533955E+02  0.00000000000E+00 0. -1.
         11    1    1    2    0    0  0.13943378376E+02  0.14691567794E+02 -0.99369911040E+02  0.10141321011E+03  0.00000000000E+00 0.  1.
</event>
<event>
 7    1  0.2648915E-009  0.1288601E+03  0.7561462E-02  0.1229157E+00
         -2   -1    0    0    0  501 -0.00000000000E+00  0.00000000000E+00  0.26452960971E+02  0.26452960971E+02  0.00000000000E+00 0.  1.
          2   -1    0    0  501    0  0.00000000000E+00 -0.00000000000E+00 -0.10186477205E+04  0.10186477205E+04  0.00000000000E+00 0. -1.
         25    2    1    2    0    0  0.90250078261E+02 -0.48074560959E+02 -0.72972605845E+03  0.74739803806E+03  0.12508983520E+03 0.  0.
          5    1    3    3  502    0  0.97093143936E+02 -0.28391594651E+02 -0.29012506128E+03  0.30728355769E+03  0.41800000000E+01 0. -1.
         -5    1    3    3    0  502 -0.68430656752E+01 -0.19682966307E+02 -0.43960099718E+03  0.44011448037E+03  0.41800000000E+01 0. -1.
        -11    1    1    2    0    0 -0.10202346017E+03  0.18898341468E+02 -0.16161622170E+03  0.19205659804E+03  0.00000000000E+00 0.  1.
         11    1    1    2    0    0  0.11773381913E+02  0.29176219491E+02 -0.10085247936E+03  0.10564604535E+03  0.00000000000E+00 0. -1.
</event>
<event>
 7    1  0.2648915E-009  0.1629827E+03  0.7561462E-02  0.1185370E+00
         -2   -1    0    0    0  501 -0.00000000000E+00  0.00000000000E+00  0.80003737152E+02  0.80003737152E+02  0.00000000000E+00 0.  1.
          2   -1    0    0  501    0  0.00000000000E+00 -0.00000000000E+00 -0.49303528896E+03  0.49303528896E+03  0.00000000000E+00 0. -1.
         25    2    1    2    0    0 -0.98206766925E+02 -0.84074294164E+02 -0.64326500903E+02  0.19104455582E+03  0.12508823919E+03 0.  0.
          5    1    3    3  502    0 -0.11070620748E+03 -0.10447973585E+03 -0.67455504189E+02  0.16655208502E+03  0.41800000000E+01 0.  1.
         -5    1    3    3    0  502  0.12499440554E+02  0.20405441689E+02  0.31290032864E+01  0.24492470807E+02  0.41800000000E+01 0.  1.
        -11    1    1    2    0    0  0.10933484944E+03  0.64682121129E+02 -0.32710444389E+03  0.35090626000E+03  0.00000000000E+00 0. -1.
         11    1    1    2    0    0 -0.11128082513E+02  0.19392173035E+02 -0.21600607012E+02  0.31088210285E+02  0.00000000000E+00 0.  1.
</event>
<event>
 7    1  0.2648915E-009  0.8444137E+02  0.7561462E-02  0.1316900E+00
          1   -1    0    0  501    0  0.00000000000E+00  0.00000000000E+00  0.38350395526E+03  0.38350395526E+03  0.00000000000E+00 0. -1.
         -1   -1    0    0    0  501 -0.00000000000E+00 -0.00000000000E+00 -0.47442259964E+02  0.47442259964E+02  0.00000000000E+00 0.  1.
         25    2    1    2    0    0  0.20647435130E+02 -0.26673388225E+02  0.69008990823E+02  0.14679306211E+03  0.12509266986E+03 0.  0.
          5    1    3    3  502    0 -0.19127277695E+02  0.90266392791E+01 -0.28370135741E+02  0.35632428638E+02  0.41800000000E+01 0.  1.
         -5    1    3    3    0  502  0.39774712825E+02 -0.35700027504E+02  0.97379126564E+02  0.11116063347E+03  0.41800000000E+01 0.  1.
        -11    1    1    2    0    0 -0.37985460267E+01  0.58010262534E+02  0.12735997704E+03  0.14000065451E+03  0.00000000000E+00 0.  1.
         11    1    1    2    0    0 -0.16848889103E+02 -0.31336874309E+02  0.13969272743E+03  0.14415249860E+03  0.00000000000E+00 0. -1.
</event>
<event>
 7    1  0.2648915E-009  0.1163469E+03  0.7561462E-02  0.1249248E+00
          2   -1    0    0  501    0  0.00000000000E+00  0.00000000000E+00  0.22942834648E+02  0.22942834648E+02  0.00000000000E+00 0. -1.
         -2   -1    0    0    0  501 -0.00000000000E+00 -0.00000000000E+00 -0.70251902728E+03  0.70251902728E+03  0.00000000000E+00 0.  1.
         25    2    1    2    0    0 -0.52293572663E+02 -0.37980288075E+02 -0.40608441845E+03  0.42980161334E+03  0.12509097447E+03 0.  0.
          5    1    3    3  502    0 -0.32325627072E+02  0.38778081139E+02 -0.84204971609E+02  0.98268180945E+02  0.41800000000E+01 0. -1.
         -5    1    3    3    0  502 -0.19967945590E+02 -0.76758369214E+02 -0.32187944684E+03  0.33153343239E+03  0.41800000000E+01 0. -1.
        -11    1    1    2    0    0  0.59063940986E+02  0.57208880308E+02 -0.25572139603E+03  0.26861652500E+03  0.00000000000E+00 0.  1.
         11    1    1    2    0    0 -0.67703683232E+01 -0.19228592234E+02 -0.17770378151E+02  0.27043723600E+02  0.00000000000E+00 0. -1.
</event>
<event>
 7    1  0.2648915E-009  0.9159002E+02  0.7561462E-02  0.1299046E+00
          4   -1    0    0  501    0  0.00000000000E+00  0.00000000000E+00  0.63328968157E+02  0.63328968157E+02  0.00000000000E+00 0. -1.
         -4   -1    0    0    0  501 -0.00000000000E+00 -0.00000000000E+00 -0.26003492057E+03  0.26003492057E+03  0.00000000000E+00 0.  1.
         25    2    1    2    0    0  0.99910258239E+01 -0.51861241587E+02 -0.16836961848E+03  0.21629722843E+03  0.12508698424E+03 0.  0.
          5    1    3    3  502    0  0.40898088064E+02 -0.39330142469E+02 -0.17323192580E+03  0.18233564169E+03  0.41800000000E+01 0. -1.
         -5    1    3    3    0  502 -0.30907062240E+02 -0.12531099119E+02  0.48623073258E+01  0.33961586741E+02  0.41800000000E+01 0. -1.
        -11    1    1    2    0    0  0.28465846266E+02  0.44841868667E+00 -0.31908650505E+02  0.42762921556E+02  0.00000000000E+00 0.  1.
         11    1    1    2    0    0 -0.38456872089E+02  0.51412822900E+02  0.35723165740E+01  0.64303738734E+02  0.00000000000E+00 0. -1.
</event>
<event>
 7    1  0.2648915E-009  0.1355367E+03  0.7561462E-02  0.1219464E+00
          1   -1    0    0  501    0  0.00000000000E+00  0.00000000000E+00  0.20767571811E+03  0.20767571811E+03  0.00000000000E+00 0. -1.
         -1   -1    0    0    0  501 -0.00000000000E+00 -0.00000000000E+00 -0.92997479027E+02  0.92997479027E+02  0.00000000000E+00 0.  1.
         25    2    1    2    0    0 -0.38943696528E+02 -0.76821468730E+02  0.43488135545E+02  0.15797235799E+03  0.12508356566E+03 0.  0.
          5    1    3    3  502    0 -0.16253690089E+02  0.32107138398E+02  0.27502999316E+02  0.45485581771E+02  0.41800000000E+01 0.  1.
         -5    1    3    3    0  502 -0.22690006439E+02 -0.10892860713E+03  0.15985136229E+02  0.11248677622E+03  0.41800000000E+01 0.  1.
        -11    1    1    2    0    0  0.67765887401E+02  0.56560547432E+02  0.54271389000E+02  0.10361802297E+03  0.00000000000E+00 0.  1.
         11    1    1    2    0    0 -0.28822190874E+02  0.20260921298E+02  0.16918714536E+02  0.39082816175E+02  0.00000000000E+00 0. -1.
</event>
<event>
 7    1  0.2648915E-009  0.6904628E+02  0.7561462E-02  0.1363367E+00
          1   -1    0    0  501    0  0.00000000000E+00  0.00000000000E+00  0.19955435530E+03  0.19955435530E+03  0.00000000000E+00 0. -1.
         -1   -1    0    0    0  501 -0.00000000000E+00 -0.00000000000E+00 -0.64173011700E+02  0.64173011700E+02  0.00000000000E+00 0.  1.
         25    2    1    2    0    0  0.25125126501E+02 -0.99812647835E+01  0.71265766468E+02  0.14648267428E+03  0.12508983478E+03 0.  0.
          5    1    3    3  502    0  0.28708793707E+02 -0.45796380369E+02  0.90472276631E+02  0.10547136355E+03  0.41800000000E+01 0.  1.
         -5    1    3    3    0  502 -0.35836672061E+01  0.35815115585E+02 -0.19206510162E+02  0.41011310728E+02  0.41800000000E+01 0.  1.
        -11    1    1    2    0    0 -0.26911872237E+02 -0.91538102551E+01  0.84545352871E+02  0.89196175936E+02  0.00000000000E+00 0. -1.
         11    1    1    2    0    0  0.17867457366E+01  0.19135075039E+02 -0.20429775738E+02  0.28048516784E+02  0.00000000000E+00 0.  1.
</event>
<event>
 7    1  0.2648915E-009  0.1108149E+03  0.7561462E-02  0.1259068E+00
          2   -1    0    0  501    0  0.00000000000E+00  0.00000000000E+00  0.74401149129E+03  0.74401149129E+03  0.00000000000E+00 0. -1.
         -2   -1    0    0    0  501 -0.00000000000E+00 -0.00000000000E+00 -0.19835467108E+02  0.19835467108E+02  0.00000000000E+00 0.  1.
         25    2    1    2    0    0 -0.17551436743E+02  0.35083107992E+02  0.52674316626E+03  0.54281196348E+03  0.12509031575E+03 0.  0.
          5    1    3    3  502    0 -0.43442667375E+02 -0.29596384643E+02  0.32703542861E+03  0.33125949842E+03  0.41800000000E+01 0. -1.
         -5    1    3    3    0  502  0.25891230632E+02  0.64679492635E+02  0.19970773766E+03  0.21155246506E+03  0.41800000000E+01 0. -1.
        -11    1    1    2    0    0 -0.26513729487E+02 -0.46549289622E+02  0.98436241715E+02  0.11206921031E+03  0.00000000000E+00 0.  1.
         11    1    1    2    0    0  0.44065166230E+02  0.11466181630E+02  0.98996616200E+02  0.10896578461E+03  0.00000000000E+00 0. -1.
</event>
<event>
 7    1  0.2648915E-009  0.9256574E+02  0.7561462E-02  0.1296755E+00
         -1   -1    0    0    0  501 -0.00000000000E+00  0.00000000000E+00  0.30118261936E+02  0.30118261936E+02  0.00000000000E+00 0.  1.
          1   -1    0    0  501    0  0.00000000000E+00 -0.00000000000E+00 -0.40804877082E+03  0.40804877082E+03  0.00000000000E+00 0. -1.
         25    2    1    2    0    0 -0.17550136980E+02 -0.13663870952E+02 -0.19631796559E+03  0.23384339849E+03  0.12508909915E+03 0.  0.
          5    1    3    3  502    0 -0.40248409120E+02  0.37239484143E+02 -0.40477084532E+02  0.68283090060E+02  0.41800000000E+01 0.  1.
         -5    1    3    3    0  502  0.22698272140E+02 -0.50903355095E+02 -0.15584088106E+03  0.16556030843E+03  0.41800000000E+01 0.  1.
        -11    1    1    2    0    0 -0.20293519154E+02 -0.16258765169E+02 -0.13248576522E+02  0.29183885011E+02  0.00000000000E+00 0.  1.
         11    1    1    2    0    0  0.37843656134E+02  0.29922636121E+02 -0.16836396677E+03  0.17513974925E+03  0.00000000000E+00 0. -1.
</event>
<event>
 7    1  0.2648915E-009  0.1198832E+03  0.7561462E-02  0.1243290E+00
          1   -1    0    0  501    0  0.00000000000E+00  0.00000000000E+00  0.59542394072E+03  0.59542394072E+03  0.00000000000E+00 0. -1.
         -1   -1    0    0    0  501 -0.00000000000E+00 -0.00000000000E+00 -0.34931499252E+02  0.34931499252E+02  0.00000000000E+00 0.  1.
         25    2    1    2    0    0 -0.54441131428E+02  0.74541096201E+02  0.24679526399E+03  0.29167787208E+03  0.12509143423E+03 0.  0.
          5    1    3    3  502    0  0.17642009967E+02  0.44522532756E+02  0.18744037740E+03  0.19350675419E+03  0.41800000000E+01 0. -1.
         -5    1    3    3    0  502 -0.72083141395E+02  0.30018563445E+02  0.59354886590E+02  0.98171117885E+02  0.41800000000E+01 0. -1.
        -11    1    1    2    0    0  0.57545708286E+02 -0.23172959260E+02  0.24564882324E+03  0.25336108411E+03  0.00000000000E+00 0. -1.
         11    1    1    2    0    0 -0.31045768577E+01 -0.51368136941E+02  0.68048354238E+02  0.85316483781E+02  0.00000000000E+00 0.  1.
</event>
<event>
 7    1  0.2648915E-009  0.1690233E+03  0.7561462E-02  0.1178870E+00
         -2   -1    0    0    0  501 -0.00000000000E+00  0.00000000000E+00  0.34419920029E+02  0.34419920029E+02  0.00000000000E+00 0.  1.
          2   -1    0    0  501    0  0.00000000000E+00 -0.00000000000E+00 -0.10341972284E+04  0.10341972284E+04  0.00000000000E+00 0. -1.
         25    2    1    2    0    0  0.15261063769E+03 -0.13927789593E+02 -0.64764059079E+03  0.67717780372E+03  0.12508977958E+03 0.  0.
          5    1    3    3  502    0  0.15575991424E+03  0.18524324389E+01 -0.64032672981E+03  0.65901470067E+03  0.41800000000E+01 0.  1.
         -5    1    3    3    0  502 -0.31492765452E+01 -0.15780222032E+02 -0.73138609833E+01  0.18163103056E+02  0.41800000000E+01 0.  1.
        -11    1    1    2    0    0 -0.14216962997E+03 -0.68563961685E+01 -0.32974588932E+03  0.35915395776E+03  0.00000000000E+00 0.  1.
         11    1    1    2    0    0 -0.10441007724E+02  0.20784185762E+02 -0.22390828277E+02  0.32285386958E+02  0.00000000000E+00 0. -1.
</event>
<event>
 7    1  0.2648915E-009  0.1638737E+03  0.7561462E-02  0.1184391E+00
         -3   -1    0    0    0  501 -0.00000000000E+00  0.00000000000E+00  0.17429045461E+03  0.17429045461E+03  0.00000000000E+00 0.  1.
          3   -1    0    0  501    0  0.00000000000E+00 -0.00000000000E+00 -0.19235358687E+03  0.19235358687E+03  0.00000000000E+00 0. -1.
         25    2    1    2    0    0 -0.73482792986E+02  0.11948034885E+03  0.36744553496E+02  0.19150562597E+03  0.12509583502E+03 0.  0.
          5    1    3    3  502    0 -0.30690029363E+02  0.11721355501E+03  0.67342585579E+02  0.13868450386E+03  0.41800000000E+01 0.  1.
         -5    1    3    3    0  502 -0.42792763623E+02  0.22667938418E+01 -0.30598032083E+02  0.52821122102E+02  0.41800000000E+01 0.  1.
        -11    1    1    2    0    0 -0.88231269160E+01 -0.63043112836E+02 -0.56964777872E+01  0.63911904241E+02  0.00000000000E+00 0. -1.
         11    1    1    2    0    0  0.82305919902E+02 -0.56437236014E+02 -0.49111207972E+02  0.11122651126E+03  0.00000000000E+00 0.  1.
</event>
<event>
 7    1  0.2648915E-009  0.1172498E+03  0.7561462E-02  0.1247704E+00
         -1   -1    0    0    0  501 -0.00000000000E+00  0.00000000000E+00  0.66590938175E+02  0.66590938175E+02  0.00000000000E+00 0.  1.
          1   -1    0    0  501    0  0.00000000000E+00 -0.00000000000E+00 -0.40585568016E+03  0.40585568016E+03  0.00000000000E+00 0. -1.
         25    2    1    2    0    0  0.25468610748E+02 -0.69849806874E+02 -0.32537100269E+03  0.35643009011E+03  0.12509386112E+03 0.  0.
          5    1    3    3  502    0 -0.57578122270E+01  0.21682896189E+02 -0.18208270105E+03  0.18350717373E+03  0.41800000000E+01 0.  1.
         -5    1    3    3    0  502  0.31226422975E+02 -0.91532703063E+02 -0.14328830165E+03  0.17292291638E+03  0.41800000000E+01 0.  1.
        -11    1    1    2    0    0  0.28315772377E+02  0.50161402633E+02 -0.27462847121E+01  0.57667073440E+02  0.00000000000E+00 0. -1.
         11    1    1    2    0    0 -0.53784383125E+02  0.19688404240E+02 -0.11147454575E+02  0.58349454780E+02  0.00000000000E+00 0.  1.
</event>
<event>
 7    1  0.2648915E-009  0.1317916E+03  0.7561462E-02  0.1224821E+00
          1   -1    0    0  501    0  0.00000000000E+00  0.00000000000E+00  0.66869474590E+03  0.66869474590E+03  0.00000000000E+00 0. -1.
         -1   -1    0    0    0  501 -0.00000000000E+00 -0.00000000000E+00 -0.26233078794E+02  0.26233078794E+02  0.00000000000E+00 0.  1.
         25    2    1    2    0    0  0.42014896489E+02 -0.59940574313E+02  0.34778918497E+03  0.37678006844E+03  0.12509108208E+03 0.  0.
          5    1    3    3  502    0  0.31432423981E+02 -0.98570972341E+02  0.27023163213E+03  0.28939046507E+03  0.41800000000E+01 0.  1.
         -5    1    3    3    0  502  0.10582472508E+02  0.38630398028E+02  0.77557552830E+02  0.87389603370E+02  0.41800000000E+01 0.  1.
        -11    1    1    2    0    0  0.22867423845E+02 -0.94720063488E+01  0.68129053864E+02  0.72485901788E+02  0.00000000000E+00 0.  1.
         11    1    1    2    0    0 -0.64882320334E+02  0.69412580662E+02  0.22654342828E+03  0.24566185447E+03  0.00000000000E+00 0. -1.
</event>
<event>
 7    1  0.2648915E-009  0.8646655E+02  0.7561462E-02  0.1311641E+00
         -2   -1    0    0    0  501 -0.00000000000E+00  0.00000000000E+00  0.55687611913E+02  0.55687611913E+02  0.00000000000E+00 0.  1.
          2   -1    0    0  501    0  0.00000000000E+00 -0.00000000000E+00 -0.21995486822E+03  0.21995486822E+03  0.00000000000E+00 0. -1.
         25    2    1    2    0    0  0.19941170634E+02  0.91344740988E+01 -0.80983038047E+02  0.15062288060E+03  0.12509160966E+03 0.  0.
          5    1    3    3  502    0  0.34757275665E+02  0.53121727178E+02 -0.82273320233E+02  0.10400171985E+03  0.41800000000E+01 0.  1.
         -5    1    3    3    0  502 -0.14816105032E+02 -0.43987253079E+02  0.12902821857E+01  0.46621160752E+02  0.41800000000E+01 0.  1.
        -11    1    1    2    0    0  0.18170820286E+02 -0.15727736390E+02  0.84423575601E+01  0.25471823708E+02  0.00000000000E+00 0.  1.
         11    1    1    2    0    0 -0.38111990920E+02  0.65932622909E+01 -0.91726575819E+02  0.99547775821E+02  0.00000000000E+00 0. -1.
</event>
<event>
 7    1  0.2648915E-009  0.1226733E+03  0.7561462E-02  0.1238751E+00
          1   -1    0    0  501    0  0.00000000000E+00  0.00000000000E+00  0.65672087816E+03  0.65672087816E+03  0.00000000000E+00 0. -1.
         -1   -1    0    0    0  501 -0.00000000000E+00 -0.00000000000E+00 -0.27823745403E+02  0.27823745403E+02  0.00000000000E+00 0.  1.
         25    2    1    2    0    0 -0.70478666480E+02  0.33903983650E+02  0.31367740183E+03  0.34663742069E+03  0.12508903415E+03 0.  0.
          5    1    3    3  502    0 -0.90514838565E+02 -0.17183334858E+02  0.18625523434E+03  0.20783812864E+03  0.41800000000E+01 0. -1.
         -5    1    3    3    0  502  0.20036172085E+02  0.51087318508E+02  0.12742216750E+03  0.13879929205E+03  0.41800000000E+01 0. -1.
        -11    1    1    2    0    0  0.11433832494E+02 -0.37230851681E+02  0.37872036940E+02  0.54324580297E+02  0.00000000000E+00 0.  1.
         11    1    1    2    0    0  0.59044833986E+02  0.33268680315E+01  0.27734769399E+03  0.28358262258E+03  0.00000000000E+00 0. -1.
</event>
<event>
 7    1  0.2648915E-009  0.1518693E+03  0.7561462E-02  0.1198195E+00
         -1   -1    0    0    0  501 -0.00000000000E+00  0.00000000000E+00  0.50257626867E+02  0.50257626867E+02  0.00000000000E+00 0.  1.
          1   -1    0    0  501    0  0.00000000000E+00 -0.00000000000E+00 -0.60684668440E+03  0.60684668440E+03  0.00000000000E+00 0. -1.
         25    2    1    2    0    0  0.12469541006E+03 -0.37600886912E+02 -0.29865241980E+03  0.34900359391E+03  0.12508984263E+03 0.  0.
          5    1    3    3  502    0  0.44143496599E+01  0.30411862721E+02 -0.17273561673E+02  0.35499524081E+02  0.41800000000E+01 0. -1.
         -5    1    3    3    0  502  0.12028106040E+03 -0.68012749634E+02 -0.28137885812E+03  0.31350406983E+03  0.41800000000E+01 0. -1.
        -11    1    1    2    0    0 -0.10664154987E+03  0.18560786581E+02 -0.26014779762E+03  0.28176905359E+03  0.00000000000E+00 0. -1.
         11    1    1    2    0    0 -0.18053860191E+02  0.19040100332E+02  0.22111598789E+01  0.26331663761E+02  0.00000000000E+00 0.  1.
</event>
<event>
 7    1  0.2648915E-009  0.1983029E+03  0.7561462E-02  0.1151179E+00
          2   -1    0    0  501    0  0.00000000000E+00  0.00000000000E+00  0.37867318538E+03  0.37867318538E+03  0.00000000000E+00 0. -1.
         -2   -1    0    0    0  501 -0.00000000000E+00 -0.00000000000E+00 -0.12051352167E+03  0.12051352167E+03  0.00000000000E+00 0.  1.
         25    2    1    2    0    0 -0.17671581054E+03  0.34553488839E+02  0.93392226702E+02  0.23831374258E+03  0.12509560587E+03 0.  0.
          5    1    3    3  502    0 -0.28996302357E+02  0.42664891187E+02 -0.16113980630E+02  0.54205269690E+02  0.41800000000E+01 0.  1.
         -5    1    3    3    0  502 -0.14771950819E+03 -0.81114023489E+01  0.10950620733E+03  0.18410847289E+03  0.41800000000E+01 0. -1.
        -11    1    1    2    0    0  0.15582563717E+03  0.75170533873E+00  0.15255379267E+03  0.21807075438E+03  0.00000000000E+00 0.  1.
         11    1    1    2    0    0  0.20890173376E+02 -0.35305194177E+02  0.12213644338E+02  0.42802210078E+02  0.00000000000E+00 0. -1.
</event>
<event>
 7    1  0.2648915E-009  0.2098151E+03  0.7561462E-02  0.1141712E+00
          2   -1    0    0  501    0  0.00000000000E+00  0.00000000000E+00  0.13761090371E+04  0.13761090371E+04  0.00000000000E+00 0.  1.
         -2   -1    0    0    0  501 -0.00000000000E+00 -0.00000000000E+00 -0.36871443955E+02  0.36871443955E+02  0.00000000000E+00 0. -1.
         25    2    1    2    0    0  0.65422258006E+02  0.18183747876E+03  0.74419133746E+03  0.77898213790E+03  0.12508990323E+03 0.  0.
          5    1    3    3  502    0  0.77396351075E+02  0.18102101228E+03  0.54670793195E+03  0.58109021443E+03  0.41800000000E+01 0. -1.
         -5    1    3    3    0  502 -0.11974093069E+02  0.81646647376E+00  0.19748340551E+03  0.19789192347E+03  0.41800000000E+01 0. -1.
        -11    1    1    2    0    0 -0.74204320432E+02 -0.85262171474E+02  0.22973858094E+03  0.25603854129E+03  0.00000000000E+00 0.  1.
         11    1    1    2    0    0  0.87820624263E+01 -0.96575307284E+02  0.36530767473E+03  0.37795980185E+03  0.00000000000E+00 0. -1.
</event>
<event>
 7    1  0.2648915E-009  0.1442473E+03  0.7561462E-02  0.1207725E+00
         -1   -1    0    0    0  501 -0.00000000000E+00  0.00000000000E+00  0.14382797353E+02  0.14382797353E+02  0.00000000000E+00 0.  1.
          1   -1    0    0  501    0  0.00000000000E+00 -0.00000000000E+00 -0.21129706194E+04  0.21129706194E+04  0.00000000000E+00 0. -1.
         25    2    1    2    0    0 -0.95279664722E+02  0.86174239954E+02 -0.14114694128E+04  0.14228132540E+04  0.12508972098E+03 0.  0.
          5    1    3    3  502    0 -0.97635672483E+02  0.89777574727E+02 -0.77247615016E+03  0.78379181702E+03  0.41800000000E+01 0.  1.
         -5    1    3    3    0  502  0.23560077606E+01 -0.36033347738E+01 -0.63899326263E+03  0.63902143695E+03  0.41800000000E+01 0.  1.
        -11    1    1    2    0    0  0.89270000377E+02 -0.31315048301E+02 -0.52028387043E+03  0.52881477953E+03  0.00000000000E+00 0.  1.
         11    1    1    2    0    0  0.60096643449E+01 -0.54859191653E+02 -0.16683453885E+03  0.17572538328E+03  0.00000000000E+00 0. -1.
</event>
<event>
 7    1  0.2648915E-009  0.1395230E+03  0.7561462E-02  0.1213972E+00
          2   -1    0    0  501    0  0.00000000000E+00  0.00000000000E+00  0.31459519119E+03  0.31459519119E+03  0.00000000000E+00 0. -1.
         -2   -1    0    0    0  501 -0.00000000000E+00 -0.00000000000E+00 -0.11310841076E+03  0.11310841076E+03  0.00000000000E+00 0.  1.
         25    2    1    2    0    0 -0.12257652045E+03 -0.17996453003E+02  0.28756456669E+01  0.17608004262E+03  0.12508811449E+03 0.  0.
          5    1    3    3  502    0 -0.10081348727E+03 -0.50791442147E+02 -0.37998599491E+02  0.11918261524E+03  0.41800000000E+01 0.  1.
         -5    1    3    3    0  502 -0.21763033179E+02  0.32794989143E+02  0.40874245158E+02  0.56897427388E+02  0.41800000000E+01 0.  1.
        -11    1    1    2    0    0  0.35221335511E+02  0.17076619143E+02  0.14254110899E+03  0.14781786479E+03  0.00000000000E+00 0. -1.
         11    1    1    2    0    0  0.87355184940E+02  0.91983386030E+00  0.56070025771E+02  0.10380569455E+03  0.00000000000E+00 0.  1.
</event>
<event>
 7    1  0.2648915E-009  0.1944069E+03  0.7561462E-02  0.1154546E+00
          2   -1    0    0  501    0  0.00000000000E+00  0.00000000000E+00  0.33286552765E+03  0.33286552765E+03  0.00000000000E+00 0. -1.
         -2   -1    0    0    0  501 -0.00000000000E+00 -0.00000000000E+00 -0.16917657633E+03  0.16917657633E+03  0.00000000000E+00 0.  1.
         25    2    1    2    0    0 -0.17411275900E+03  0.57930085415E+01  0.21129569766E+03  0.30106940888E+03  0.12509238714E+03 0.  0.
          5    1    3    3  502    0 -0.10642541337E+03 -0.38495086179E+02  0.18312247775E+03  0.21531269012E+03  0.41800000000E+01 0.  1.
         -5    1    3    3    0  502 -0.67687345628E+02  0.44288094721E+02  0.28173219911E+02  0.85756718758E+02  0.41800000000E+01 0.  1.
        -11    1    1    2    0    0  0.66016593045E+02  0.39979288721E+02 -0.27156504151E+02  0.81816928576E+02  0.00000000000E+00 0.  1.
         11    1    1    2    0    0  0.10809616595E+03 -0.45772297262E+02 -0.20450242187E+02  0.11915576652E+03  0.00000000000E+00 0. -1.
</event>
<event>
 7    1  0.2648915E-009  0.1791532E+03  0.7561462E-02  0.1168625E+00
          2   -1    0    0  501    0  0.00000000000E+00  0.00000000000E+00  0.22858283934E+04  0.22858283934E+04  0.00000000000E+00 0. -1.
         -2   -1    0    0    0  501 -0.00000000000E+00 -0.00000000000E+00 -0.24636236592E+02  0.24636236592E+02  0.00000000000E+00 0.  1.
         25    2    1    2    0    0 -0.15493193666E+03  0.62185702280E+01  0.18580333151E+04  0.18686834793E+04  0.12509024795E+03 0.  0.
          5    1    3    3  502    0 -0.77923215659E+02 -0.58059810107E+02  0.79776057818E+03  0.80366807924E+03  0.41800000000E+01 0. -1.
         -5    1    3    3    0  502 -0.77008721001E+02  0.64278380335E+02  0.10602727369E+04  0.10650154000E+04  0.41800000000E+01 0. -1.
        -11    1    1    2    0    0  0.91066501181E+02 -0.24330643046E+02  0.32906233795E+03  0.34229681577E+03  0.00000000000E+00 0.  1.
         11    1    1    2    0    0  0.63865435478E+02  0.18112072818E+02  0.74096503807E+02  0.99484334983E+02  0.00000000000E+00 0. -1.
</event>
<event>
 7    1  0.2648915E-009  0.8388321E+02  0.7561462E-02  0.1318379E+00
         -1   -1    0    0    0  501 -0.00000000000E+00  0.00000000000E+00  0.15014238456E+03  0.15014238456E+03  0.00000000000E+00 0.  1.
          1   -1    0    0  501    0  0.00000000000E+00 -0.00000000000E+00 -0.15944736648E+03  0.15944736648E+03  0.00000000000E+00 0. -1.
         25    2    1    2    0    0 -0.75961600844E+01 -0.17540270149E+01  0.11021881476E+03  0.16690181820E+03  0.12508897447E+03 0.  0.
          5    1    3    3  502    0  0.15809211659E+02 -0.44514561796E+02  0.10796830768E+03  0.11792415040E+03  0.41800000000E+01 0. -1.
         -5    1    3    3    0  502 -0.23405371744E+02  0.42760534781E+02  0.22505070795E+01  0.48977667802E+02  0.41800000000E+01 0. -1.
        -11    1    1    2    0    0 -0.23173179460E+02  0.24066534768E+02 -0.28018792557E+02  0.43603292059E+02  0.00000000000E+00 0.  1.
         11    1    1    2    0    0  0.30769339545E+02 -0.22312507753E+02 -0.91505004126E+02  0.99084640779E+02  0.00000000000E+00 0. -1.
</event>
<event>
 7    1  0.2648915E-009  0.1325264E+03  0.7561462E-02  0.1223755E+00
          2   -1    0    0  501    0  0.00000000000E+00  0.00000000000E+00  0.85267107663E+02  0.85267107663E+02  0.00000000000E+00 0. -1.
         -2   -1    0    0    0  501 -0.00000000000E+00 -0.00000000000E+00 -0.29647181105E+03  0.29647181105E+03  0.00000000000E+00 0.  1.
         25    2    1    2    0    0 -0.20220715203E+01  0.10176355564E+03 -0.46813598900E+02  0.16792433133E+03  0.12508860053E+03 0.  0.
          5    1    3    3  502    0  0.43834330846E+02 -0.48369148060E+01 -0.53350206044E+01  0.44618148218E+02  0.41800000000E+01 0.  1.
         -5    1    3    3    0  502 -0.45856402366E+02  0.10660047044E+03 -0.41478578295E+02  0.12330618311E+03  0.41800000000E+01 0.  1.
        -11    1    1    2    0    0 -0.83982761229E+01 -0.80682820443E+02 -0.46294051947E+02  0.93399078166E+02  0.00000000000E+00 0. -1.
         11    1    1    2    0    0  0.10420347643E+02 -0.21080735192E+02 -0.11809705254E+03  0.12041550922E+03  0.00000000000E+00 0.  1.
</event>
<event>
 7    1  0.2648915E-009  0.2776751E+03  0.7561462E-02  0.1096966E+00
         -2   -1    0    0    0  501 -0.00000000000E+00  0.00000000000E+00  0.11938262100E+03  0.11938262100E+03  0.00000000000E+00 0.  1.
          2   -1    0    0  501    0  0.00000000000E+00 -0.00000000000E+00 -0.11313923167E+04  0.11313923167E+04  0.00000000000E+00 0. -1.
         25    2    1    2    0    0  0.25858671316E+03  0.83301709474E+01 -0.91652588932E+03  0.96052246500E+03  0.12508884849E+03 0.  0.
          5    1    3    3  502    0  0.26982367760E+03  0.12323045648E+02 -0.82431958649E+03  0.86745427978E+03  0.41800000000E+01 0.  1.
         -5    1    3    3    0  502 -0.11236964445E+02 -0.39928747002E+01 -0.92206302829E+02  0.93068185218E+02  0.41800000000E+01 0.  1.
        -11    1    1    2    0    0 -0.20806578344E+02 -0.26974038254E+02 -0.21600512005E+01  0.34134707605E+02  0.00000000000E+00 0.  1.
         11    1    1    2    0    0 -0.23778013481E+03  0.18643867307E+02 -0.93323755149E+02  0.25611776505E+03  0.00000000000E+00 0. -1.
</event>
<event>
 7    1  0.2648915E-009  0.1383636E+03  0.7561462E-02  0.1215548E+00
         -2   -1    0    0    0  501 -0.00000000000E+00  0.00000000000E+00  0.29079274013E+02  0.29079274013E+02  0.00000000000E+00 0.  1.
          2   -1    0    0  501    0  0.00000000000E+00 -0.00000000000E+00 -0.89523876831E+03  0.89523876831E+03  0.00000000000E+00 0. -1.
         25    2    1    2    0    0 -0.48778281117E+02 -0.71982719252E+02 -0.23129248654E+03  0.27695627287E+03  0.12509088765E+03 0.  0.
          5    1    3    3  502    0 -0.78437626640E+02 -0.73186728337E+01 -0.97983513716E+02  0.12579453726E+03  0.41800000000E+01 0. -1.
         -5    1    3    3    0  502  0.29659345524E+02 -0.64664046418E+02 -0.13330897283E+03  0.15116173561E+03  0.41800000000E+01 0. -1.
        -11    1    1    2    0    0 -0.27530289332E+02  0.23225488894E+02 -0.17967211124E+03  0.18324684914E+03  0.00000000000E+00 0. -1.
         11    1    1    2    0    0  0.76308570449E+02  0.48757230358E+02 -0.45519489652E+03  0.46411492031E+03  0.00000000000E+00 0.  1.
</event>
<event>
 7    1  0.2648915E-009  0.3621142E+03  0.7561462E-02  0.1057750E+00
         -2   -1    0    0    0  501 -0.00000000000E+00  0.00000000000E+00  0.25016083113E+03  0.25016083113E+03  0.00000000000E+00 0.  1.
          2   -1    0    0  501    0  0.00000000000E+00 -0.00000000000E+00 -0.61956443197E+03  0.61956443197E+03  0.00000000000E+00 0. -1.
         25    2    1    2    0    0  0.11926922287E+03 -0.34100185932E+03 -0.30699852853E+03  0.49030933071E+03  0.12509087769E+03 0.  0.
          5    1    3    3  502    0  0.11783037390E+03 -0.31287431976E+03 -0.22371636519E+03  0.40229444618E+03  0.41800000000E+01 0.  1.
         -5    1    3    3    0  502  0.14388489688E+01 -0.28127539564E+02 -0.83282163341E+02  0.88014884531E+02  0.41800000000E+01 0.  1.
        -11    1    1    2    0    0 -0.81002161840E+02  0.24556127248E+03 -0.88549308581E+02  0.27331788967E+03  0.00000000000E+00 0.  1.
         11    1    1    2    0    0 -0.38267061028E+02  0.95440586842E+02  0.26144236276E+02  0.10609804271E+03  0.00000000000E+00 0. -1.
</event>
<event>
 7    1  0.2648915E-009  0.1297755E+03  0.7561462E-02  0.1227789E+00
          1   -1    0    0  501    0  0.00000000000E+00  0.00000000000E+00  0.46039683150E+02  0.46039683150E+02  0.00000000000E+00 0. -1.
         -1   -1    0    0    0  501 -0.00000000000E+00 -0.00000000000E+00 -0.60717849484E+03  0.60717849484E+03  0.00000000000E+00 0.  1.
         25    2    1    2    0    0  0.71330068411E+02  0.38389539660E+02 -0.49817980031E+03  0.51999337344E+03  0.12509300368E+03 0.  0.
          5    1    3    3  502    0  0.92077941177E+02 -0.66658694897E+01 -0.39167744968E+03  0.40243195456E+03  0.41800000000E+01 0. -1.
         -5    1    3    3    0  502 -0.20747872767E+02  0.45055409150E+02 -0.10650235063E+03  0.11756141887E+03  0.41800000000E+01 0. -1.
        -11    1    1    2    0    0 -0.30981078249E+02  0.26619163547E+02 -0.20052597022E+02  0.45502897982E+02  0.00000000000E+00 0. -1.
         11    1    1    2    0    0 -0.40348990162E+02 -0.65008703207E+02 -0.42906414366E+02  0.87721906577E+02  0.00000000000E+00 0.  1.
</event>
<event>
 7    1  0.2648915E-009  0.8628748E+02  0.7561462E-02  0.1312100E+00
          2   -1    0    0  501    0  0.00000000000E+00  0.00000000000E+00  0.23474332745E+03  0.23474332745E+03  0.00000000000E+00 0. -1.
         -2   -1    0    0    0  501 -0.00000000000E+00 -0.00000000000E+00 -0.76048268453E+02  0.76048268453E+02  0.00000000000E+00 0.  1.
         25    2    1    2    0    0 -0.35716043898E+02  0.76011676835E+01  0.16851838813E+03  0.21302376442E+03  0.12508902242E+03 0.  0.
          5    1    3    3  502    0 -0.52910259403E+02  0.41272776028E+02  0.16068985228E+03  0.17418851460E+03  0.41800000000E+01 0.  1.
         -5    1    3    3    0  502  0.17194215506E+02 -0.33671608344E+02  0.78285358428E+01  0.38835249822E+02  0.41800000000E+01 0.  1.
        -11    1    1    2    0    0  0.48445951456E+02  0.58325304432E+01 -0.39509251429E+02  0.62785424840E+02  0.00000000000E+00 0.  1.
         11    1    1    2    0    0 -0.12729907558E+02 -0.13433698127E+02  0.29685922300E+02  0.34982406644E+02  0.00000000000E+00 0. -1.
</event>
<event>
 7    1  0.2648915E-009  0.8319265E+02  0.7561462E-02  0.1320228E+00
         -3   -1    0    0    0  501 -0.00000000000E+00  0.00000000000E+00  0.98596384716E+03  0.98596384716E+03  0.00000000000E+00 0.  1.
          3   -1    0    0  501    0  0.00000000000E+00 -0.00000000000E+00 -0.15499624817E+02  0.15499624817E+02  0.00000000000E+00 0. -1.
         25    2    1    2    0    0  0.26928159793E+02  0.53139634247E+02  0.55001292350E+03  0.56719551385E+03  0.12509032096E+03 0.  0.
          5    1    3    3  502    0  0.85279877668E+01  0.41363954539E+02  0.54183989130E+03  0.54349944206E+03  0.41800000000E+01 0. -1.
         -5    1    3    3    0  502  0.18400172026E+02  0.11775679709E+02  0.81730322000E+01  0.23696071795E+02  0.41800000000E+01 0. -1.
        -11    1    1    2    0    0 -0.54468497039E+02 -0.18663242458E+02  0.31049035841E+03  0.31578378118E+03  0.00000000000E+00 0.  1.
         11    1    1    2    0    0  0.27540337246E+02 -0.34476391790E+02  0.10996094043E+03  0.11848417694E+03  0.00000000000E+00 0. -1.
</event>
<event>
 7    1  0.2648915E-009  0.1400749E+03  0.7561462E-02  0.1213228E+00
          2   -1    0    0  501    0  0.00000000000E+00  0.00000000000E+00  0.73240796994E+03  0.73240796994E+03  0.00000000000E+00 0. -1.
         -2   -1    0    0    0  501 -0.00000000000E+00 -0.00000000000E+00 -0.51029227278E+02  0.51029227278E+02  0.00000000000E+00 0.  1.
         25    2    1    2    0    0  0.65274012203E+02 -0.12282154181E+03  0.20004304917E+03  0.27388044481E+03  0.12508976268E+03 0.  0.
          5    1    3    3  502    0  0.58069756863E+02 -0.11403053610E+03  0.75267192895E+02  0.14851829029E+03  0.41800000000E+01 0.  1.
         -5    1    3    3    0  502  0.72042553401E+01 -0.87910057139E+01  0.12477585628E+03  0.12536215452E+03  0.41800000000E+01 0.  1.
        -11    1    1    2    0    0 -0.30105326988E+02  0.73534459879E+02  0.12502426296E+03  0.14813748287E+03  0.00000000000E+00 0.  1.
         11    1    1    2    0    0 -0.35168685215E+02  0.49287081932E+02  0.35631143052E+03  0.36141926953E+03  0.00000000000E+00 0. -1.
</event>
<event>
 7    1  0.2648915E-009  0.1395197E+03  0.7561462E-02  0.1213977E+00
          2   -1    0    0  501    0  0.00000000000E+00  0.00000000000E+00  0.66946220535E+03  0.66946220535E+03  0.00000000000E+00 0. -1.
         -2   -1    0    0    0  501 -0.00000000000E+00 -0.00000000000E+00 -0.35928018748E+02  0.35928018748E+02  0.00000000000E+00 0.  1.
         25    2    1    2    0    0  0.80303981467E+01  0.10810874866E+03  0.28289616243E+03  0.32776515431E+03  0.12509104217E+03 0.  0.
          5    1    3    3  502    0  0.23436318598E+02  0.12643395683E+03  0.17522094080E+03  0.21738136297E+03  0.41800000000E+01 0. -1.
         -5    1    3    3    0  502 -0.15405920451E+02 -0.18325208166E+02  0.10767522163E+03  0.11038379135E+03  0.41800000000E+01 0. -1.
        -11    1    1    2    0    0  0.18571168300E+02 -0.94295201559E+02  0.17690476637E+03  0.20132503494E+03  0.00000000000E+00 0. -1.
         11    1    1    2    0    0 -0.26601566447E+02 -0.13813547104E+02  0.17373325780E+03  0.17630003484E+03  0.00000000000E+00 0.  1.
</event>
<event>
 7    1  0.2648915E-009  0.9032518E+02  0.7561462E-02  0.1302066E+00
         -1   -1    0    0    0  501 -0.00000000000E+00  0.00000000000E+00  0.20380302116E+03  0.20380302116E+03  0.00000000000E+00 0.  1.
          1   -1    0    0  501    0  0.00000000000E+00 -0.00000000000E+00 -0.95435776835E+02  0.95435776835E+02  0.00000000000E+00 0. -1.
         25    2    1    2    0    0 -0.35619560781E+02 -0.36506657049E+02 -0.17042258977E+02  0.13616090498E+03  0.12509142390E+03 0.  0.
          5    1    3    3  502    0 -0.51796182127E+02  0.49937970042E+01  0.38483035151E+02  0.64855214793E+02  0.41800000000E+01 0. -1.
         -5    1    3    3    0  502  0.16176621346E+02 -0.41500454053E+02 -0.55525294128E+02  0.71305690185E+02  0.41800000000E+01 0. -1.
        -11    1    1    2    0    0  0.32174389478E+02  0.55637288168E+02  0.40488631299E+02  0.75960703245E+02  0.00000000000E+00 0. -1.
         11    1    1    2    0    0  0.34451713037E+01 -0.19130631119E+02  0.84920872002E+02  0.87117189773E+02  0.00000000000E+00 0.  1.
</event>
