<event>
 7    1  0.2820496E-009  0.8602417E+02  0.7561462E-02  0.1312776E+00
          2   -1    0    0  501    0  0.00000000000E+00  0.00000000000E+00  0.71577164439E+03  0.71577164439E+03  0.00000000000E+00 0.  1.
         -2   -1    0    0    0  501 -0.00000000000E+00 -0.00000000000E+00 -0.22749961812E+02  0.22749961812E+02  0.00000000000E+00 0. -1.
         25    2    1    2    0    0  0.43624941634E+02 -0.29127257106E+02  0.52358180855E+03  0.54086804094E+03  0.12509514312E+03 0.  0.
          5    1    3    3  502    0  0.47703341548E+02  0.21888551243E+02  0.90104770740E+02  0.10436023946E+03  0.41800000000E+01 0. -1.
         -5    1    3    3    0  502 -0.40783999137E+01 -0.51015808349E+02  0.43347703781E+03  0.43650780148E+03  0.41800000000E+01 0. -1.
        -11    1    1    2    0    0 -0.31299603203E+02 -0.50605401089E+01  0.15554914142E+03  0.15874762872E+03  0.00000000000E+00 0.  1.
         11    1    1    2    0    0 -0.12325338431E+02  0.34187797215E+02  0.13890732613E+02  0.38905936544E+02  0.00000000000E+00 0. -1.
</event>
<event>
 7    1  0.2820496E-009  0.1304143E+03  0.7561462E-02  0.1226842E+00
          1   -1    0    0  501    0  0.00000000000E+00  0.00000000000E+00  0.79059222223E+02  0.79059222223E+02  0.00000000000E+00 0. -1.
         -1   -1    0    0    0  501 -0.00000000000E+00 -0.00000000000E+00 -0.25664188362E+03  0.25664188362E+03  0.00000000000E+00 0.  1.
         25    2    1    2    0    0 -0.61328474242E+02 -0.62724426429E+02 -0.12681316948E+03  0.19854684228E+03  0.12507491037E+03 0.  0.
          5    1    3    3  502    0  0.22235937017E+02 -0.52548444520E+02 -0.16163021090E+02  0.59451590115E+02  0.41800000000E+01 0. -1.
         -5    1    3    3    0  502 -0.83564411260E+02 -0.10175981909E+02 -0.11065014839E+03  0.13909525216E+03  0.41800000000E+01 0. -1.
        -11    1    1    2    0    0  0.16450630845E+02  0.71701026312E+02 -0.71167552590E+01  0.73907432880E+02  0.00000000000E+00 0. -1.
         11    1    1    2    0    0  0.44877843397E+02 -0.89765998830E+01 -0.43652736664E+02  0.63246830685E+02  0.00000000000E+00 0.  1.
</event>
<event>
 7    1  0.2820496E-009  0.1730555E+03  0.7561462E-02  0.1174698E+00
         -1   -1    0    0    0  501 -0.00000000000E+00  0.00000000000E+00  0.51260558090E+02  0.51260558090E+02  0.00000000000E+00 0.  1.
          1   -1    0    0  501    0  0.00000000000E+00 -0.00000000000E+00 -0.62644902779E+03  0.62644902779E+03  0.00000000000E+00 0. -1.
         25    2    1    2    0    0  0.13991648516E+03 -0.18584362832E+02 -0.33932194691E+03  0.38821426585E+03  0.12509568813E+03 0.  0.
          5    1    3    3  502    0 -0.21214335717E+02  0.11636874124E+02 -0.41132108573E+02  0.47903941748E+02  0.41800000000E+01 0. -1.
         -5    1    3    3    0  502  0.16113082088E+03 -0.30221236956E+02 -0.29818983834E+03  0.34031032410E+03  0.41800000000E+01 0. -1.
        -11    1    1    2    0    0 -0.89930043286E+02  0.45505339662E+02 -0.98805367399E+02  0.14114053015E+03  0.00000000000E+00 0.  1.
         11    1    1    2    0    0 -0.49986441879E+02 -0.26920976830E+02 -0.13706115539E+03  0.14835478988E+03  0.00000000000E+00 0. -1.
</event>
<event>
 7    1  0.2820496E-009  0.7410940E+02  0.7561462E-02  0.1346651E+00
         -4   -1    0    0    0  501 -0.00000000000E+00  0.00000000000E+00  0.47514316904E+02  0.47514316904E+02  0.00000000000E+00 0.  1.
          4   -1    0    0  501    0  0.00000000000E+00 -0.00000000000E+00 -0.27690835239E+03  0.27690835239E+03  0.00000000000E+00 0. -1.
         25    2    1    2    0    0  0.68530028013E+01  0.33716699819E+02 -0.10993210693E+03  0.17004826397E+03  0.12509022524E+03 0.  0.
          5    1    3    3  502    0 -0.17871445222E+02  0.10738140502E+02 -0.12921349451E+03  0.13095150163E+03  0.41800000000E+01 0. -1.
         -5    1    3    3    0  502  0.24724448024E+02  0.22978559316E+02  0.19281387578E+02  0.39096762337E+02  0.41800000000E+01 0. -1.
        -11    1    1    2    0    0 -0.20514605014E+02  0.25182096036E+02 -0.66448760035E+02  0.73962319392E+02  0.00000000000E+00 0. -1.
         11    1    1    2    0    0  0.13661602213E+02 -0.58898795854E+02 -0.53013168519E+02  0.80412085936E+02  0.00000000000E+00 0.  1.
</event>
<event>
 7    1  0.2820496E-009  0.1132935E+03  0.7561462E-02  0.1254590E+00
         -1   -1    0    0    0  501 -0.00000000000E+00  0.00000000000E+00  0.34476701725E+02  0.34476701725E+02  0.00000000000E+00 0.  1.
          1   -1    0    0  501    0  0.00000000000E+00 -0.00000000000E+00 -0.43348894918E+03  0.43348894918E+03  0.00000000000E+00 0. -1.
         25    2    1    2    0    0 -0.33982317977E+02  0.39004942296E+02 -0.18364579961E+03  0.22816842197E+03  0.12513538913E+03 0.  0.
          5    1    3    3  502    0 -0.75357981133E+02  0.33027510024E+02 -0.73962609609E+02  0.11071396370E+03  0.41800000000E+01 0.  1.
         -5    1    3    3    0  502  0.41375663156E+02  0.59774322721E+01 -0.10968319000E+03  0.11745445826E+03  0.41800000000E+01 0.  1.
        -11    1    1    2    0    0  0.63876352229E+02 -0.32188075699E+02 -0.17540228962E+03  0.18942603780E+03  0.00000000000E+00 0.  1.
         11    1    1    2    0    0 -0.29894034252E+02 -0.68168665978E+01 -0.39964158232E+02  0.50371191144E+02  0.00000000000E+00 0. -1.
</event>
<event>
 7    1  0.2820496E-009  0.8793705E+02  0.7561462E-02  0.1307926E+00
          1   -1    0    0  501    0  0.00000000000E+00  0.00000000000E+00  0.98656351636E+02  0.98656351636E+02  0.00000000000E+00 0. -1.
         -1   -1    0    0    0  501 -0.00000000000E+00 -0.00000000000E+00 -0.13149655246E+03  0.13149655246E+03  0.00000000000E+00 0.  1.
         25    2    1    2    0    0  0.32947777119E+01 -0.29071610799E+02  0.15061809874E+01  0.12848064059E+03  0.12509593243E+03 0.  0.
          5    1    3    3  502    0 -0.81055518416E+00  0.37342216925E+02  0.37178165015E+02  0.52865740499E+02  0.41800000000E+01 0.  1.
         -5    1    3    3    0  502  0.41053328961E+01 -0.66413827724E+02 -0.35671984028E+02  0.75614900090E+02  0.41800000000E+01 0.  1.
        -11    1    1    2    0    0  0.50130907682E+01 -0.20628285983E+02  0.18856707882E+02  0.28394236982E+02  0.00000000000E+00 0. -1.
         11    1    1    2    0    0 -0.83078684801E+01  0.49699896782E+02 -0.53203089697E+02  0.73278026530E+02  0.00000000000E+00 0.  1.
</event>
<event>
 7    1  0.2820496E-009  0.1380628E+03  0.7561462E-02  0.1215960E+00
          2   -1    0    0  501    0  0.00000000000E+00  0.00000000000E+00  0.14021796073E+04  0.14021796073E+04  0.00000000000E+00 0. -1.
         -2   -1    0    0    0  501 -0.00000000000E+00 -0.00000000000E+00 -0.21419724433E+02  0.21419724433E+02  0.00000000000E+00 0.  1.
         25    2    1    2    0    0 -0.10784763608E+03 -0.35066136691E+01  0.10518064922E+04  0.10647047552E+04  0.12512357778E+03 0.  0.
          5    1    3    3  502    0 -0.13097304164E+03  0.15415804955E+02  0.76275196992E+03  0.77407985679E+03  0.41800000000E+01 0.  1.
         -5    1    3    3    0  502  0.23125405563E+02 -0.18922418624E+02  0.28905452232E+03  0.29062489842E+03  0.41800000000E+01 0.  1.
        -11    1    1    2    0    0  0.52093457322E+02  0.20104789946E+02  0.53381843849E+02  0.77249932862E+02  0.00000000000E+00 0.  1.
         11    1    1    2    0    0  0.55754178760E+02 -0.16598176277E+02  0.27557154673E+03  0.28164464361E+03  0.00000000000E+00 0. -1.
</event>
<event>
 7    1  0.2820496E-009  0.8620560E+02  0.7561462E-02  0.1312310E+00
          2   -1    0    0  501    0  0.00000000000E+00  0.00000000000E+00  0.86510851005E+02  0.86510851005E+02  0.00000000000E+00 0.  1.
         -2   -1    0    0    0  501 -0.00000000000E+00 -0.00000000000E+00 -0.18587673635E+03  0.18587673635E+03  0.00000000000E+00 0. -1.
         25    2    1    2    0    0 -0.59995625755E+02 -0.10433147113E+02 -0.80979219326E+02  0.16097771136E+03  0.12509142226E+03 0.  0.
          5    1    3    3  502    0 -0.68274233878E+02  0.98388464951E+01 -0.10658493790E+03  0.12702753756E+03  0.41800000000E+01 0.  1.
         -5    1    3    3    0  502  0.82786081229E+01 -0.20271993608E+02  0.25605718574E+02  0.33950173799E+02  0.41800000000E+01 0.  1.
        -11    1    1    2    0    0  0.26384689936E+02  0.31696009475E+02  0.28347032170E+02  0.50043412278E+02  0.00000000000E+00 0.  1.
         11    1    1    2    0    0  0.33610935819E+02 -0.21262862362E+02 -0.46733698190E+02  0.61366463715E+02  0.00000000000E+00 0. -1.
</event>
<event>
 7    1  0.2820496E-009  0.9367034E+02  0.7561462E-02  0.1294199E+00
          1   -1    0    0  501    0  0.00000000000E+00  0.00000000000E+00  0.68566559334E+02  0.68566559334E+02  0.00000000000E+00 0. -1.
         -1   -1    0    0    0  501 -0.00000000000E+00 -0.00000000000E+00 -0.18236779658E+03  0.18236779658E+03  0.00000000000E+00 0.  1.
         25    2    1    2    0    0  0.34367859880E+02  0.13801396867E+02 -0.80596347148E+02  0.15334460575E+03  0.12508864293E+03 0.  0.
          5    1    3    3  502    0  0.74241517683E+02 -0.20651229015E+02 -0.41737910233E+02  0.87737117336E+02  0.41800000000E+01 0.  1.
         -5    1    3    3    0  502 -0.39873657803E+02  0.34452625882E+02 -0.38858436915E+02  0.65607488416E+02  0.41800000000E+01 0.  1.
        -11    1    1    2    0    0 -0.37729905933E+02  0.51306729990E+01 -0.56030683230E+02  0.67744424644E+02  0.00000000000E+00 0.  1.
         11    1    1    2    0    0  0.33620460528E+01 -0.18932069866E+02  0.22825793133E+02  0.29845325517E+02  0.00000000000E+00 0. -1.
</event>
<event>
 7    1  0.2820496E-009  0.1141416E+03  0.7561462E-02  0.1253087E+00
         -1   -1    0    0    0  501 -0.00000000000E+00  0.00000000000E+00  0.11621036857E+03  0.11621036857E+03  0.00000000000E+00 0.  1.
          1   -1    0    0  501    0  0.00000000000E+00 -0.00000000000E+00 -0.13030828261E+03  0.13030828261E+03  0.00000000000E+00 0. -1.
         25    2    1    2    0    0 -0.28839673770E+02  0.50126784408E+02 -0.37677701217E+02  0.14287011959E+03  0.12509132905E+03 0.  0.
          5    1    3    3  502    0 -0.76517497381E+02  0.34733147210E+02 -0.38643021488E+02  0.92585497948E+02  0.41800000000E+01 0. -1.
         -5    1    3    3    0  502  0.47677823611E+02  0.15393637198E+02  0.96532027154E+00  0.50284621642E+02  0.41800000000E+01 0. -1.
        -11    1    1    2    0    0 -0.15719176485E+02  0.10299881673E+02 -0.10129476672E+02  0.21349153835E+02  0.00000000000E+00 0.  1.
         11    1    1    2    0    0  0.44558850255E+02 -0.60426666080E+02  0.33709263853E+02  0.82299377757E+02  0.00000000000E+00 0. -1.
</event>
<event>
 7    1  0.2820496E-009  0.1003247E+03  0.7561462E-02  0.1279615E+00
          2   -1    0    0  501    0  0.00000000000E+00  0.00000000000E+00  0.44089794285E+03  0.44089794285E+03  0.00000000000E+00 0. -1.
         -2   -1    0    0    0  501 -0.00000000000E+00 -0.00000000000E+00 -0.47384976675E+02  0.47384976675E+02  0.00000000000E+00 0.  1.
         25    2    1    2    0    0  0.68542722089E+02  0.37947178977E+02  0.11461314707E+03  0.18687288730E+03  0.12508880598E+03 0.  0.
          5    1    3    3  502    0  0.90398610295E+01  0.22789840842E+02  0.12234189623E+03  0.12484433470E+03  0.41800000000E+01 0.  1.
         -5    1    3    3    0  502  0.59502861060E+02  0.15157338135E+02 -0.77287491628E+01  0.62028552597E+02  0.41800000000E+01 0.  1.
        -11    1    1    2    0    0 -0.52173851746E+02  0.18580176224E+02  0.14009805197E+03  0.15064792704E+03  0.00000000000E+00 0.  1.
         11    1    1    2    0    0 -0.16368870343E+02 -0.56527355201E+02  0.13880176714E+03  0.15076210519E+03  0.00000000000E+00 0. -1.
</event>
<event>
 7    1  0.2820496E-009  0.1216943E+03  0.7561462E-02  0.1240328E+00
          2   -1    0    0  501    0  0.00000000000E+00  0.00000000000E+00  0.15972202512E+03  0.15972202512E+03  0.00000000000E+00 0. -1.
         -2   -1    0    0    0  501 -0.00000000000E+00 -0.00000000000E+00 -0.12479698579E+03  0.12479698579E+03  0.00000000000E+00 0.  1.
         25    2    1    2    0    0 -0.79425198346E+02  0.15812040427E+02  0.57940167326E+02  0.15992896435E+03  0.12514722487E+03 0.  0.
          5    1    3    3  502    0 -0.69873433385E+02  0.51861648602E+02  0.78388102532E+02  0.11719255227E+03  0.41800000000E+01 0. -1.
         -5    1    3    3    0  502 -0.95517649608E+01 -0.36049608174E+02 -0.20447935205E+02  0.42736412081E+02  0.41800000000E+01 0. -1.
        -11    1    1    2    0    0  0.49024252601E+02 -0.52010375049E+02  0.11878807517E+01  0.71483337335E+02  0.00000000000E+00 0.  1.
         11    1    1    2    0    0  0.30400945745E+02  0.36198334622E+02 -0.24203008752E+02  0.53106709221E+02  0.00000000000E+00 0. -1.
</event>
<event>
 7    1  0.2820496E-009  0.6798311E+02  0.7561462E-02  0.1367089E+00
         -4   -1    0    0    0  501 -0.00000000000E+00  0.00000000000E+00  0.18582567327E+03  0.18582567327E+03  0.00000000000E+00 0.  1.
          4   -1    0    0  501    0  0.00000000000E+00 -0.00000000000E+00 -0.67446286291E+02  0.67446286291E+02  0.00000000000E+00 0. -1.
         25    2    1    2    0    0 -0.22572267040E+01  0.59365354434E+01  0.10605185731E+03  0.16411758310E+03  0.12508895683E+03 0.  0.
          5    1    3    3  502    0 -0.13949683653E+02  0.46483102698E+02  0.11119999241E+03  0.12140091937E+03  0.41800000000E+01 0. -1.
         -5    1    3    3    0  502  0.11692456949E+02 -0.40546567255E+02 -0.51481351053E+01  0.42716663736E+02  0.41800000000E+01 0. -1.
        -11    1    1    2    0    0  0.16372258833E+02  0.13228172486E+02  0.44445919268E+02  0.49177994532E+02  0.00000000000E+00 0.  1.
         11    1    1    2    0    0 -0.14115032129E+02 -0.19164707929E+02 -0.32118389594E+02  0.39976381929E+02  0.00000000000E+00 0. -1.
</event>
<event>
 6    1  0.2820496E-009  0.3574733E+03  0.7561462E-02  0.1059589E+00
          2   -1    0    0  501    0  0.00000000000E+00  0.00000000000E+00  0.29330475039E+04  0.29330475039E+04  0.00000000000E+00 0. -1.
         -2   -1    0    0    0  501 -0.00000000000E+00 -0.00000000000E+00 -0.51013053597E+02  0.51013053597E+02  0.00000000000E+00 0.  1.
          5    1    1    2  502    0 -0.15950237912E+03 -0.74434294539E+02  0.12158276902E+04  0.12285096328E+04  0.41800000000E+01 0. -1.
         -5    1    1    2    0  502 -0.17966522478E+03 -0.33250943255E+02  0.63597075494E+03  0.66171103343E+03  0.41800000000E+01 0. -1.
        -11    1    1    2    0    0  0.12849272135E+03  0.47810797134E+02  0.53587806629E+03  0.55313791562E+03  0.00000000000E+00 0.  1.
         11    1    1    2    0    0  0.21067488255E+03  0.59874440660E+02  0.49435793889E+03  0.54070197570E+03  0.00000000000E+00 0. -1.
</event>
<event>
 7    1  0.2932318E-009  0.9445203E+02  0.7561462E-02  0.1292415E+00
         -2   -1    0    0    0  501 -0.00000000000E+00  0.00000000000E+00  0.62435565064E+02  0.62435565064E+02  0.00000000000E+00 0.  1.
          2   -1    0    0  501    0  0.00000000000E+00 -0.00000000000E+00 -0.29634827181E+03  0.29634827181E+03  0.00000000000E+00 0. -1.
         25    2    1    2    0    0 -0.30391344114E+00 -0.72209018651E+02 -0.18159947278E+03  0.23204092410E+03  0.12510150760E+03 0.  0.
          5    1    3    3  502    0  0.10980695553E+02 -0.34738472823E+02 -0.18854417805E+03  0.19207737151E+03  0.41800000000E+01 0.  1.
         -5    1    3    3    0  502 -0.11284608994E+02 -0.37470545828E+02  0.69447052640E+01  0.39963552595E+02  0.41800000000E+01 0.  1.
        -11    1    1    2    0    0 -0.42765229409E+02  0.44195313851E+02 -0.41634855631E+02  0.74266761181E+02  0.00000000000E+00 0. -1.
         11    1    1    2    0    0  0.43069142850E+02  0.28013704800E+02 -0.10678378334E+02  0.52476151596E+02  0.00000000000E+00 0.  1.
</event>
<event>
 7    1  0.2820496E-009  0.1104819E+03  0.7561462E-02  0.1259680E+00
         -2   -1    0    0    0  501 -0.00000000000E+00  0.00000000000E+00  0.18869240764E+02  0.18869240764E+02  0.00000000000E+00 0.  1.
          2   -1    0    0  501    0  0.00000000000E+00 -0.00000000000E+00 -0.78100468430E+03  0.78100468430E+03  0.00000000000E+00 0. -1.
         25    2    1    2    0    0  0.30031103393E+02 -0.35577554152E+02 -0.51426676971E+03  0.53130511987E+03  0.12508873027E+03 0.  0.
          5    1    3    3  502    0 -0.39229433262E+02 -0.29298133611E+02 -0.10232094487E+03  0.11350937066E+03  0.41800000000E+01 0.  1.
         -5    1    3    3    0  502  0.69260536655E+02 -0.62794205410E+01 -0.41194582484E+03  0.41779574921E+03  0.41800000000E+01 0.  1.
        -11    1    1    2    0    0  0.23808601808E+02  0.41647184733E+02 -0.95876136878E+02  0.10720807404E+03  0.00000000000E+00 0.  1.
         11    1    1    2    0    0 -0.53839705201E+02 -0.60696305813E+01 -0.15199253695E+03  0.16136073116E+03  0.00000000000E+00 0. -1.
</event>
<event>
 7    1  0.2820496E-009  0.1341544E+03  0.7561462E-02  0.1221418E+00
          1   -1    0    0  501    0  0.00000000000E+00  0.00000000000E+00  0.55975705988E+03  0.55975705988E+03  0.00000000000E+00 0. -1.
         -1   -1    0    0    0  501 -0.00000000000E+00 -0.00000000000E+00 -0.35255722991E+02  0.35255722991E+02  0.00000000000E+00 0.  1.
         25    2    1    2    0    0  0.48672080222E+02 -0.62760330893E+02  0.36864707737E+03  0.39731119518E+03  0.12509071764E+03 0.  0.
          5    1    3    3  502    0 -0.37507933844E+02 -0.47218016677E+02  0.14506676744E+03  0.15715669129E+03  0.41800000000E+01 0. -1.
         -5    1    3    3    0  502  0.86180014066E+02 -0.15542314215E+02  0.22358030992E+03  0.24015450389E+03  0.41800000000E+01 0. -1.
        -11    1    1    2    0    0  0.14818662289E+02  0.54124270064E+02  0.88045577825E+02  0.10440810858E+03  0.00000000000E+00 0.  1.
         11    1    1    2    0    0 -0.63490742511E+02  0.86360608283E+01  0.67808681699E+02  0.93293479113E+02  0.00000000000E+00 0. -1.
</event>
<event>
 7    1  0.2820496E-009  0.9494467E+02  0.7561462E-02  0.1291301E+00
          2   -1    0    0  501    0  0.00000000000E+00  0.00000000000E+00  0.69291858352E+02  0.69291858352E+02  0.00000000000E+00 0. -1.
         -2   -1    0    0    0  501 -0.00000000000E+00 -0.00000000000E+00 -0.19158948094E+03  0.19158948094E+03  0.00000000000E+00 0.  1.
         25    2    1    2    0    0 -0.65867765761E+01 -0.92916380839E+01 -0.50846373379E+02  0.13551066986E+03  0.12509223716E+03 0.  0.
          5    1    3    3  502    0  0.37084271198E+02  0.32041427463E+02 -0.56571351069E+02  0.74964567670E+02  0.41800000000E+01 0.  1.
         -5    1    3    3    0  502 -0.43671047774E+02 -0.41333065547E+02  0.57249776904E+01  0.60546102193E+02  0.41800000000E+01 0.  1.
        -11    1    1    2    0    0  0.30439112011E+01  0.44719446254E+02 -0.77235280240E+02  0.89299399675E+02  0.00000000000E+00 0.  1.
         11    1    1    2    0    0  0.35428653749E+01 -0.35427808170E+02  0.57840310302E+01  0.36071269755E+02  0.00000000000E+00 0. -1.
</event>
<event>
 7    1  0.2820496E-009  0.2044143E+03  0.7561462E-02  0.1146067E+00
          2   -1    0    0  501    0  0.00000000000E+00  0.00000000000E+00  0.89990973428E+02  0.89990973428E+02  0.00000000000E+00 0. -1.
         -2   -1    0    0    0  501 -0.00000000000E+00 -0.00000000000E+00 -0.51387368231E+03  0.51387368231E+03  0.00000000000E+00 0.  1.
         25    2    1    2    0    0  0.87054900746E+02  0.15389911821E+03 -0.29853142748E+03  0.36882519755E+03  0.12509004285E+03 0.  0.
          5    1    3    3  502    0  0.68496402117E+01  0.12485440901E+03 -0.21849126220E+03  0.25177657770E+03  0.41800000000E+01 0.  1.
         -5    1    3    3    0  502  0.80205260535E+02  0.29044709205E+02 -0.80040165284E+02  0.11704861985E+03  0.41800000000E+01 0.  1.
        -11    1    1    2    0    0 -0.10321241416E+03 -0.10681927764E+03 -0.10103684683E+03  0.17964299298E+03  0.00000000000E+00 0.  1.
         11    1    1    2    0    0  0.16157513414E+02 -0.47079840578E+02 -0.24314434570E+02  0.55396465203E+02  0.00000000000E+00 0. -1.
</event>
<event>
 7    1  0.2820496E-009  0.9541205E+02  0.7561462E-02  0.1290251E+00
         -2   -1    0    0    0  501 -0.00000000000E+00  0.00000000000E+00  0.54216185118E+03  0.54216185118E+03  0.00000000000E+00 0.  1.
          2   -1    0    0  501    0  0.00000000000E+00 -0.00000000000E+00 -0.24271703688E+02  0.24271703688E+02  0.00000000000E+00 0. -1.
         25    2    1    2    0    0 -0.33007487855E+02 -0.14702790080E+02  0.33840745480E+03  0.36259220002E+03  0.12509129369E+03 0.  0.
          5    1    3    3  502    0  0.15162559130E+02 -0.48984001560E+02  0.65324268213E+02  0.83150875075E+02  0.41800000000E+01 0. -1.
         -5    1    3    3    0  502 -0.48170046985E+02  0.34281211480E+02  0.27308318659E+03  0.27944132494E+03  0.41800000000E+01 0. -1.
        -11    1    1    2    0    0 -0.33328888523E+01 -0.25613167663E+02  0.13366592140E+02  0.29082783417E+02  0.00000000000E+00 0. -1.
         11    1    1    2    0    0  0.36340376708E+02  0.40315957743E+02  0.16611610055E+03  0.17475857143E+03  0.00000000000E+00 0.  1.
</event>
<event>
 7    1  0.2820496E-009  0.9668128E+02  0.7561462E-02  0.1287434E+00
          2   -1    0    0  501    0  0.00000000000E+00  0.00000000000E+00  0.16703233458E+04  0.16703233458E+04  0.00000000000E+00 0. -1.
         -2   -1    0    0    0  501 -0.00000000000E+00 -0.00000000000E+00 -0.85573604786E+01  0.85573604786E+01  0.00000000000E+00 0.  1.
         25    2    1    2    0    0  0.17090514543E+02 -0.21174724122E+02  0.12581936350E+04  0.12646939530E+04  0.12513639271E+03 0.  0.
          5    1    3    3  502    0 -0.34021234432E+01 -0.58942901710E+02  0.31498753493E+03  0.32050032709E+03  0.41800000000E+01 0.  1.
         -5    1    3    3    0  502  0.20492637987E+02  0.37768177589E+02  0.94320610010E+03  0.94419362586E+03  0.41800000000E+01 0.  1.
        -11    1    1    2    0    0  0.45903852496E+01  0.52612534876E+02  0.18888427309E+03  0.19612857793E+03  0.00000000000E+00 0.  1.
         11    1    1    2    0    0 -0.21680899793E+02 -0.31437810755E+02  0.21468807722E+03  0.21805817541E+03  0.00000000000E+00 0. -1.
</event>
<event>
 7    1  0.2820496E-009  0.1143019E+03  0.7561462E-02  0.1252805E+00
          1   -1    0    0  501    0  0.00000000000E+00  0.00000000000E+00  0.21421759305E+03  0.21421759305E+03  0.00000000000E+00 0. -1.
         -1   -1    0    0    0  501 -0.00000000000E+00 -0.00000000000E+00 -0.17113817887E+03  0.17113817887E+03  0.00000000000E+00 0.  1.
         25    2    1    2    0    0 -0.18726286974E+02  0.87250171319E+02  0.15311369996E+03  0.21692198040E+03  0.12509226294E+03 0.  0.
          5    1    3    3  502    0  0.32594724883E+02 -0.47056519143E+01  0.27621507593E+01  0.33311576470E+02  0.41800000000E+01 0. -1.
         -5    1    3    3    0  502 -0.51321011857E+02  0.91955823233E+02  0.15035154920E+03  0.18361040393E+03  0.41800000000E+01 0. -1.
        -11    1    1    2    0    0  0.13428418976E+02 -0.34826832495E+02 -0.10955734556E+03  0.11574127468E+03  0.00000000000E+00 0. -1.
         11    1    1    2    0    0  0.52978679978E+01 -0.52423338824E+02 -0.47694020854E+00  0.52692516839E+02  0.00000000000E+00 0.  1.
</event>
<event>
 7    1  0.2820496E-009  0.1509746E+03  0.7561462E-02  0.1199281E+00
          1   -1    0    0  501    0  0.00000000000E+00  0.00000000000E+00  0.86503601754E+03  0.86503601754E+03  0.00000000000E+00 0. -1.
         -1   -1    0    0    0  501 -0.00000000000E+00 -0.00000000000E+00 -0.31006639894E+02  0.31006639894E+02  0.00000000000E+00 0.  1.
         25    2    1    2    0    0 -0.97674373085E+02 -0.24728446589E+02  0.34449219326E+03  0.38009666123E+03  0.12508725526E+03 0.  0.
          5    1    3    3  502    0 -0.50578599345E+01  0.42886937386E+02  0.12673809405E+03  0.13395853175E+03  0.41800000000E+01 0.  1.
         -5    1    3    3    0  502 -0.92616513150E+02 -0.67615383975E+02  0.21775409921E+03  0.24613812948E+03  0.41800000000E+01 0.  1.
        -11    1    1    2    0    0  0.38706124760E+01  0.47198987186E+02  0.64014725897E+02  0.79627954664E+02  0.00000000000E+00 0.  1.
         11    1    1    2    0    0  0.93803760609E+02 -0.22470540597E+02  0.42552245849E+03  0.43631804154E+03  0.00000000000E+00 0. -1.
</event>
<event>
 7    1  0.2820496E-009  0.1006242E+03  0.7561462E-02  0.1278989E+00
          2   -1    0    0  501    0  0.00000000000E+00  0.00000000000E+00  0.93214012615E+03  0.93214012615E+03  0.00000000000E+00 0.  1.
         -2   -1    0    0    0  501 -0.00000000000E+00 -0.00000000000E+00 -0.19691796295E+02  0.19691796295E+02  0.00000000000E+00 0. -1.
         25    2    1    2    0    0  0.52671385790E+02 -0.57879131716E+02  0.47291546193E+03  0.49540118873E+03  0.12509610262E+03 0.  0.
          5    1    3    3  502    0 -0.14630268464E+01 -0.50949068037E+02  0.59845301595E+02  0.78720267431E+02  0.41800000000E+01 0.  1.
         -5    1    3    3    0  502  0.54134412637E+02 -0.69300636788E+01  0.41307016034E+03  0.41668092130E+03  0.41800000000E+01 0.  1.
        -11    1    1    2    0    0 -0.28071531600E+02  0.64116848740E+02  0.41591340992E+03  0.42176171676E+03  0.00000000000E+00 0.  1.
         11    1    1    2    0    0 -0.24599854190E+02 -0.62377170248E+01  0.23619458003E+02  0.34669016949E+02  0.00000000000E+00 0. -1.
</event>
<event>
 7    1  0.2820496E-009  0.1327500E+03  0.7561462E-02  0.1223431E+00
          4   -1    0    0  501    0  0.00000000000E+00  0.00000000000E+00  0.42168368942E+02  0.42168368942E+02  0.00000000000E+00 0.  1.
         -4   -1    0    0    0  501 -0.00000000000E+00 -0.00000000000E+00 -0.53702707207E+03  0.53702707207E+03  0.00000000000E+00 0. -1.
         25    2    1    2    0    0  0.46677586282E+00 -0.93185711768E+02 -0.35402092014E+03  0.38686144784E+03  0.12508866123E+03 0.  0.
          5    1    3    3  502    0  0.56562373426E+02 -0.56147863566E+02 -0.25428616767E+03  0.26651606357E+03  0.41800000000E+01 0.  1.
         -5    1    3    3    0  502 -0.56095597563E+02 -0.37037848202E+02 -0.99734752473E+02  0.12034538427E+03  0.41800000000E+01 0.  1.
        -11    1    1    2    0    0 -0.33235171908E+02  0.72057382079E+02 -0.50809404971E+02  0.94225466819E+02  0.00000000000E+00 0.  1.
         11    1    1    2    0    0  0.32768396045E+02  0.21128329689E+02 -0.90028378012E+02  0.98108526349E+02  0.00000000000E+00 0. -1.
</event>
<event>
 7    1  0.2820496E-009  0.9567651E+02  0.7561462E-02  0.1289660E+00
         -1   -1    0    0    0  501 -0.00000000000E+00  0.00000000000E+00  0.29651890486E+02  0.29651890486E+02  0.00000000000E+00 0.  1.
          1   -1    0    0  501    0  0.00000000000E+00 -0.00000000000E+00 -0.49792057348E+03  0.49792057348E+03  0.00000000000E+00 0. -1.
         25    2    1    2    0    0 -0.52676369688E+02  0.23132029276E+01 -0.28751198730E+03  0.31794808742E+03  0.12509073756E+03 0.  0.
          5    1    3    3  502    0 -0.63584056513E+02  0.52987290786E+02 -0.19376051200E+03  0.21073963471E+03  0.41800000000E+01 0. -1.
         -5    1    3    3    0  502  0.10907686825E+02 -0.50674087858E+02 -0.93751475298E+02  0.10720845271E+03  0.41800000000E+01 0. -1.
        -11    1    1    2    0    0  0.35001578630E+02 -0.11124518810E+02 -0.18567444777E+03  0.18927193659E+03  0.00000000000E+00 0. -1.
         11    1    1    2    0    0  0.17674791057E+02  0.88113158827E+01  0.49177520773E+01  0.20352439952E+02  0.00000000000E+00 0.  1.
</event>
<event>
 7    1  0.2820496E-009  0.1003237E+03  0.7561462E-02  0.1279617E+00
         -1   -1    0    0    0  501 -0.00000000000E+00  0.00000000000E+00  0.25839302101E+02  0.25839302101E+02  0.00000000000E+00 0.  1.
          1   -1    0    0  501    0  0.00000000000E+00 -0.00000000000E+00 -0.45721296357E+03  0.45721296357E+03  0.00000000000E+00 0. -1.
         25    2    1    2    0    0  0.12124437292E+02  0.93347755680E+01 -0.30596040092E+03  0.33089768727E+03  0.12508945797E+03 0.  0.
          5    1    3    3  502    0  0.43617524475E+02 -0.45170289550E+02 -0.15390928777E+03  0.16627803451E+03  0.41800000000E+01 0.  1.
         -5    1    3    3    0  502 -0.31493087183E+02  0.54505065118E+02 -0.15205111315E+03  0.16461965276E+03  0.41800000000E+01 0.  1.
        -11    1    1    2    0    0  0.81213571146E+01  0.29627284755E+02 -0.16827057930E+02  0.35026879991E+02  0.00000000000E+00 0.  1.
         11    1    1    2    0    0 -0.20245794406E+02 -0.38962060323E+02 -0.10858620262E+03  0.11712769841E+03  0.00000000000E+00 0. -1.
</event>
<event>
 7    1  0.2820496E-009  0.1090622E+03  0.7561462E-02  0.1262316E+00
          2   -1    0    0  501    0  0.00000000000E+00  0.00000000000E+00  0.13238593830E+03  0.13238593830E+03  0.00000000000E+00 0. -1.
         -2   -1    0    0    0  501 -0.00000000000E+00 -0.00000000000E+00 -0.14414306842E+03  0.14414306842E+03  0.00000000000E+00 0.  1.
         25    2    1    2    0    0  0.49945532836E+02 -0.66838710756E+02  0.11206731239E+02  0.15078287673E+03  0.12509162876E+03 0.  0.
          5    1    3    3  502    0  0.31779073793E+01  0.10303084418E+02 -0.43625393701E+02  0.45132028754E+02  0.41800000000E+01 0.  1.
         -5    1    3    3    0  502  0.46767625457E+02 -0.77141795174E+02  0.54832124940E+02  0.10565084798E+03  0.41800000000E+01 0.  1.
        -11    1    1    2    0    0 -0.35734266381E+02 -0.10794608035E+02 -0.27998502237E+02  0.46662377607E+02  0.00000000000E+00 0.  1.
         11    1    1    2    0    0 -0.14211266455E+02  0.77633318791E+02  0.50346408790E+01  0.79083752374E+02  0.00000000000E+00 0. -1.
</event>
<event>
 7    1  0.2820496E-009  0.1226745E+03  0.7561462E-02  0.1238749E+00
         -1   -1    0    0    0  501 -0.00000000000E+00  0.00000000000E+00  0.12655587775E+03  0.12655587775E+03  0.00000000000E+00 0.  1.
          1   -1    0    0  501    0  0.00000000000E+00 -0.00000000000E+00 -0.12818953853E+03  0.12818953853E+03  0.00000000000E+00 0. -1.
         25    2    1    2    0    0  0.65960726570E+02  0.10573557813E+02 -0.28611608799E+01  0.14183921670E+03  0.12509020576E+03 0.  0.
          5    1    3    3  502    0  0.20060730965E+02  0.65845391474E+02  0.64997242560E+01  0.69265917453E+02  0.41800000000E+01 0. -1.
         -5    1    3    3    0  502  0.45899995605E+02 -0.55271833661E+02 -0.93608851360E+01  0.72573299245E+02  0.41800000000E+01 0. -1.
        -11    1    1    2    0    0 -0.50738862579E+02 -0.44339807546E+02 -0.19907023116E+02  0.70261940468E+02  0.00000000000E+00 0.  1.
         11    1    1    2    0    0 -0.15221863991E+02  0.33766249733E+02  0.21134523210E+02  0.42644259118E+02  0.00000000000E+00 0. -1.
</event>
<event>
 7    1  0.2820496E-009  0.1022124E+03  0.7561462E-02  0.1275711E+00
         -2   -1    0    0    0  501 -0.00000000000E+00  0.00000000000E+00  0.89086781758E+02  0.89086781758E+02  0.00000000000E+00 0.  1.
          2   -1    0    0  501    0  0.00000000000E+00 -0.00000000000E+00 -0.25380375958E+03  0.25380375958E+03  0.00000000000E+00 0. -1.
         25    2    1    2    0    0 -0.75509209924E+01  0.37064212478E+02 -0.19884618830E+03  0.23796101878E+03  0.12511941336E+03 0.  0.
          5    1    3    3  502    0  0.47695736932E+02 -0.10398724846E+01 -0.14216990090E+03  0.15001905805E+03  0.41800000000E+01 0.  1.
         -5    1    3    3    0  502 -0.55246657924E+02  0.38104084962E+02 -0.56676287403E+02  0.87941960727E+02  0.41800000000E+01 0.  1.
        -11    1    1    2    0    0 -0.30273783859E+02 -0.41325810767E+02  0.41778858806E+02  0.66104445144E+02  0.00000000000E+00 0.  1.
         11    1    1    2    0    0  0.37824704852E+02  0.42615982892E+01 -0.76496483261E+01  0.38825077419E+02  0.00000000000E+00 0. -1.
</event>
<event>
 7    1  0.2820496E-009  0.1299535E+03  0.7561462E-02  0.1227525E+00
          1   -1    0    0  501    0  0.00000000000E+00  0.00000000000E+00  0.20638950179E+04  0.20638950179E+04  0.00000000000E+00 0. -1.
         -1   -1    0    0    0  501 -0.00000000000E+00 -0.00000000000E+00 -0.11894366395E+02  0.11894366395E+02  0.00000000000E+00 0.  1.
         25    2    1    2    0    0 -0.77996389255E+02 -0.21749761318E+01  0.16551907943E+04  0.16617439386E+04  0.12509270357E+03 0.  0.
          5    1    3    3  502    0  0.26267170668E+02 -0.27911989304E+02  0.34332757361E+03  0.34548565614E+03  0.41800000000E+01 0. -1.
         -5    1    3    3    0  502 -0.10426355992E+03  0.25737013172E+02  0.13118632207E+04  0.13162582824E+04  0.41800000000E+01 0. -1.
        -11    1    1    2    0    0  0.15775006825E+02  0.38655251677E+02  0.95576261101E+02  0.10429717642E+03  0.00000000000E+00 0.  1.
         11    1    1    2    0    0  0.62221382431E+02 -0.36480275545E+02  0.30123359608E+03  0.30974826931E+03  0.00000000000E+00 0. -1.
</event>
<event>
 7    1  0.2820496E-009  0.1100188E+03  0.7561462E-02  0.1260535E+00
          2   -1    0    0  501    0  0.00000000000E+00  0.00000000000E+00  0.12937657482E+03  0.12937657482E+03  0.00000000000E+00 0. -1.
         -2   -1    0    0    0  501 -0.00000000000E+00 -0.00000000000E+00 -0.15778437851E+03  0.15778437851E+03  0.00000000000E+00 0.  1.
         25    2    1    2    0    0  0.83926985175E+01 -0.90147566397E+02 -0.64185026573E+01  0.15454620218E+03  0.12508521222E+03 0.  0.
          5    1    3    3  502    0  0.85668801574E+01 -0.72424028339E+02 -0.62153088792E+02  0.95911991757E+02  0.41800000000E+01 0.  1.
         -5    1    3    3    0  502 -0.17418163991E+00 -0.17723538058E+02  0.55734586134E+02  0.58634210424E+02  0.41800000000E+01 0.  1.
        -11    1    1    2    0    0  0.23839343394E+02  0.93389043328E+02 -0.26368174472E+02  0.99925513920E+02  0.00000000000E+00 0. -1.
         11    1    1    2    0    0 -0.32232041912E+02 -0.32414769311E+01  0.43788734394E+01  0.32689237236E+02  0.00000000000E+00 0.  1.
</event>
<event>
 7    1  0.2820496E-009  0.1055498E+03  0.7561462E-02  0.1269040E+00
          1   -1    0    0  501    0  0.00000000000E+00  0.00000000000E+00  0.51319880933E+03  0.51319880933E+03  0.00000000000E+00 0. -1.
         -1   -1    0    0    0  501 -0.00000000000E+00 -0.00000000000E+00 -0.26974182547E+02  0.26974182547E+02  0.00000000000E+00 0.  1.
         25    2    1    2    0    0  0.87217352940E+01 -0.32923450104E+02  0.35341125516E+03  0.37643944274E+03  0.12508843488E+03 0.  0.
          5    1    3    3  502    0 -0.36521723618E+02 -0.53963816432E+02  0.28044142122E+03  0.28794234304E+03  0.41800000000E+01 0. -1.
         -5    1    3    3    0  502  0.45243458912E+02  0.21040366328E+02  0.72969833946E+02  0.88497099702E+02  0.41800000000E+01 0. -1.
        -11    1    1    2    0    0  0.37971868747E+02 -0.10533458264E+01  0.54458111556E+02  0.66397727881E+02  0.00000000000E+00 0.  1.
         11    1    1    2    0    0 -0.46693604041E+02  0.33976795931E+02  0.78355260067E+02  0.97335821259E+02  0.00000000000E+00 0. -1.
</event>
<event>
 7    1  0.2820496E-009  0.2281818E+03  0.7561462E-02  0.1127926E+00
          1   -1    0    0  501    0  0.00000000000E+00  0.00000000000E+00  0.15248193181E+04  0.15248193181E+04  0.00000000000E+00 0. -1.
         -1   -1    0    0    0  501 -0.00000000000E+00 -0.00000000000E+00 -0.54224285689E+02  0.54224285689E+02  0.00000000000E+00 0.  1.
         25    2    1    2    0    0  0.19813256141E+03  0.31345908396E+02  0.12127387610E+04  0.12355658448E+04  0.12509427039E+03 0.  0.
          5    1    3    3  502    0 -0.13323795703E+01  0.30736951021E+02  0.89158721627E+02  0.94410197730E+02  0.41800000000E+01 0.  1.
         -5    1    3    3    0  502  0.19946494098E+03  0.60895737470E+00  0.11235800394E+04  0.11411556471E+04  0.41800000000E+01 0.  1.
        -11    1    1    2    0    0 -0.96698616619E+02 -0.67712648763E+02  0.15163865714E+03  0.19217155772E+03  0.00000000000E+00 0. -1.
         11    1    1    2    0    0 -0.10143394479E+03  0.36366740367E+02  0.10621761420E+03  0.15130620122E+03  0.00000000000E+00 0.  1.
</event>
<event>
 7    1  0.2820496E-009  0.1694946E+03  0.7561462E-02  0.1178376E+00
         -1   -1    0    0    0  501 -0.00000000000E+00  0.00000000000E+00  0.19309823116E+02  0.19309823116E+02  0.00000000000E+00 0.  1.
          1   -1    0    0  501    0  0.00000000000E+00 -0.00000000000E+00 -0.22260641961E+04  0.22260641961E+04  0.00000000000E+00 0. -1.
         25    2    1    2    0    0  0.38486215193E+02  0.15461047516E+03 -0.15513985483E+04  0.15645674949E+04  0.12509357551E+03 0.  0.
          5    1    3    3  502    0  0.21878836841E+02  0.97619783366E+02 -0.13700692805E+04  0.13737232659E+04  0.41800000000E+01 0. -1.
         -5    1    3    3    0  502  0.16607378352E+02  0.56990691799E+02 -0.18132926783E+03  0.19084422899E+03  0.41800000000E+01 0. -1.
        -11    1    1    2    0    0 -0.51766834286E+02 -0.43977694191E+02 -0.32942395147E+03  0.33635395422E+03  0.00000000000E+00 0. -1.
         11    1    1    2    0    0  0.13280619092E+02 -0.11063278097E+03 -0.32593187321E+03  0.34445257010E+03  0.00000000000E+00 0.  1.
</event>
<event>
 7    1  0.2820496E-009  0.9426525E+02  0.7561462E-02  0.1292840E+00
         -2   -1    0    0    0  501 -0.00000000000E+00  0.00000000000E+00  0.71536884959E+02  0.71536884959E+02  0.00000000000E+00 0.  1.
          2   -1    0    0  501    0  0.00000000000E+00 -0.00000000000E+00 -0.31669384530E+03  0.31669384530E+03  0.00000000000E+00 0. -1.
         25    2    1    2    0    0 -0.87504208725E+02 -0.19368854513E+02 -0.18295803172E+03  0.23906795869E+03  0.12509080075E+03 0.  0.
          5    1    3    3  502    0 -0.49262714905E+02  0.91062514867E+01 -0.32992670294E+00  0.50272459136E+02  0.41800000000E+01 0. -1.
         -5    1    3    3    0  502 -0.38241493820E+02 -0.28475106000E+02 -0.18262810501E+03  0.18879549955E+03  0.41800000000E+01 0. -1.
        -11    1    1    2    0    0  0.94054467645E+01  0.60181209979E+01  0.27381374830E+02  0.29570591755E+02  0.00000000000E+00 0.  1.
         11    1    1    2    0    0  0.78098761961E+02  0.13350733515E+02 -0.89580303452E+02  0.11959217981E+03  0.00000000000E+00 0. -1.
</event>
<event>
 7    1  0.2820496E-009  0.1084926E+03  0.7561462E-02  0.1263387E+00
         -1   -1    0    0    0  501 -0.00000000000E+00  0.00000000000E+00  0.61008016074E+02  0.61008016074E+02  0.00000000000E+00 0.  1.
          1   -1    0    0  501    0  0.00000000000E+00 -0.00000000000E+00 -0.35853772757E+03  0.35853772757E+03  0.00000000000E+00 0. -1.
         25    2    1    2    0    0 -0.35185892136E+02 -0.77264263611E+02 -0.23177698169E+03  0.27672337557E+03  0.12508974343E+03 0.  0.
          5    1    3    3  502    0  0.20604187821E+01  0.19836143060E+02 -0.12846891920E+03  0.13007479963E+03  0.41800000000E+01 0. -1.
         -5    1    3    3    0  502 -0.37246310918E+02 -0.97100406671E+02 -0.10330806249E+03  0.14664857595E+03  0.41800000000E+01 0. -1.
        -11    1    1    2    0    0 -0.52880918931E+01  0.29270522960E+02  0.20511460644E+02  0.36130976294E+02  0.00000000000E+00 0.  1.
         11    1    1    2    0    0  0.40473984029E+02  0.47993740651E+02 -0.86264190448E+02  0.10669139177E+03  0.00000000000E+00 0. -1.
</event>
<event>
 7    1  0.2820496E-009  0.1145838E+03  0.7561462E-02  0.1252309E+00
         -1   -1    0    0    0  501 -0.00000000000E+00  0.00000000000E+00  0.20538694071E+03  0.20538694071E+03  0.00000000000E+00 0.  1.
          1   -1    0    0  501    0  0.00000000000E+00 -0.00000000000E+00 -0.94699434207E+02  0.94699434207E+02  0.00000000000E+00 0. -1.
         25    2    1    2    0    0  0.51090579893E+02 -0.65903462558E+02  0.88101586648E+02  0.17425166891E+03  0.12509292872E+03 0.  0.
          5    1    3    3  502    0 -0.20793513275E+02  0.69913182686E+01 -0.16546956887E+02  0.27794296316E+02  0.41800000000E+01 0. -1.
         -5    1    3    3    0  502  0.71884093169E+02 -0.72894780826E+02  0.10464854354E+03  0.14645737259E+03  0.41800000000E+01 0. -1.
        -11    1    1    2    0    0 -0.61878430239E+02  0.33804174183E+02 -0.18202004375E+02  0.72821530362E+02  0.00000000000E+00 0. -1.
         11    1    1    2    0    0  0.10787850346E+02  0.32099288374E+02  0.40787924233E+02  0.53013175650E+02  0.00000000000E+00 0.  1.
</event>
<event>
 7    1  0.2820496E-009  0.9492718E+02  0.7561462E-02  0.1291340E+00
         -3   -1    0    0    0  501 -0.00000000000E+00  0.00000000000E+00  0.50691902703E+02  0.50691902703E+02  0.00000000000E+00 0.  1.
          3   -1    0    0  501    0  0.00000000000E+00 -0.00000000000E+00 -0.28421718463E+03  0.28421718463E+03  0.00000000000E+00 0. -1.
         25    2    1    2    0    0  0.44144545506E+02  0.12421387119E+02 -0.16477158117E+03  0.21189825031E+03  0.12509261675E+03 0.  0.
          5    1    3    3  502    0 -0.26526591238E+02  0.98112113628E+01 -0.12976704336E+03  0.13287918518E+03  0.41800000000E+01 0. -1.
         -5    1    3    3    0  502  0.70671136744E+02  0.26101757564E+01 -0.35004537812E+02  0.79019065127E+02  0.41800000000E+01 0. -1.
        -11    1    1    2    0    0  0.19875937887E+02 -0.17114903995E+02  0.33848674002E+01  0.26446742199E+02  0.00000000000E+00 0.  1.
         11    1    1    2    0    0 -0.64020483393E+02  0.46935168758E+01 -0.72138568154E+02  0.96564094827E+02  0.00000000000E+00 0. -1.
</event>
<event>
 7    1  0.2820496E-009  0.1453216E+03  0.7561462E-02  0.1206343E+00
         -2   -1    0    0    0  501 -0.00000000000E+00  0.00000000000E+00  0.47190749257E+02  0.47190749257E+02  0.00000000000E+00 0.  1.
          2   -1    0    0  501    0  0.00000000000E+00 -0.00000000000E+00 -0.51913620186E+03  0.51913620186E+03  0.00000000000E+00 0. -1.
         25    2    1    2    0    0  0.30835776911E+02 -0.96044967635E+02 -0.16660425954E+03  0.23147825571E+03  0.12509885140E+03 0.  0.
          5    1    3    3  502    0  0.40255222336E+02 -0.12351891805E+03 -0.14681620523E+03  0.19608640075E+03  0.41800000000E+01 0. -1.
         -5    1    3    3    0  502 -0.94194454248E+01  0.27473950418E+02 -0.19788054310E+02  0.35391854954E+02  0.41800000000E+01 0. -1.
        -11    1    1    2    0    0 -0.87994393267E+01 -0.15389415703E+02 -0.86337250431E+02  0.88138442579E+02  0.00000000000E+00 0. -1.
         11    1    1    2    0    0 -0.22036337585E+02  0.11143438334E+03 -0.21900394263E+03  0.24671025283E+03  0.00000000000E+00 0.  1.
</event>
<event>
 7    1  0.2820496E-009  0.9870731E+02  0.7561462E-02  0.1283038E+00
         -2   -1    0    0    0  501 -0.00000000000E+00  0.00000000000E+00  0.70347983292E+02  0.70347983292E+02  0.00000000000E+00 0.  1.
          2   -1    0    0  501    0  0.00000000000E+00 -0.00000000000E+00 -0.20512365275E+03  0.20512365275E+03  0.00000000000E+00 0. -1.
         25    2    1    2    0    0  0.10612824150E+02 -0.12424991310E+02 -0.19517611533E+02  0.12765332530E+03  0.12508965526E+03 0.  0.
          5    1    3    3  502    0 -0.39628174985E+02  0.34614536724E+02 -0.25156823531E+02  0.58471331226E+02  0.41800000000E+01 0. -1.
         -5    1    3    3    0  502  0.50240999135E+02 -0.47039528034E+02  0.56392119980E+01  0.69181994071E+02  0.41800000000E+01 0. -1.
        -11    1    1    2    0    0 -0.22636109794E+02 -0.26551650928E+02 -0.97084562103E+02  0.10316392699E+03  0.00000000000E+00 0. -1.
         11    1    1    2    0    0  0.12023285645E+02  0.38976642238E+02 -0.18173495819E+02  0.44654383751E+02  0.00000000000E+00 0.  1.
</event>
<event>
 7    1  0.2820496E-009  0.1402421E+03  0.7561462E-02  0.1213004E+00
         -1   -1    0    0    0  501 -0.00000000000E+00  0.00000000000E+00  0.50717916940E+02  0.50717916940E+02  0.00000000000E+00 0.  1.
          1   -1    0    0  501    0  0.00000000000E+00 -0.00000000000E+00 -0.48318377070E+03  0.48318377070E+03  0.00000000000E+00 0. -1.
         25    2    1    2    0    0  0.14455311886E+02 -0.10722171200E+03 -0.28880128037E+03  0.33280494517E+03  0.12508996930E+03 0.  0.
          5    1    3    3  502    0  0.62348450073E+00 -0.12166773712E+03 -0.28763702047E+03  0.31233948667E+03  0.41800000000E+01 0.  1.
         -5    1    3    3    0  502  0.13831827386E+02  0.14446025117E+02 -0.11642599019E+01  0.20465458501E+02  0.41800000000E+01 0.  1.
        -11    1    1    2    0    0 -0.45515293976E+02  0.94223174878E+02 -0.91465643928E+02  0.13898061983E+03  0.00000000000E+00 0. -1.
         11    1    1    2    0    0  0.31059982090E+02  0.12998537123E+02 -0.52198929457E+02  0.62116122635E+02  0.00000000000E+00 0.  1.
</event>
<event>
 7    1  0.2820496E-009  0.8492653E+02  0.7561462E-02  0.1315625E+00
          1   -1    0    0  501    0  0.00000000000E+00  0.00000000000E+00  0.27486989687E+03  0.27486989687E+03  0.00000000000E+00 0. -1.
         -1   -1    0    0    0  501 -0.00000000000E+00 -0.00000000000E+00 -0.53521480114E+02  0.53521480114E+02  0.00000000000E+00 0.  1.
         25    2    1    2    0    0 -0.33492648328E+02  0.24960591255E+02  0.16799201609E+03  0.21357510502E+03  0.12509284315E+03 0.  0.
          5    1    3    3  502    0 -0.20451415928E+02 -0.18909885943E+02  0.16514397065E+03  0.16752864723E+03  0.41800000000E+01 0.  1.
         -5    1    3    3    0  502 -0.13041232400E+02  0.43870477198E+02  0.28480454342E+01  0.46046457789E+02  0.41800000000E+01 0.  1.
        -11    1    1    2    0    0  0.54279570908E+02 -0.42175600598E+02  0.19368819041E+02  0.71415714341E+02  0.00000000000E+00 0.  1.
         11    1    1    2    0    0 -0.20786922581E+02  0.17215009343E+02  0.33987581623E+02  0.43400557619E+02  0.00000000000E+00 0. -1.
</event>
<event>
 7    1  0.2820496E-009  0.8478548E+02  0.7561462E-02  0.1315994E+00
          4   -1    0    0  501    0  0.00000000000E+00  0.00000000000E+00  0.17311801941E+03  0.17311801941E+03  0.00000000000E+00 0. -1.
         -4   -1    0    0    0  501 -0.00000000000E+00 -0.00000000000E+00 -0.76161646728E+02  0.76161646728E+02  0.00000000000E+00 0.  1.
         25    2    1    2    0    0 -0.78433887111E+01  0.42778372705E+02  0.52409705544E+02  0.14243045607E+03  0.12509256438E+03 0.  0.
          5    1    3    3  502    0  0.87752145326E+01  0.55947669553E+02 -0.25011069121E+02  0.62049755012E+02  0.41800000000E+01 0. -1.
         -5    1    3    3    0  502 -0.16618603244E+02 -0.13169296847E+02  0.77420774665E+02  0.80380701060E+02  0.41800000000E+01 0. -1.
        -11    1    1    2    0    0 -0.36219610393E+02 -0.15871667216E+02  0.37936408634E+02  0.54799097596E+02  0.00000000000E+00 0. -1.
         11    1    1    2    0    0  0.44062999104E+02 -0.26906705489E+02  0.66102585007E+01  0.52050112467E+02  0.00000000000E+00 0.  1.
</event>
<event>
 7    1  0.2820496E-009  0.1286690E+03  0.7561462E-02  0.1229444E+00
         -3   -1    0    0    0  501 -0.00000000000E+00  0.00000000000E+00  0.66101621949E+02  0.66101621949E+02  0.00000000000E+00 0.  1.
          3   -1    0    0  501    0  0.00000000000E+00 -0.00000000000E+00 -0.31875760110E+03  0.31875760110E+03  0.00000000000E+00 0. -1.
         25    2    1    2    0    0 -0.81382880761E+02  0.20764762963E+02 -0.75906989008E+02  0.16871056199E+03  0.12508810529E+03 0.  0.
          5    1    3    3  502    0 -0.16299574533E+01  0.58571158101E+02 -0.12776898608E+02  0.60116211297E+02  0.41800000000E+01 0.  1.
         -5    1    3    3    0  502 -0.79752923307E+02 -0.37806395138E+02 -0.63130090401E+02  0.10859435070E+03  0.41800000000E+01 0.  1.
        -11    1    1    2    0    0 -0.10706349075E+02 -0.14377104022E+02 -0.13929721491E+01  0.17979638539E+02  0.00000000000E+00 0.  1.
         11    1    1    2    0    0  0.92089229836E+02 -0.63876589407E+01 -0.17535601799E+03  0.19816902252E+03  0.00000000000E+00 0. -1.
</event>
<event>
 6    1  0.2820496E-009  0.1072537E+03  0.7561462E-02  0.1265742E+00
         -1   -1    0    0    0  501 -0.00000000000E+00  0.00000000000E+00  0.54351616609E+03  0.54351616609E+03  0.00000000000E+00 0.  1.
          1   -1    0    0  501    0  0.00000000000E+00 -0.00000000000E+00 -0.29785258727E+02  0.29785258727E+02  0.00000000000E+00 0. -1.
          5    1    1    2  502    0 -0.45474766663E+02  0.59701046767E+02  0.15430769555E+03  0.17164063241E+03  0.41800000000E+01 0. -1.
         -5    1    1    2    0  502  0.79305128705E+01 -0.39623887752E+02  0.15209508934E+02  0.43379108762E+02  0.41800000000E+01 0. -1.
        -11    1    1    2    0    0  0.52396304094E+02 -0.45421047946E+02  0.22147524085E+03  0.23207698419E+03  0.00000000000E+00 0. -1.
         11    1    1    2    0    0 -0.14852050301E+02  0.25343888930E+02  0.12273846204E+03  0.12620469947E+03  0.00000000000E+00 0.  1.
</event>
<event>
 7    1  0.2820496E-009  0.1211631E+03  0.7561462E-02  0.1241191E+00
         -3   -1    0    0    0  501 -0.00000000000E+00  0.00000000000E+00  0.26575078859E+02  0.26575078859E+02  0.00000000000E+00 0.  1.
          3   -1    0    0  501    0  0.00000000000E+00 -0.00000000000E+00 -0.88079701518E+03  0.88079701518E+03  0.00000000000E+00 0. -1.
         25    2    1    2    0    0  0.20361346864E+02 -0.55004503019E+02 -0.71999926299E+03  0.73313476344E+03  0.12509021887E+03 0.  0.
          5    1    3    3  502    0 -0.43659362691E+02  0.11888799383E+02 -0.22980377135E+03  0.23425355755E+03  0.41800000000E+01 0.  1.
         -5    1    3    3    0  502  0.64020709555E+02 -0.66893302402E+02 -0.49019549164E+03  0.49888120589E+03  0.41800000000E+01 0.  1.
        -11    1    1    2    0    0 -0.36311217503E+02  0.72155166516E+02 -0.12549233775E+03  0.14924208323E+03  0.00000000000E+00 0. -1.
         11    1    1    2    0    0  0.15949870639E+02 -0.17150663497E+02 -0.87303355739E+01  0.24995247368E+02  0.00000000000E+00 0.  1.
</event>
<event>
 7    1  0.2831916E-009  0.1432981E+03  0.7561462E-02  0.1208959E+00
         -1   -1    0    0    0  501 -0.00000000000E+00  0.00000000000E+00  0.70459622314E+02  0.70459622314E+02  0.00000000000E+00 0.  1.
          1   -1    0    0  501    0  0.00000000000E+00 -0.00000000000E+00 -0.32992445583E+03  0.32992445583E+03  0.00000000000E+00 0. -1.
         25    2    1    2    0    0 -0.37380744429E+02  0.93858530722E+02 -0.93661875555E+02  0.18608348056E+03  0.12509105068E+03 0.  0.
          5    1    3    3  502    0  0.25235450308E+02 -0.14842972299E+02 -0.39588570016E+02  0.49415271474E+02  0.41800000000E+01 0.  1.
         -5    1    3    3    0  502 -0.62616194737E+02  0.10870150302E+03 -0.54073305539E+02  0.13666820908E+03  0.41800000000E+01 0.  1.
        -11    1    1    2    0    0 -0.47653905064E+01 -0.88947399343E+02 -0.85459975465E+02  0.12344130671E+03  0.00000000000E+00 0. -1.
         11    1    1    2    0    0  0.42146134936E+02 -0.49111313785E+01 -0.80342982498E+02  0.90859290874E+02  0.00000000000E+00 0.  1.
</event>
<event>
 7    1  0.2820496E-009  0.1000649E+03  0.7561462E-02  0.1280159E+00
         -1   -1    0    0    0  501 -0.00000000000E+00  0.00000000000E+00  0.13024301988E+03  0.13024301988E+03  0.00000000000E+00 0.  1.
          1   -1    0    0  501    0  0.00000000000E+00 -0.00000000000E+00 -0.11057961338E+03  0.11057961338E+03  0.00000000000E+00 0. -1.
         25    2    1    2    0    0 -0.13440476168E+02  0.22160098457E+01 -0.38266662466E+02  0.13151579351E+03  0.12508600796E+03 0.  0.
          5    1    3    3  502    0  0.46415714165E+02 -0.31589624125E+02 -0.10565896316E+02  0.57283797349E+02  0.41800000000E+01 0. -1.
         -5    1    3    3    0  502 -0.59856190333E+02  0.33805633970E+02 -0.27700766150E+02  0.74231996165E+02  0.41800000000E+01 0. -1.
        -11    1    1    2    0    0 -0.30228318974E+02 -0.70023080721E+01  0.57542007986E+02  0.65374813723E+02  0.00000000000E+00 0.  1.
         11    1    1    2    0    0  0.43668795142E+02  0.47862982264E+01  0.38806097904E+00  0.43932026031E+02  0.00000000000E+00 0. -1.
</event>
<event>
 7    1  0.2820496E-009  0.9586582E+02  0.7561462E-02  0.1289238E+00
         -2   -1    0    0    0  501 -0.00000000000E+00  0.00000000000E+00  0.22607608916E+02  0.22607608916E+02  0.00000000000E+00 0.  1.
          2   -1    0    0  501    0  0.00000000000E+00 -0.00000000000E+00 -0.76941229831E+03  0.76941229831E+03  0.00000000000E+00 0. -1.
         25    2    1    2    0    0 -0.31934277922E+02  0.72309529345E+02 -0.48787005835E+03  0.50981693459E+03  0.12509055448E+03 0.  0.
          5    1    3    3  502    0 -0.18389941698E+02  0.38045396779E+02 -0.46350927763E+03  0.46545028200E+03  0.41800000000E+01 0. -1.
         -5    1    3    3    0  502 -0.13544336224E+02  0.34264132565E+02 -0.24360780724E+02  0.44366652586E+02  0.41800000000E+01 0. -1.
        -11    1    1    2    0    0 -0.60388240914E+01 -0.73934146533E+02 -0.16848393630E+03  0.18409117907E+03  0.00000000000E+00 0. -1.
         11    1    1    2    0    0  0.37973102014E+02  0.16246171879E+01 -0.90450694745E+02  0.98111793569E+02  0.00000000000E+00 0.  1.
</event>
<event>
 7    1  0.2820496E-009  0.1188846E+03  0.7561462E-02  0.1244949E+00
         -3   -1    0    0    0  501 -0.00000000000E+00  0.00000000000E+00  0.47660594468E+02  0.47660594468E+02  0.00000000000E+00 0.  1.
          3   -1    0    0  501    0  0.00000000000E+00 -0.00000000000E+00 -0.55663195950E+03  0.55663195950E+03  0.00000000000E+00 0. -1.
         25    2    1    2    0    0  0.10586752477E+03  0.11219022646E+02 -0.38207452470E+03  0.41588724645E+03  0.12508980800E+03 0.  0.
          5    1    3    3  502    0  0.26047487046E+02 -0.25640727753E+02 -0.17317559151E+02  0.40660653660E+02  0.41800000000E+01 0. -1.
         -5    1    3    3    0  502  0.79820037722E+02  0.36859750399E+02 -0.36475696555E+03  0.37522659279E+03  0.41800000000E+01 0.  1.
        -11    1    1    2    0    0 -0.89514655552E+02  0.53596344339E+01 -0.13641356281E+03  0.16324907154E+03  0.00000000000E+00 0. -1.
         11    1    1    2    0    0 -0.16352869217E+02 -0.16578657080E+02  0.95167224729E+01  0.25156235983E+02  0.00000000000E+00 0.  1.
</event>
<event>
 7    1  0.2820496E-009  0.1134951E+03  0.7561462E-02  0.1254231E+00
          2   -1    0    0  501    0  0.00000000000E+00  0.00000000000E+00  0.74400590178E+03  0.74400590178E+03  0.00000000000E+00 0. -1.
         -2   -1    0    0    0  501 -0.00000000000E+00 -0.00000000000E+00 -0.33001516150E+02  0.33001516150E+02  0.00000000000E+00 0.  1.
         25    2    1    2    0    0 -0.93207306409E+02  0.87901779211E+01  0.54110109606E+03  0.56320799875E+03  0.12509190424E+03 0.  0.
          5    1    3    3  502    0 -0.51472870535E+02 -0.13476732807E+02  0.62206061483E+02  0.81964292308E+02  0.41800000000E+01 0. -1.
         -5    1    3    3    0  502 -0.41734435874E+02  0.22266910728E+02  0.47889503458E+03  0.48124370645E+03  0.41800000000E+01 0. -1.
        -11    1    1    2    0    0  0.50229977812E+02 -0.46876900878E+02  0.67049684056E+02  0.96000805407E+02  0.00000000000E+00 0.  1.
         11    1    1    2    0    0  0.42977328597E+02  0.38086722957E+02  0.10285360551E+03  0.11779861377E+03  0.00000000000E+00 0. -1.
</event>
<event>
 7    1  0.2820496E-009  0.1418324E+03  0.7561462E-02  0.1210884E+00
         -2   -1    0    0    0  501 -0.00000000000E+00  0.00000000000E+00  0.42663249674E+02  0.42663249674E+02  0.00000000000E+00 0.  1.
          2   -1    0    0  501    0  0.00000000000E+00 -0.00000000000E+00 -0.72906764483E+03  0.72906764483E+03  0.00000000000E+00 0. -1.
         25    2    1    2    0    0  0.82796853714E+02 -0.85121900255E+02 -0.51045380975E+03  0.53880555361E+03  0.12508907159E+03 0.  0.
          5    1    3    3  502    0 -0.46493812327E+01 -0.68692320167E+02 -0.33509735453E+03  0.34212272799E+03  0.41800000000E+01 0. -1.
         -5    1    3    3    0  502  0.87446234947E+02 -0.16429580089E+02 -0.17535645522E+03  0.19668282562E+03  0.41800000000E+01 0. -1.
        -11    1    1    2    0    0 -0.86311127860E+02  0.73157607811E+02 -0.18545627230E+03  0.21724565660E+03  0.00000000000E+00 0. -1.
         11    1    1    2    0    0  0.35142741464E+01  0.11964292444E+02  0.95056868904E+01  0.15679684299E+02  0.00000000000E+00 0.  1.
</event>
<event>
 7    1  0.2820496E-009  0.1157936E+03  0.7561462E-02  0.1250202E+00
         -1   -1    0    0    0  501 -0.00000000000E+00  0.00000000000E+00  0.35277950014E+02  0.35277950014E+02  0.00000000000E+00 0.  1.
          1   -1    0    0  501    0  0.00000000000E+00 -0.00000000000E+00 -0.49505825395E+03  0.49505825395E+03  0.00000000000E+00 0. -1.
         25    2    1    2    0    0 -0.60645842475E+02  0.23899469426E+02 -0.32216634052E+03  0.35169359309E+03  0.12509248420E+03 0.  0.
          5    1    3    3  502    0  0.25509384624E+02 -0.27410325027E+02 -0.12343454206E+03  0.12905662786E+03  0.41800000000E+01 0.  1.
         -5    1    3    3    0  502 -0.86155227099E+02  0.51309794453E+02 -0.19873179847E+03  0.22263696523E+03  0.41800000000E+01 0.  1.
        -11    1    1    2    0    0 -0.13286456329E+02 -0.13403955821E+02 -0.85559136486E+02  0.87615990491E+02  0.00000000000E+00 0. -1.
         11    1    1    2    0    0  0.73932298804E+02 -0.10495513604E+02 -0.52054826921E+02  0.91026620381E+02  0.00000000000E+00 0.  1.
</event>
<event>
 7    1  0.2820496E-009  0.3298569E+03  0.7561462E-02  0.1071200E+00
         -1   -1    0    0    0  501 -0.00000000000E+00  0.00000000000E+00  0.12620900670E+03  0.12620900670E+03  0.00000000000E+00 0. -1.
          1   -1    0    0  501    0  0.00000000000E+00 -0.00000000000E+00 -0.97849042947E+03  0.97849042947E+03  0.00000000000E+00 0.  1.
         25    2    1    2    0    0  0.22036178200E+03  0.23420167242E+03 -0.57601894180E+03  0.67145734063E+03  0.12508957048E+03 0.  0.
          5    1    3    3  502    0  0.87590097918E+02  0.57249540537E+02 -0.29967532924E+03  0.31744654747E+03  0.41800000000E+01 0.  1.
         -5    1    3    3    0  502  0.13277168408E+03  0.17695213189E+03 -0.27634361256E+03  0.35401079316E+03  0.41800000000E+01 0.  1.
        -11    1    1    2    0    0 -0.16132141343E+03 -0.22033533375E+03 -0.22497299739E+03  0.35381507498E+03  0.00000000000E+00 0.  1.
         11    1    1    2    0    0 -0.59040368565E+02 -0.13866338678E+02 -0.51289483578E+02  0.79427020556E+02  0.00000000000E+00 0. -1.
</event>
<event>
 7    1  0.2820496E-009  0.8760690E+02  0.7561462E-02  0.1308753E+00
         -1   -1    0    0    0  501 -0.00000000000E+00  0.00000000000E+00  0.28499337602E+02  0.28499337602E+02  0.00000000000E+00 0.  1.
          1   -1    0    0  501    0  0.00000000000E+00 -0.00000000000E+00 -0.60399832105E+03  0.60399832105E+03  0.00000000000E+00 0. -1.
         25    2    1    2    0    0 -0.72824763253E+02 -0.80141990500E+01 -0.36121597323E+03  0.38921894102E+03  0.12508689460E+03 0.  0.
          5    1    3    3  502    0 -0.79051571195E+02  0.58471672965E+01 -0.10068568774E+03  0.12821240342E+03  0.41800000000E+01 0. -1.
         -5    1    3    3    0  502  0.62268079422E+01 -0.13861366347E+02 -0.26053028549E+03  0.26100653760E+03  0.41800000000E+01 0. -1.
        -11    1    1    2    0    0  0.18899038274E+02  0.16984090787E+02 -0.36533661129E+01  0.25670607151E+02  0.00000000000E+00 0.  1.
         11    1    1    2    0    0  0.53925724979E+02 -0.89698917365E+01 -0.21062964410E+03  0.21760811048E+03  0.00000000000E+00 0. -1.
</event>
<event>
 7    1  0.2820496E-009  0.7860716E+02  0.7561462E-02  0.1333051E+00
         -2   -1    0    0    0  501 -0.00000000000E+00  0.00000000000E+00  0.37060563432E+02  0.37060563432E+02  0.00000000000E+00 0. -1.
          2   -1    0    0  501    0  0.00000000000E+00 -0.00000000000E+00 -0.39356267667E+03  0.39356267667E+03  0.00000000000E+00 0.  1.
         25    2    1    2    0    0  0.26684451360E+02 -0.13637542422E+02 -0.11622595835E+03  0.17335892283E+03  0.12508717050E+03 0.  0.
          5    1    3    3  502    0  0.38685678681E+02  0.22694048853E+02 -0.12586290187E+03  0.13368075425E+03  0.41800000000E+01 0. -1.
         -5    1    3    3    0  502 -0.12001227321E+02 -0.36331591275E+02  0.96369435223E+01  0.39678168584E+02  0.41800000000E+01 0. -1.
        -11    1    1    2    0    0 -0.49435397928E+02  0.66593333100E+01 -0.22123006631E+03  0.22678392255E+03  0.00000000000E+00 0.  1.
         11    1    1    2    0    0  0.22750946568E+02  0.69782091119E+01 -0.19046088583E+02  0.30480394723E+02  0.00000000000E+00 0. -1.
</event>
<event>
 7    1  0.2820496E-009  0.1108881E+03  0.7561462E-02  0.1258934E+00
          2   -1    0    0  501    0  0.00000000000E+00  0.00000000000E+00  0.16924607510E+03  0.16924607510E+03  0.00000000000E+00 0.  1.
         -2   -1    0    0    0  501 -0.00000000000E+00 -0.00000000000E+00 -0.13406370409E+03  0.13406370409E+03  0.00000000000E+00 0. -1.
         25    2    1    2    0    0 -0.71197342859E+02 -0.56998267271E+01  0.94200753777E+02  0.17211397709E+03  0.12509152427E+03 0.  0.
          5    1    3    3  502    0  0.17559285805E+02  0.36975754712E+01  0.79444568168E+02  0.81553126204E+02  0.41800000000E+01 0.  1.
         -5    1    3    3    0  502 -0.88756628663E+02 -0.93974021983E+01  0.14756185609E+02  0.90560850887E+02  0.41800000000E+01 0.  1.
        -11    1    1    2    0    0 -0.20412427532E+02  0.90526246307E+01 -0.30051230160E+00  0.22331760300E+02  0.00000000000E+00 0. -1.
         11    1    1    2    0    0  0.91609770390E+02 -0.33527979036E+01 -0.58717870471E+02  0.10886404180E+03  0.00000000000E+00 0.  1.
</event>
<event>
 7    1  0.2820496E-009  0.1296745E+03  0.7561462E-02  0.1227940E+00
          1   -1    0    0  501    0  0.00000000000E+00  0.00000000000E+00  0.16875119613E+03  0.16875119613E+03  0.00000000000E+00 0. -1.
         -1   -1    0    0    0  501 -0.00000000000E+00 -0.00000000000E+00 -0.16521378104E+03  0.16521378104E+03  0.00000000000E+00 0.  1.
         25    2    1    2    0    0 -0.42819341088E+02  0.78847791736E+02  0.89779152577E+02  0.17820890691E+03  0.12509055933E+03 0.  0.
          5    1    3    3  502    0  0.22187066121E+02 -0.18158551064E+02  0.44063895900E+02  0.52736118569E+02  0.41800000000E+01 0. -1.
         -5    1    3    3    0  502 -0.65006407209E+02  0.97006342800E+02  0.45715256676E+02  0.12547278834E+03  0.41800000000E+01 0. -1.
        -11    1    1    2    0    0 -0.74760459157E+01 -0.58976483807E+02 -0.82311661388E+02  0.10153485365E+03  0.00000000000E+00 0.  1.
         11    1    1    2    0    0  0.50295387004E+02 -0.19871307929E+02 -0.39300761069E+01  0.54221216612E+02  0.00000000000E+00 0. -1.
</event>
<event>
 7    1  0.2820496E-009  0.9549294E+02  0.7561462E-02  0.1290070E+00
         -2   -1    0    0    0  501 -0.00000000000E+00  0.00000000000E+00  0.34506249862E+02  0.34506249862E+02  0.00000000000E+00 0.  1.
          2   -1    0    0  501    0  0.00000000000E+00 -0.00000000000E+00 -0.39960502042E+03  0.39960502042E+03  0.00000000000E+00 0. -1.
         25    2    1    2    0    0 -0.30040955049E+00 -0.46766448458E+02 -0.21346274744E+03  0.25179519593E+03  0.12508910905E+03 0.  0.
          5    1    3    3  502    0  0.34027220938E+02 -0.45976069772E+02 -0.29280684892E+02  0.64393180262E+02  0.41800000000E+01 0.  1.
         -5    1    3    3    0  502 -0.34327630488E+02 -0.79037868582E+00 -0.18418206255E+03  0.18740201567E+03  0.41800000000E+01 0.  1.
        -11    1    1    2    0    0 -0.22018148494E+02 -0.19319188083E+02 -0.63396381813E+02  0.69836459806E+02  0.00000000000E+00 0. -1.
         11    1    1    2    0    0  0.22318558044E+02  0.66085636541E+02 -0.88239641303E+02  0.11247961454E+03  0.00000000000E+00 0.  1.
</event>
<event>
 7    1  0.2820496E-009  0.1479357E+03  0.7561462E-02  0.1203033E+00
          2   -1    0    0  501    0  0.00000000000E+00  0.00000000000E+00  0.78882638896E+03  0.78882638896E+03  0.00000000000E+00 0. -1.
         -2   -1    0    0    0  501 -0.00000000000E+00 -0.00000000000E+00 -0.32572102086E+02  0.32572102086E+02  0.00000000000E+00 0.  1.
         25    2    1    2    0    0  0.10881441637E+03 -0.40450856822E+02  0.44202103660E+03  0.47382176727E+03  0.12509045254E+03 0.  0.
          5    1    3    3  502    0  0.11281938985E+03 -0.43868022014E+01  0.20562045577E+03  0.23461607573E+03  0.41800000000E+01 0.  1.
         -5    1    3    3    0  502 -0.40049734859E+01 -0.36064054620E+02  0.23640058083E+03  0.23920569154E+03  0.41800000000E+01 0.  1.
        -11    1    1    2    0    0 -0.56149609225E+01 -0.24029108412E+02  0.33525111529E+02  0.41627622323E+02  0.00000000000E+00 0.  1.
         11    1    1    2    0    0 -0.10319945545E+03  0.64479965234E+02  0.28070813874E+03  0.30594910145E+03  0.00000000000E+00 0. -1.
</event>
<event>
 7    1  0.2820496E-009  0.2964197E+03  0.7561462E-02  0.1087044E+00
         -1   -1    0    0    0  501 -0.00000000000E+00  0.00000000000E+00  0.13991467881E+04  0.13991467881E+04  0.00000000000E+00 0.  1.
          1   -1    0    0  501    0  0.00000000000E+00 -0.00000000000E+00 -0.91189951142E+02  0.91189951142E+02  0.00000000000E+00 0. -1.
         25    2    1    2    0    0  0.25129788495E+03 -0.15035261499E+03  0.10245382009E+04  0.10728812791E+04  0.12505669903E+03 0.  0.
          5    1    3    3  502    0  0.14195201774E+03 -0.88100429017E+02  0.36507487210E+03  0.40150864944E+03  0.41800000000E+01 0. -1.
         -5    1    3    3    0  502  0.10934586721E+03 -0.62252185974E+02  0.65946332883E+03  0.67137262962E+03  0.41800000000E+01 0. -1.
        -11    1    1    2    0    0 -0.45152155903E+02  0.82740480158E+00  0.78584109085E+02  0.90635886833E+02  0.00000000000E+00 0.  1.
         11    1    1    2    0    0 -0.20614572905E+03  0.14952521019E+03  0.20483452690E+03  0.32681957331E+03  0.00000000000E+00 0. -1.
</event>
<event>
 7    1  0.2820496E-009  0.1317615E+03  0.7561462E-02  0.1224865E+00
          2   -1    0    0  501    0  0.00000000000E+00  0.00000000000E+00  0.55275529972E+02  0.55275529972E+02  0.00000000000E+00 0. -1.
         -2   -1    0    0    0  501 -0.00000000000E+00 -0.00000000000E+00 -0.45480100006E+03  0.45480100006E+03  0.00000000000E+00 0.  1.
         25    2    1    2    0    0  0.10052632355E+03  0.28625263845E+01 -0.30047852695E+03  0.34065694620E+03  0.12508426781E+03 0.  0.
          5    1    3    3  502    0  0.89111710239E+02  0.52388550353E+02 -0.15372257312E+03  0.18529317040E+03  0.41800000000E+01 0.  1.
         -5    1    3    3    0  502  0.11414613313E+02 -0.49526023969E+02 -0.14675595383E+03  0.15536377580E+03  0.41800000000E+01 0.  1.
        -11    1    1    2    0    0 -0.81130986686E+02 -0.19586837807E+02 -0.11282360155E+03  0.14033904048E+03  0.00000000000E+00 0.  1.
         11    1    1    2    0    0 -0.19395336866E+02  0.16724311422E+02  0.13776658411E+02  0.29080543352E+02  0.00000000000E+00 0. -1.
</event>
<event>
 7    1  0.2820496E-009  0.1105859E+03  0.7561462E-02  0.1259489E+00
         -4   -1    0    0    0  501 -0.00000000000E+00  0.00000000000E+00  0.24148231081E+03  0.24148231081E+03  0.00000000000E+00 0.  1.
          4   -1    0    0  501    0  0.00000000000E+00 -0.00000000000E+00 -0.69736563852E+02  0.69736563852E+02  0.00000000000E+00 0. -1.
         25    2    1    2    0    0 -0.52676833316E+02  0.85180931177E+01  0.40021622130E+02  0.14176150771E+03  0.12508872112E+03 0.  0.
          5    1    3    3  502    0  0.19186436088E+02  0.48615913066E+02  0.24664470984E+02  0.57943376343E+02  0.41800000000E+01 0.  1.
         -5    1    3    3    0  502 -0.71863269404E+02 -0.40097819949E+02  0.15357151146E+02  0.83818131364E+02  0.41800000000E+01 0.  1.
        -11    1    1    2    0    0  0.22434255206E+02 -0.37985593460E+02  0.17118637371E+02  0.47320702263E+02  0.00000000000E+00 0.  1.
         11    1    1    2    0    0  0.30242578110E+02  0.29467500343E+02  0.11460548745E+03  0.12213666469E+03  0.00000000000E+00 0. -1.
</event>
<event>
 7    1  0.2820496E-009  0.9079783E+02  0.7561462E-02  0.1300931E+00
          2   -1    0    0  501    0  0.00000000000E+00  0.00000000000E+00  0.21514766367E+03  0.21514766367E+03  0.00000000000E+00 0. -1.
         -2   -1    0    0    0  501 -0.00000000000E+00 -0.00000000000E+00 -0.58087399233E+02  0.58087399233E+02  0.00000000000E+00 0.  1.
         25    2    1    2    0    0 -0.16156368152E+02  0.44150674462E+00  0.10402695153E+03  0.16349531246E+03  0.12509151606E+03 0.  0.
          5    1    3    3  502    0 -0.46183769683E+02  0.49860264802E+02  0.53611630076E+02  0.86664097917E+02  0.41800000000E+01 0. -1.
         -5    1    3    3    0  502  0.30027401531E+02 -0.49418758057E+02  0.50415321457E+02  0.76831214544E+02  0.41800000000E+01 0. -1.
        -11    1    1    2    0    0 -0.11235740790E+02  0.18905007852E+02 -0.19777733868E+02  0.29577017259E+02  0.00000000000E+00 0.  1.
         11    1    1    2    0    0  0.27392108943E+02 -0.19346514597E+02  0.72811046769E+02  0.80162733180E+02  0.00000000000E+00 0. -1.
</event>
<event>
 7    1  0.2820496E-009  0.1335118E+03  0.7561462E-02  0.1222336E+00
         -2   -1    0    0    0  501 -0.00000000000E+00  0.00000000000E+00  0.61706169838E+02  0.61706169838E+02  0.00000000000E+00 0. -1.
          2   -1    0    0  501    0  0.00000000000E+00 -0.00000000000E+00 -0.33862816307E+03  0.33862816307E+03  0.00000000000E+00 0.  1.
         25    2    1    2    0    0  0.73740155137E+02  0.42819637553E+02 -0.90775566618E+02  0.17651786296E+03  0.12508885086E+03 0.  0.
          5    1    3    3  502    0 -0.12136895814E+02 -0.29306883645E+02  0.28464193403E+00  0.31996110545E+02  0.41800000000E+01 0. -1.
         -5    1    3    3    0  502  0.85877050951E+02  0.72126521197E+02 -0.91060208552E+02  0.14452175242E+03  0.41800000000E+01 0. -1.
        -11    1    1    2    0    0 -0.94307606995E+02 -0.32180805643E+02 -0.13616790780E+03  0.16873419364E+03  0.00000000000E+00 0.  1.
         11    1    1    2    0    0  0.20567451858E+02 -0.10638831909E+02 -0.49978518815E+02  0.55082276308E+02  0.00000000000E+00 0. -1.
</event>
<event>
 7    1  0.2820496E-009  0.9760525E+02  0.7561462E-02  0.1285414E+00
          3   -1    0    0  501    0  0.00000000000E+00  0.00000000000E+00  0.48620332343E+02  0.48620332343E+02  0.00000000000E+00 0. -1.
         -3   -1    0    0    0  501 -0.00000000000E+00 -0.00000000000E+00 -0.55992555925E+03  0.55992555925E+03  0.00000000000E+00 0.  1.
         25    2    1    2    0    0 -0.23982085679E+02  0.93206022236E+02 -0.40678663375E+03  0.43633128867E+03  0.12508846893E+03 0.  0.
          5    1    3    3  502    0 -0.23532291551E+02  0.49039595128E+02 -0.38126516834E+03  0.38514835016E+03  0.41800000000E+01 0. -1.
         -5    1    3    3    0  502 -0.44979412781E+00  0.44166427108E+02 -0.25521465402E+02  0.51182938510E+02  0.41800000000E+01 0. -1.
        -11    1    1    2    0    0  0.21096652156E+02 -0.77414239740E+02 -0.15450498089E+02  0.81711389279E+02  0.00000000000E+00 0. -1.
         11    1    1    2    0    0  0.28854335226E+01 -0.15791782496E+02 -0.89068095068E+02  0.90503213645E+02  0.00000000000E+00 0.  1.
</event>
<event>
 7    1  0.2820496E-009  0.9704877E+02  0.7561462E-02  0.1286627E+00
         -4   -1    0    0    0  501 -0.00000000000E+00  0.00000000000E+00  0.18159235450E+03  0.18159235450E+03  0.00000000000E+00 0. -1.
          4   -1    0    0  501    0  0.00000000000E+00 -0.00000000000E+00 -0.66908465337E+02  0.66908465337E+02  0.00000000000E+00 0.  1.
         25    2    1    2    0    0  0.34400129875E+01  0.32470548239E+02  0.57070320785E+02  0.14131771342E+03  0.12508998528E+03 0.  0.
          5    1    3    3  502    0  0.50333829701E+02  0.32347141135E+02  0.70305308135E+02  0.92412881699E+02  0.41800000000E+01 0. -1.
         -5    1    3    3    0  502 -0.46893816713E+02  0.12340710445E+00 -0.13234987349E+02  0.48904831718E+02  0.41800000000E+01 0. -1.
        -11    1    1    2    0    0 -0.30897741685E+02  0.13321235893E+02  0.86566295038E+01  0.34742812225E+02  0.00000000000E+00 0.  1.
         11    1    1    2    0    0  0.27457728698E+02 -0.45791784133E+02  0.48956938878E+02  0.72440294199E+02  0.00000000000E+00 0. -1.
</event>
<event>
 7    1  0.2820496E-009  0.9537634E+02  0.7561462E-02  0.1290331E+00
         -3   -1    0    0    0  501 -0.00000000000E+00  0.00000000000E+00  0.16922748670E+04  0.16922748670E+04  0.00000000000E+00 0.  1.
          3   -1    0    0  501    0  0.00000000000E+00 -0.00000000000E+00 -0.12518005541E+02  0.12518005541E+02  0.00000000000E+00 0. -1.
         25    2    1    2    0    0 -0.67857202570E+01 -0.13501845275E+02  0.14596611926E+04  0.14650893396E+04  0.12509048751E+03 0.  0.
          5    1    3    3  502    0 -0.43070798278E+02  0.18672941488E+02  0.11987764533E+04  0.11997025589E+04  0.41800000000E+01 0.  1.
         -5    1    3    3    0  502  0.36285078021E+02 -0.32174786763E+02  0.26088473931E+03  0.26538678075E+03  0.41800000000E+01 0.  1.
        -11    1    1    2    0    0 -0.17580301086E+02 -0.35838563007E+02  0.93588144671E+02  0.10174581273E+03  0.00000000000E+00 0. -1.
         11    1    1    2    0    0  0.24366021343E+02  0.49340408282E+02  0.12650752424E+03  0.13795772024E+03  0.00000000000E+00 0.  1.
</event>
<event>
 6    1  0.2820496E-009  0.9682147E+02  0.7561462E-02  0.1287126E+00
          2   -1    0    0  501    0  0.00000000000E+00  0.00000000000E+00  0.57835771851E+03  0.57835771851E+03  0.00000000000E+00 0. -1.
         -2   -1    0    0    0  501 -0.00000000000E+00 -0.00000000000E+00 -0.30393844071E+02  0.30393844071E+02  0.00000000000E+00 0.  1.
          5    1    1    2  502    0 -0.35728607193E+01  0.56323100453E+02  0.37417631632E+03  0.37843155930E+03  0.41800000000E+01 0. -1.
         -5    1    1    2    0  502  0.41421403964E+02 -0.18745105788E+02  0.53331103179E+02  0.70205346403E+02  0.41800000000E+01 0. -1.
        -11    1    1    2    0    0 -0.50766639134E+02 -0.51560448821E+02  0.52117366134E+02  0.89173714649E+02  0.00000000000E+00 0.  1.
         11    1    1    2    0    0  0.12918095889E+02  0.13982454156E+02  0.68339088807E+02  0.70940942231E+02  0.00000000000E+00 0. -1.
</event>
<event>
 7    1  0.2820496E-009  0.1142009E+03  0.7561462E-02  0.1252982E+00
         -2   -1    0    0    0  501 -0.00000000000E+00  0.00000000000E+00  0.38797671169E+02  0.38797671169E+02  0.00000000000E+00 0.  1.
          2   -1    0    0  501    0  0.00000000000E+00 -0.00000000000E+00 -0.49070589175E+03  0.49070589175E+03  0.00000000000E+00 0. -1.
         25    2    1    2    0    0 -0.56790808797E+02  0.62901011727E+02 -0.28332167035E+03  0.32109239016E+03  0.12508965141E+03 0.  0.
          5    1    3    3  502    0 -0.41796330800E+02 -0.71377635063E+00 -0.14553981943E+02  0.44460471606E+02  0.41800000000E+01 0. -1.
         -5    1    3    3    0  502 -0.14994477997E+02  0.63614788078E+02 -0.26876768841E+03  0.27663191856E+03  0.41800000000E+01 0. -1.
        -11    1    1    2    0    0  0.57163461013E+02 -0.83009125009E+02 -0.15181032340E+03  0.18222115794E+03  0.00000000000E+00 0.  1.
         11    1    1    2    0    0 -0.37265221581E+00  0.20108113282E+02 -0.16776226831E+02  0.26190014817E+02  0.00000000000E+00 0. -1.
</event>
<event>
 7    1  0.2820496E-009  0.8848399E+02  0.7561462E-02  0.1306565E+00
          2   -1    0    0  501    0  0.00000000000E+00  0.00000000000E+00  0.24042032957E+03  0.24042032957E+03  0.00000000000E+00 0.  1.
         -2   -1    0    0    0  501 -0.00000000000E+00 -0.00000000000E+00 -0.74444308646E+02  0.74444308646E+02  0.00000000000E+00 0. -1.
         25    2    1    2    0    0 -0.64680234559E+01 -0.56700348613E+02  0.11235214785E+03  0.17755942498E+03  0.12509028504E+03 0.  0.
          5    1    3    3  502    0  0.40717575961E+02 -0.41185500658E+02  0.38953092452E+01  0.58196325406E+02  0.41800000000E+01 0.  1.
         -5    1    3    3    0  502 -0.47185599417E+02 -0.15514847955E+02  0.10845683861E+03  0.11936309957E+03  0.41800000000E+01 0.  1.
        -11    1    1    2    0    0  0.22380761070E+02  0.24792451397E+02  0.84043058278E+02  0.90436716864E+02  0.00000000000E+00 0.  1.
         11    1    1    2    0    0 -0.15912737614E+02  0.31907897216E+02 -0.30419185209E+02  0.46868496369E+02  0.00000000000E+00 0. -1.
</event>
<event>
 7    1  0.2820496E-009  0.1468111E+03  0.7561462E-02  0.1204447E+00
         -2   -1    0    0    0  501 -0.00000000000E+00  0.00000000000E+00  0.30908092848E+02  0.30908092848E+02  0.00000000000E+00 0.  1.
          2   -1    0    0  501    0  0.00000000000E+00 -0.00000000000E+00 -0.74768841989E+03  0.74768841989E+03  0.00000000000E+00 0. -1.
         25    2    1    2    0    0 -0.95699850351E+02  0.39123771109E+02 -0.32279235208E+03  0.36129071659E+03  0.12508776322E+03 0.  0.
          5    1    3    3  502    0 -0.47992360422E+02 -0.43190502620E+02 -0.16156531551E+03  0.17403881679E+03  0.41800000000E+01 0. -1.
         -5    1    3    3    0  502 -0.47707489928E+02  0.82314273729E+02 -0.16122703658E+03  0.18725189980E+03  0.41800000000E+01 0. -1.
        -11    1    1    2    0    0  0.30181541012E+02  0.27078174726E+02 -0.16908218423E+03  0.17387621455E+03  0.00000000000E+00 0. -1.
         11    1    1    2    0    0  0.65518309339E+02 -0.66201945835E+02 -0.22490579073E+03  0.24342958159E+03  0.00000000000E+00 0.  1.
</event>
<event>
 7    1  0.2820496E-009  0.1057432E+03  0.7561462E-02  0.1268662E+00
          2   -1    0    0  501    0  0.00000000000E+00  0.00000000000E+00  0.37439610896E+03  0.37439610896E+03  0.00000000000E+00 0. -1.
         -2   -1    0    0    0  501 -0.00000000000E+00 -0.00000000000E+00 -0.67726481537E+02  0.67726481537E+02  0.00000000000E+00 0.  1.
         25    2    1    2    0    0  0.72487280141E+02 -0.69375382554E+02  0.56479830415E+02  0.17001668594E+03  0.12509337619E+03 0.  0.
          5    1    3    3  502    0  0.68185547572E+02 -0.37301814379E+02 -0.25400744014E+02  0.81874076790E+02  0.41800000000E+01 0. -1.
         -5    1    3    3    0  502  0.43017325691E+01 -0.32073568175E+02  0.81880574429E+02  0.88142609148E+02  0.41800000000E+01 0. -1.
        -11    1    1    2    0    0 -0.52772587282E+02  0.57322785819E+02  0.14713034297E+03  0.16648779404E+03  0.00000000000E+00 0. -1.
         11    1    1    2    0    0 -0.19714692859E+02  0.12052596735E+02  0.10305945404E+03  0.10561811052E+03  0.00000000000E+00 0.  1.
</event>
<event>
 7    1  0.2820496E-009  0.1181449E+03  0.7561462E-02  0.1246189E+00
         -1   -1    0    0    0  501 -0.00000000000E+00  0.00000000000E+00  0.37742647070E+03  0.37742647070E+03  0.00000000000E+00 0.  1.
          1   -1    0    0  501    0  0.00000000000E+00 -0.00000000000E+00 -0.41078905055E+02  0.41078905055E+02  0.00000000000E+00 0. -1.
         25    2    1    2    0    0  0.47131853177E+02 -0.26875181916E+02  0.24206926055E+03  0.27781797800E+03  0.12506644238E+03 0.  0.
          5    1    3    3  502    0  0.69594632892E+02  0.28754898581E+02  0.11985804735E+03  0.14161102017E+03  0.41800000000E+01 0. -1.
         -5    1    3    3    0  502 -0.22462779716E+02 -0.55630080496E+02  0.12221121320E+03  0.13620695782E+03  0.41800000000E+01 0. -1.
        -11    1    1    2    0    0 -0.65270394411E+02 -0.34894644844E+01  0.42443265884E+02  0.77934790485E+02  0.00000000000E+00 0. -1.
         11    1    1    2    0    0  0.18138541235E+02  0.30364646400E+02  0.51835039208E+02  0.62752607268E+02  0.00000000000E+00 0.  1.
</event>
<event>
 7    1  0.2820496E-009  0.1546488E+03  0.7561462E-02  0.1194874E+00
         -1   -1    0    0    0  501 -0.00000000000E+00  0.00000000000E+00  0.34606376479E+03  0.34606376479E+03  0.00000000000E+00 0.  1.
          1   -1    0    0  501    0  0.00000000000E+00 -0.00000000000E+00 -0.13710595914E+03  0.13710595914E+03  0.00000000000E+00 0. -1.
         25    2    1    2    0    0 -0.44184325336E+02  0.11382066361E+03 -0.50732915070E+02  0.18201178541E+03  0.12508822202E+03 0.  0.
          5    1    3    3  502    0 -0.63756024789E+02  0.50623602892E+01 -0.15362343821E+02  0.65908513837E+02  0.41800000000E+01 0.  1.
         -5    1    3    3    0  502  0.19571699453E+02  0.10875830332E+03 -0.35370571249E+02  0.11610327158E+03  0.41800000000E+01 0.  1.
        -11    1    1    2    0    0  0.56981843778E+02 -0.78109554836E+02  0.23929129409E+03  0.25808594790E+03  0.00000000000E+00 0.  1.
         11    1    1    2    0    0 -0.12797518442E+02 -0.35711108772E+02  0.20399426630E+02  0.43071990607E+02  0.00000000000E+00 0. -1.
</event>
<event>
 7    1  0.2820496E-009  0.1339489E+03  0.7561462E-02  0.1221711E+00
         -2   -1    0    0    0  501 -0.00000000000E+00  0.00000000000E+00  0.86248260251E+02  0.86248260251E+02  0.00000000000E+00 0.  1.
          2   -1    0    0  501    0  0.00000000000E+00 -0.00000000000E+00 -0.75525090247E+03  0.75525090247E+03  0.00000000000E+00 0. -1.
         25    2    1    2    0    0 -0.49931133608E+02 -0.10696381771E+03 -0.17337300736E+02  0.17286406323E+03  0.12508807280E+03 0.  0.
          5    1    3    3  502    0 -0.10144368546E+02 -0.12217774753E+02 -0.59490134579E+02  0.61714915096E+02  0.41800000000E+01 0.  1.
         -5    1    3    3    0  502 -0.39786765062E+02 -0.94746042957E+02  0.42152833843E+02  0.11114914813E+03  0.41800000000E+01 0.  1.
        -11    1    1    2    0    0 -0.19653799183E+02 -0.15585588447E+01 -0.62726415046E+02  0.65751837027E+02  0.00000000000E+00 0. -1.
         11    1    1    2    0    0  0.69584932790E+02  0.10852237655E+03 -0.58893892643E+03  0.60288326246E+03  0.00000000000E+00 0.  1.
</event>
<event>
 7    1  0.2820496E-009  0.1669069E+03  0.7561462E-02  0.1181112E+00
          1   -1    0    0  501    0  0.00000000000E+00  0.00000000000E+00  0.75921854393E+03  0.75921854393E+03  0.00000000000E+00 0. -1.
         -1   -1    0    0    0  501 -0.00000000000E+00 -0.00000000000E+00 -0.43874366895E+02  0.43874366895E+02  0.00000000000E+00 0.  1.
         25    2    1    2    0    0  0.13070909400E+03  0.27197701599E+01  0.52157797875E+03  0.55207143197E+03  0.12508802370E+03 0.  0.
          5    1    3    3  502    0 -0.13046957179E+02  0.25641391179E+02  0.15353224189E+03  0.15626044200E+03  0.41800000000E+01 0. -1.
         -5    1    3    3    0  502  0.14375605118E+03 -0.22921621019E+02  0.36804573686E+03  0.39581098997E+03  0.41800000000E+01 0. -1.
        -11    1    1    2    0    0 -0.28446020968E+02  0.39330077796E+02  0.50445054274E+02  0.70005247154E+02  0.00000000000E+00 0.  1.
         11    1    1    2    0    0 -0.10226307303E+03 -0.42049847956E+02  0.14332114401E+03  0.18101623171E+03  0.00000000000E+00 0. -1.
</event>
<event>
 7    1  0.2820496E-009  0.1029602E+03  0.7561462E-02  0.1274191E+00
          1   -1    0    0  501    0  0.00000000000E+00  0.00000000000E+00  0.56223632371E+03  0.56223632371E+03  0.00000000000E+00 0. -1.
         -1   -1    0    0    0  501 -0.00000000000E+00 -0.00000000000E+00 -0.23976428430E+02  0.23976428430E+02  0.00000000000E+00 0.  1.
         25    2    1    2    0    0 -0.32570441741E+02  0.25184869045E+02  0.32998361228E+03  0.35529120998E+03  0.12509016031E+03 0.  0.
          5    1    3    3  502    0 -0.57554765732E+02 -0.18668259857E+02  0.27027936284E+03  0.27700083278E+03  0.41800000000E+01 0.  1.
         -5    1    3    3    0  502  0.24984323991E+02  0.43853128902E+02  0.59704249441E+02  0.78290377193E+02  0.41800000000E+01 0.  1.
        -11    1    1    2    0    0 -0.28312890912E+02  0.10462276840E+01  0.10024053925E+03  0.10416755778E+03  0.00000000000E+00 0. -1.
         11    1    1    2    0    0  0.60883332653E+02 -0.26231096729E+02  0.10803574374E+03  0.12675398438E+03  0.00000000000E+00 0.  1.
</event>
<event>
 7    1  0.2820496E-009  0.1008579E+03  0.7561462E-02  0.1278502E+00
         -2   -1    0    0    0  501 -0.00000000000E+00  0.00000000000E+00  0.62730670750E+02  0.62730670750E+02  0.00000000000E+00 0.  1.
          2   -1    0    0  501    0  0.00000000000E+00 -0.00000000000E+00 -0.20934529808E+03  0.20934529808E+03  0.00000000000E+00 0. -1.
         25    2    1    2    0    0  0.20437738012E+02  0.29275231028E+02 -0.10594741348E+03  0.16777016638E+03  0.12508890445E+03 0.  0.
          5    1    3    3  502    0 -0.35595960608E+02  0.45603697935E+02 -0.90088017635E+02  0.10714519587E+03  0.41800000000E+01 0.  1.
         -5    1    3    3    0  502  0.56033698620E+02 -0.16328466907E+02 -0.15859395848E+02  0.60624970509E+02  0.41800000000E+01 0.  1.
        -11    1    1    2    0    0  0.27605458534E+02  0.23132759465E+01  0.81537199628E+01  0.28877252912E+02  0.00000000000E+00 0.  1.
         11    1    1    2    0    0 -0.48043196546E+02 -0.31588506975E+02 -0.48820933809E+02  0.75428549537E+02  0.00000000000E+00 0. -1.
</event>
<event>
 7    1  0.2820496E-009  0.1139704E+03  0.7561462E-02  0.1253389E+00
          2   -1    0    0  501    0  0.00000000000E+00  0.00000000000E+00  0.11645248572E+04  0.11645248572E+04  0.00000000000E+00 0. -1.
         -2   -1    0    0    0  501 -0.00000000000E+00 -0.00000000000E+00 -0.26199396567E+02  0.26199396567E+02  0.00000000000E+00 0.  1.
         25    2    1    2    0    0 -0.69638195450E+02 -0.23466718049E+01  0.10144223458E+04  0.10244777504E+04  0.12508788994E+03 0.  0.
          5    1    3    3  502    0 -0.10177863708E+03  0.71516781790E+01  0.59511324574E+03  0.60381063681E+03  0.41800000000E+01 0.  1.
         -5    1    3    3    0  502  0.32140441627E+02 -0.94983499839E+01  0.41930910004E+03  0.42066711355E+03  0.41800000000E+01 0.  1.
        -11    1    1    2    0    0  0.79573581598E+02  0.90196745804E+01  0.57038920374E+02  0.98319620907E+02  0.00000000000E+00 0.  1.
         11    1    1    2    0    0 -0.99353861481E+01 -0.66730027755E+01  0.66864194455E+02  0.67926882484E+02  0.00000000000E+00 0. -1.
</event>
<event>
 7    1  0.2820496E-009  0.3363113E+03  0.7561462E-02  0.1068378E+00
         -2   -1    0    0    0  501 -0.00000000000E+00  0.00000000000E+00  0.25118471782E+03  0.25118471782E+03  0.00000000000E+00 0.  1.
          2   -1    0    0  501    0  0.00000000000E+00 -0.00000000000E+00 -0.73867227537E+03  0.73867227537E+03  0.00000000000E+00 0. -1.
         25    2    1    2    0    0  0.32894640405E+03 -0.10359713442E+02  0.46937055433E+02  0.35519422205E+03  0.12508712086E+03 0.  0.
          5    1    3    3  502    0  0.15010132875E+03 -0.53426851920E+02 -0.17258041272E+02  0.16031266259E+03  0.41800000000E+01 0. -1.
         -5    1    3    3    0  502  0.17884507530E+03  0.43067138478E+02  0.64195096705E+02  0.19488155946E+03  0.41800000000E+01 0. -1.
        -11    1    1    2    0    0 -0.55042319603E+02 -0.16815278840E+01 -0.35948459620E+02  0.65763030894E+02  0.00000000000E+00 0.  1.
         11    1    1    2    0    0 -0.27390408445E+03  0.12041241326E+02 -0.49847615336E+03  0.56889974024E+03  0.00000000000E+00 0. -1.
</event>
<event>
 6    1  0.2820496E-009  0.1282648E+03  0.7561462E-02  0.1230053E+00
          2   -1    0    0  501    0  0.00000000000E+00  0.00000000000E+00  0.62746182539E+03  0.62746182539E+03  0.00000000000E+00 0. -1.
         -2   -1    0    0    0  501 -0.00000000000E+00 -0.00000000000E+00 -0.30132839396E+02  0.30132839396E+02  0.00000000000E+00 0.  1.
          5    1    1    2  502    0 -0.18991961584E+02 -0.10317136952E+03  0.35014491421E+03  0.36554611124E+03  0.41800000000E+01 0. -1.
         -5    1    1    2    0  502 -0.57313171050E+01  0.36619951304E+02  0.89946606478E+02  0.97374191889E+02  0.41800000000E+01 0. -1.
        -11    1    1    2    0    0  0.15229618573E+02 -0.21130303822E+02  0.44174219885E+02  0.51281504697E+02  0.00000000000E+00 0. -1.
         11    1    1    2    0    0  0.94936601161E+01  0.87681722042E+02  0.11306324542E+03  0.14339285696E+03  0.00000000000E+00 0.  1.
</event>
<event>
 7    1  0.2820496E-009  0.1155800E+03  0.7561462E-02  0.1250572E+00
          2   -1    0    0  501    0  0.00000000000E+00  0.00000000000E+00  0.67562937809E+03  0.67562937809E+03  0.00000000000E+00 0. -1.
         -2   -1    0    0    0  501 -0.00000000000E+00 -0.00000000000E+00 -0.30507466124E+02  0.30507466124E+02  0.00000000000E+00 0.  1.
         25    2    1    2    0    0 -0.37686070699E+02  0.83286219826E+02  0.38914594716E+03  0.41885432124E+03  0.12509012708E+03 0.  0.
          5    1    3    3  502    0 -0.44825664353E+02  0.42647299321E+02  0.36628685865E+03  0.37149921608E+03  0.41800000000E+01 0. -1.
         -5    1    3    3    0  502  0.71395936539E+01  0.40638920504E+02  0.22859088502E+02  0.47355105157E+02  0.41800000000E+01 0. -1.
        -11    1    1    2    0    0 -0.68550043244E+01 -0.82848246560E+02  0.19303359766E+03  0.21017324489E+03  0.00000000000E+00 0.  1.
         11    1    1    2    0    0  0.44541075024E+02 -0.43797326553E+00  0.62942367152E+02  0.77109278090E+02  0.00000000000E+00 0. -1.
</event>
<event>
 7    1  0.3299165E-009  0.1039601E+03  0.7561462E-02  0.1272182E+00
          4   -1    0    0  501    0  0.00000000000E+00  0.00000000000E+00  0.63292315212E+03  0.63292315212E+03  0.00000000000E+00 0. -1.
         -4   -1    0    0    0  501 -0.00000000000E+00 -0.00000000000E+00 -0.19862890311E+02  0.19862890311E+02  0.00000000000E+00 0.  1.
         25    2    1    2    0    0  0.10915698055E+02 -0.87711297046E+01  0.28232597348E+03  0.30911181960E+03  0.12508427773E+03 0.  0.
          5    1    3    3  502    0  0.66746338933E+02 -0.15858054476E+02  0.13867371242E+03  0.15477216341E+03  0.41800000000E+01 0.  1.
         -5    1    3    3    0  502 -0.55830640878E+02  0.70869247714E+01  0.14365226106E+03  0.15433965618E+03  0.41800000000E+01 0.  1.
        -11    1    1    2    0    0  0.21397065427E+02 -0.27065430701E+02  0.64948014855E+02  0.73543297326E+02  0.00000000000E+00 0.  1.
         11    1    1    2    0    0 -0.32312763482E+02  0.35836560406E+02  0.26578627348E+03  0.27013092551E+03  0.00000000000E+00 0. -1.
</event>
<event>
 7    1  0.2820496E-009  0.8165426E+02  0.7561462E-02  0.1324421E+00
          3   -1    0    0  501    0  0.00000000000E+00  0.00000000000E+00  0.52785050746E+02  0.52785050746E+02  0.00000000000E+00 0. -1.
         -3   -1    0    0    0  501 -0.00000000000E+00 -0.00000000000E+00 -0.29291277276E+03  0.29291277276E+03  0.00000000000E+00 0.  1.
         25    2    1    2    0    0 -0.21879588760E+02  0.51550001932E+02 -0.10194866411E+03  0.17081367212E+03  0.12509061263E+03 0.  0.
          5    1    3    3  502    0  0.60585573038E-01  0.13929026092E+02 -0.12187408408E+03  0.12273869075E+03  0.41800000000E+01 0.  1.
         -5    1    3    3    0  502 -0.21940174333E+02  0.37620975840E+02  0.19925419970E+02  0.48074981372E+02  0.41800000000E+01 0.  1.
        -11    1    1    2    0    0  0.19976109636E+02  0.22986437721E+02 -0.25242784297E+02  0.39555270626E+02  0.00000000000E+00 0.  1.
         11    1    1    2    0    0  0.19034791240E+01 -0.74536439654E+02 -0.11293627361E+03  0.13532888075E+03  0.00000000000E+00 0. -1.
</event>
<event>
 7    1  0.2820496E-009  0.2041988E+03  0.7561462E-02  0.1146244E+00
          1   -1    0    0  501    0  0.00000000000E+00  0.00000000000E+00  0.14008269088E+04  0.14008269088E+04  0.00000000000E+00 0. -1.
         -1   -1    0    0    0  501 -0.00000000000E+00 -0.00000000000E+00 -0.31344886835E+02  0.31344886835E+02  0.00000000000E+00 0.  1.
         25    2    1    2    0    0 -0.13102315179E+03  0.11950772017E+03  0.64591574788E+03  0.68139831967E+03  0.12508938881E+03 0.  0.
          5    1    3    3  502    0 -0.67441806973E+02 -0.58385367908E+01  0.30828879006E+03  0.31566110993E+03  0.41800000000E+01 0.  1.
         -5    1    3    3    0  502 -0.63581344814E+02  0.12534625696E+03  0.33762695782E+03  0.36573720974E+03  0.41800000000E+01 0.  1.
        -11    1    1    2    0    0  0.36200121295E+02 -0.95524193080E+02  0.34844616840E+03  0.36311162543E+03  0.00000000000E+00 0.  1.
         11    1    1    2    0    0  0.94823030492E+02 -0.23983527087E+02  0.37512010566E+03  0.38766185052E+03  0.00000000000E+00 0. -1.
</event>
<event>
 7    1  0.2820496E-009  0.1290905E+03  0.7561462E-02  0.1228812E+00
         -2   -1    0    0    0  501 -0.00000000000E+00  0.00000000000E+00  0.18803513015E+02  0.18803513015E+02  0.00000000000E+00 0.  1.
          2   -1    0    0  501    0  0.00000000000E+00 -0.00000000000E+00 -0.12105545045E+04  0.12105545045E+04  0.00000000000E+00 0. -1.
         25    2    1    2    0    0  0.90471465398E+01  0.98147822219E+02 -0.79018375533E+03  0.80607277903E+03  0.12509241403E+03 0.  0.
          5    1    3    3  502    0 -0.35360044892E+02  0.10759172441E+03 -0.53914646907E+03  0.55092894228E+03  0.41800000000E+01 0.  1.
         -5    1    3    3    0  502  0.44407191432E+02 -0.94439021910E+01 -0.25103728626E+03  0.25514383675E+03  0.41800000000E+01 0.  1.
        -11    1    1    2    0    0  0.27791559637E+01 -0.25932688728E+02 -0.15490157442E+02  0.30334353959E+02  0.00000000000E+00 0.  1.
         11    1    1    2    0    0 -0.11826302503E+02 -0.72215133491E+02 -0.38607707868E+03  0.39295088448E+03  0.00000000000E+00 0. -1.
</event>
<event>
 7    1  0.2820496E-009  0.7874142E+02  0.7561462E-02  0.1332662E+00
          1   -1    0    0  501    0  0.00000000000E+00  0.00000000000E+00  0.23986114680E+03  0.23986114680E+03  0.00000000000E+00 0. -1.
         -1   -1    0    0    0  501 -0.00000000000E+00 -0.00000000000E+00 -0.79146769062E+02  0.79146769062E+02  0.00000000000E+00 0.  1.
         25    2    1    2    0    0  0.37995793653E+02  0.15745506605E+02  0.17992880216E+03  0.22296374486E+03  0.12508739488E+03 0.  0.
          5    1    3    3  502    0  0.42728980604E+02 -0.10607948206E+02  0.33863577618E+01  0.44353513586E+02  0.41800000000E+01 0. -1.
         -5    1    3    3    0  502 -0.47331869507E+01  0.26353454811E+02  0.17654244440E+03  0.17861023127E+03  0.41800000000E+01 0. -1.
        -11    1    1    2    0    0 -0.61293598800E+02 -0.93763199944E+01  0.45334476560E+01  0.62172122194E+02  0.00000000000E+00 0.  1.
         11    1    1    2    0    0  0.23297805147E+02 -0.63691866109E+01 -0.23747872077E+02  0.33872048815E+02  0.00000000000E+00 0. -1.
</event>
<event>
 7    1  0.2820496E-009  0.1526361E+03  0.7561462E-02  0.1197271E+00
         -2   -1    0    0    0  501 -0.00000000000E+00  0.00000000000E+00  0.14062237070E+03  0.14062237070E+03  0.00000000000E+00 0.  1.
          2   -1    0    0  501    0  0.00000000000E+00 -0.00000000000E+00 -0.25455681409E+03  0.25455681409E+03  0.00000000000E+00 0. -1.
         25    2    1    2    0    0  0.14148534812E+03 -0.40066595017E+02 -0.10828577854E+03  0.22134968841E+03  0.12508572642E+03 0.  0.
          5    1    3    3  502    0  0.61255887324E+02 -0.29672840217E+02  0.18713837344E+02  0.70713798417E+02  0.41800000000E+01 0. -1.
         -5    1    3    3    0  502  0.80229460799E+02 -0.10393754800E+02 -0.12699961588E+03  0.15063588999E+03  0.41800000000E+01 0. -1.
        -11    1    1    2    0    0 -0.72175660865E+02  0.47440476656E+02  0.34941686224E+02  0.93171059256E+02  0.00000000000E+00 0.  1.
         11    1    1    2    0    0 -0.69309687258E+02 -0.73738816393E+01 -0.40590351081E+02  0.80658437123E+02  0.00000000000E+00 0. -1.
</event>
<event>
 7    1  0.2820496E-009  0.1848423E+03  0.7561462E-02  0.1163197E+00
          1   -1    0    0  501    0  0.00000000000E+00  0.00000000000E+00  0.50736222587E+02  0.50736222587E+02  0.00000000000E+00 0. -1.
         -1   -1    0    0    0  501 -0.00000000000E+00 -0.00000000000E+00 -0.87431769776E+03  0.87431769776E+03  0.00000000000E+00 0.  1.
         25    2    1    2    0    0  0.10778469133E+03 -0.13484059364E+03 -0.50884670958E+03  0.55170154717E+03  0.12510035138E+03 0.  0.
          5    1    3    3  502    0  0.11342943604E+03 -0.10312359616E+03 -0.49151122163E+03  0.51488005053E+03  0.41800000000E+01 0.  1.
         -5    1    3    3    0  502 -0.56447447144E+01 -0.31716997483E+02 -0.17335487959E+02  0.36821496642E+02  0.41800000000E+01 0.  1.
        -11    1    1    2    0    0 -0.51600296546E+02  0.18804249837E+02 -0.17414450278E+03  0.18259928331E+03  0.00000000000E+00 0.  1.
         11    1    1    2    0    0 -0.56184394779E+02  0.11603634380E+03 -0.14059026281E+03  0.19075308987E+03  0.00000000000E+00 0. -1.
</event>
<event>
 7    1  0.2820496E-009  0.1410160E+03  0.7561462E-02  0.1211968E+00
         -1   -1    0    0    0  501 -0.00000000000E+00  0.00000000000E+00  0.35140541822E+02  0.35140541822E+02  0.00000000000E+00 0.  1.
          1   -1    0    0  501    0  0.00000000000E+00 -0.00000000000E+00 -0.77549181316E+03  0.77549181316E+03  0.00000000000E+00 0. -1.
         25    2    1    2    0    0 -0.98225445356E+02 -0.25502508407E+02 -0.57027919800E+03  0.59259130518E+03  0.12508986874E+03 0.  0.
          5    1    3    3  502    0  0.12146289654E+02 -0.33664957655E+02 -0.27270711008E+03  0.27507726553E+03  0.41800000000E+01 0. -1.
         -5    1    3    3    0  502 -0.11037173501E+03  0.81624492483E+01 -0.29757208792E+03  0.31751403965E+03  0.41800000000E+01 0. -1.
        -11    1    1    2    0    0  0.41189487844E+02  0.56820205138E+02 -0.73788148892E+02  0.10183221758E+03  0.00000000000E+00 0.  1.
         11    1    1    2    0    0  0.57035957512E+02 -0.31317696731E+02 -0.96283924452E+02  0.11620883222E+03  0.00000000000E+00 0. -1.
</event>
<event>
 7    1  0.2820496E-009  0.1400369E+03  0.7561462E-02  0.1213279E+00
          2   -1    0    0  501    0  0.00000000000E+00  0.00000000000E+00  0.27584648581E+03  0.27584648581E+03  0.00000000000E+00 0. -1.
         -2   -1    0    0    0  501 -0.00000000000E+00 -0.00000000000E+00 -0.85475082476E+02  0.85475082476E+02  0.00000000000E+00 0.  1.
         25    2    1    2    0    0 -0.77424865434E+02 -0.75458382121E+02  0.10977776624E+03  0.19846211086E+03  0.12508986476E+03 0.  0.
          5    1    3    3  502    0 -0.11132610807E+03 -0.56827228908E+02  0.72388099764E+02  0.14450033104E+03  0.41800000000E+01 0.  1.
         -5    1    3    3    0  502  0.33901242633E+02 -0.18631153213E+02  0.37389666479E+02  0.53961779822E+02  0.41800000000E+01 0.  1.
        -11    1    1    2    0    0  0.34958046180E+02  0.62657470176E+02  0.10174204356E+01  0.71756941866E+02  0.00000000000E+00 0.  1.
         11    1    1    2    0    0  0.42466819253E+02  0.12800911946E+02  0.79576216657E+02  0.91102515561E+02  0.00000000000E+00 0. -1.
</event>
<event>
 7    1  0.2820496E-009  0.1188992E+03  0.7561462E-02  0.1244924E+00
         -2   -1    0    0    0  501 -0.00000000000E+00  0.00000000000E+00  0.57241763161E+02  0.57241763161E+02  0.00000000000E+00 0.  1.
          2   -1    0    0  501    0  0.00000000000E+00 -0.00000000000E+00 -0.41930873086E+03  0.41930873086E+03  0.00000000000E+00 0. -1.
         25    2    1    2    0    0 -0.10288413443E+03  0.27266583385E+02 -0.15122140666E+03  0.22325455675E+03  0.12508425796E+03 0.  0.
          5    1    3    3  502    0 -0.75698803648E+02  0.79558933046E+01 -0.85847391243E+01  0.76712288832E+02  0.41800000000E+01 0.  1.
         -5    1    3    3    0  502 -0.27185330786E+02  0.19310690081E+02 -0.14263666753E+03  0.14654226792E+03  0.41800000000E+01 0.  1.
        -11    1    1    2    0    0 -0.75767115869E+01 -0.15020838035E+02 -0.22932319813E+01  0.16979135628E+02  0.00000000000E+00 0.  1.
         11    1    1    2    0    0  0.11046084602E+03 -0.12245745350E+02 -0.20855232906E+03  0.23631680164E+03  0.00000000000E+00 0. -1.
</event>
<event>
 7    1  0.2820496E-009  0.1134573E+03  0.7561462E-02  0.1254298E+00
         -1   -1    0    0    0  501 -0.00000000000E+00  0.00000000000E+00  0.26682218134E+03  0.26682218134E+03  0.00000000000E+00 0.  1.
          1   -1    0    0  501    0  0.00000000000E+00 -0.00000000000E+00 -0.69336399610E+02  0.69336399610E+02  0.00000000000E+00 0. -1.
         25    2    1    2    0    0  0.23329873492E+01  0.78513448206E+02  0.88432574055E+02  0.17216476589E+03  0.12510228647E+03 0.  0.
          5    1    3    3  502    0  0.49465871167E+02 -0.37156568257E+01  0.47610666938E+02  0.68883427051E+02  0.41800000000E+01 0.  1.
         -5    1    3    3    0  502 -0.47132883818E+02  0.82229105032E+02  0.40821907117E+02  0.10328133884E+03  0.41800000000E+01 0.  1.
        -11    1    1    2    0    0  0.10025813227E+02 -0.52667927626E+02  0.25167751654E+01  0.53672727604E+02  0.00000000000E+00 0. -1.
         11    1    1    2    0    0 -0.12358800577E+02 -0.25845520581E+02  0.10653643252E+03  0.11032108746E+03  0.00000000000E+00 0.  1.
</event>
<event>
 7    1  0.2820496E-009  0.1100906E+03  0.7561462E-02  0.1260402E+00
         -1   -1    0    0    0  501 -0.00000000000E+00  0.00000000000E+00  0.11118567687E+03  0.11118567687E+03  0.00000000000E+00 0.  1.
          1   -1    0    0  501    0  0.00000000000E+00 -0.00000000000E+00 -0.25627289313E+03  0.25627289313E+03  0.00000000000E+00 0. -1.
         25    2    1    2    0    0 -0.36396578696E+01 -0.90878190995E+02  0.22353367787E+02  0.15626703043E+03  0.12509044344E+03 0.  0.
          5    1    3    3  502    0  0.86180636340E+01 -0.74396958230E+02  0.71007743978E+02  0.10328964381E+03  0.41800000000E+01 0.  1.
         -5    1    3    3    0  502 -0.12257721504E+02 -0.16481232766E+02 -0.48654376191E+02  0.52977386614E+02  0.41800000000E+01 0.  1.
        -11    1    1    2    0    0 -0.28055333367E+02  0.88023296635E+02 -0.14615424125E+03  0.17290536347E+03  0.00000000000E+00 0. -1.
         11    1    1    2    0    0  0.31694991237E+02  0.28548943601E+01 -0.21286342796E+02  0.38286176107E+02  0.00000000000E+00 0.  1.
</event>
<event>
 7    1  0.2820496E-009  0.1108069E+03  0.7561462E-02  0.1259083E+00
          2   -1    0    0  501    0  0.00000000000E+00  0.00000000000E+00  0.35664395903E+03  0.35664395903E+03  0.00000000000E+00 0. -1.
         -2   -1    0    0    0  501 -0.00000000000E+00 -0.00000000000E+00 -0.35651017727E+02  0.35651017727E+02  0.00000000000E+00 0.  1.
         25    2    1    2    0    0  0.26915275417E+02  0.63640858336E+00  0.15798498221E+03  0.20330223091E+03  0.12509078871E+03 0.  0.
          5    1    3    3  502    0 -0.19018481118E+02 -0.52916946858E+02  0.58327433142E+02  0.81126245727E+02  0.41800000000E+01 0.  1.
         -5    1    3    3    0  502  0.45933756535E+02  0.53553355442E+02  0.99657549067E+02  0.12217598518E+03  0.41800000000E+01 0.  1.
        -11    1    1    2    0    0 -0.54810289831E+01 -0.44972116593E+02  0.63982029872E+02  0.78397915126E+02  0.00000000000E+00 0. -1.
         11    1    1    2    0    0 -0.21434246434E+02  0.44335708010E+02  0.99025929223E+02  0.11059483073E+03  0.00000000000E+00 0.  1.
</event>
<event>
 7    1  0.2820496E-009  0.1092120E+03  0.7561462E-02  0.1262036E+00
         -2   -1    0    0    0  501 -0.00000000000E+00  0.00000000000E+00  0.12702670711E+03  0.12702670711E+03  0.00000000000E+00 0.  1.
          2   -1    0    0  501    0  0.00000000000E+00 -0.00000000000E+00 -0.24423934248E+03  0.24423934248E+03  0.00000000000E+00 0. -1.
         25    2    1    2    0    0 -0.91795178906E+02 -0.21312255530E+02  0.45286859365E+02  0.16302995616E+03  0.12508916766E+03 0.  0.
          5    1    3    3  502    0 -0.23760174832E+02 -0.28098427037E+02 -0.39422689863E+02  0.54089632889E+02  0.41800000000E+01 0. -1.
         -5    1    3    3    0  502 -0.68035004074E+02  0.67861715071E+01  0.84709549228E+02  0.10894032327E+03  0.41800000000E+01 0. -1.
        -11    1    1    2    0    0  0.10055409749E+03  0.14089107069E+02 -0.16746694549E+03  0.19584383394E+03  0.00000000000E+00 0. -1.
         11    1    1    2    0    0 -0.87589185885E+01  0.72231484606E+01  0.49674507435E+01  0.12392259496E+02  0.00000000000E+00 0.  1.
</event>
<event>
 7    1  0.2820496E-009  0.1571332E+03  0.7561462E-02  0.1191972E+00
         -2   -1    0    0    0  501 -0.00000000000E+00  0.00000000000E+00  0.82522068707E+02  0.82522068707E+02  0.00000000000E+00 0.  1.
          2   -1    0    0  501    0  0.00000000000E+00 -0.00000000000E+00 -0.89163089842E+03  0.89163089842E+03  0.00000000000E+00 0. -1.
         25    2    1    2    0    0  0.21871001770E+02  0.14207342509E+03 -0.77782739671E+03  0.80082837586E+03  0.12508968650E+03 0.  0.
          5    1    3    3  502    0  0.49194478121E+02  0.10333516221E+03 -0.30809887448E+03  0.32869536243E+03  0.41800000000E+01 0. -1.
         -5    1    3    3    0  502 -0.27323476351E+02  0.38738262880E+02 -0.46972852223E+03  0.47213301343E+03  0.41800000000E+01 0. -1.
        -11    1    1    2    0    0  0.44787810964E+01 -0.11232184069E+03 -0.56949338357E+02  0.12601381875E+03  0.00000000000E+00 0.  1.
         11    1    1    2    0    0 -0.26349782866E+02 -0.29751584404E+02  0.25667905352E+02  0.47310772524E+02  0.00000000000E+00 0. -1.
</event>
<event>
 7    1  0.2820496E-009  0.1266850E+03  0.7561462E-02  0.1232459E+00
         -2   -1    0    0    0  501 -0.00000000000E+00  0.00000000000E+00  0.12339330874E+03  0.12339330874E+03  0.00000000000E+00 0.  1.
          2   -1    0    0  501    0  0.00000000000E+00 -0.00000000000E+00 -0.14687465271E+03  0.14687465271E+03  0.00000000000E+00 0. -1.
         25    2    1    2    0    0 -0.53185659540E+02  0.51428341460E+02 -0.43062831633E+02  0.15157658567E+03  0.12508982841E+03 0.  0.
          5    1    3    3  502    0 -0.63887846575E+02  0.86567760273E+02 -0.38398611987E+02  0.11431342818E+03  0.41800000000E+01 0. -1.
         -5    1    3    3    0  502  0.10702187035E+02 -0.35139418814E+02 -0.46642196457E+01  0.37263157499E+02  0.41800000000E+01 0. -1.
        -11    1    1    2    0    0  0.66013680983E+02 -0.11779862562E+02  0.33233487367E+02  0.74840068957E+02  0.00000000000E+00 0.  1.
         11    1    1    2    0    0 -0.12828021443E+02 -0.39648478898E+02 -0.13651999704E+02  0.43851306811E+02  0.00000000000E+00 0. -1.
</event>
<event>
 7    1  0.2820496E-009  0.1029270E+03  0.7561462E-02  0.1274259E+00
          4   -1    0    0  501    0  0.00000000000E+00  0.00000000000E+00  0.72141189146E+02  0.72141189146E+02  0.00000000000E+00 0. -1.
         -4   -1    0    0    0  501 -0.00000000000E+00 -0.00000000000E+00 -0.19367095289E+03  0.19367095289E+03  0.00000000000E+00 0.  1.
         25    2    1    2    0    0 -0.23008371770E+02 -0.35288942611E+02 -0.43444565130E+02  0.13894796560E+03  0.12507762495E+03 0.  0.
          5    1    3    3  502    0  0.42028803551E+02 -0.12950887813E+02  0.16962828005E+02  0.47321831716E+02  0.41800000000E+01 0. -1.
         -5    1    3    3    0  502 -0.65037175322E+02 -0.22338054798E+02 -0.60407393135E+02  0.91626133888E+02  0.41800000000E+01 0. -1.
        -11    1    1    2    0    0  0.53416953151E+02  0.12708520499E+02 -0.21920489179E+02  0.59121782983E+02  0.00000000000E+00 0.  1.
         11    1    1    2    0    0 -0.30408581381E+02  0.22580422111E+02 -0.56164709437E+02  0.67742393451E+02  0.00000000000E+00 0. -1.
</event>
<event>
 7    1  0.2820496E-009  0.1003648E+03  0.7561462E-02  0.1279531E+00
         -2   -1    0    0    0  501 -0.00000000000E+00  0.00000000000E+00  0.40998462056E+02  0.40998462056E+02  0.00000000000E+00 0. -1.
          2   -1    0    0  501    0  0.00000000000E+00 -0.00000000000E+00 -0.58580141330E+03  0.58580141330E+03  0.00000000000E+00 0.  1.
         25    2    1    2    0    0  0.44281377645E+02  0.57050578220E+02 -0.46250159786E+03  0.48453194078E+03  0.12509142549E+03 0.  0.
          5    1    3    3  502    0 -0.20805948825E+02  0.38273736714E+02 -0.49842962807E+02  0.66329177365E+02  0.41800000000E+01 0. -1.
         -5    1    3    3    0  502  0.65087326470E+02  0.18776841506E+02 -0.41265863506E+03  0.41820276342E+03  0.41800000000E+01 0. -1.
        -11    1    1    2    0    0  0.12065694301E+02 -0.10929463890E+02 -0.65561671575E+02  0.67552697501E+02  0.00000000000E+00 0.  1.
         11    1    1    2    0    0 -0.56347071946E+02 -0.46121114330E+02 -0.16739681808E+02  0.74715237074E+02  0.00000000000E+00 0. -1.
</event>
<event>
 7    1  0.2820496E-009  0.9797871E+02  0.7561462E-02  0.1284605E+00
         -1   -1    0    0    0  501 -0.00000000000E+00  0.00000000000E+00  0.26449193636E+03  0.26449193636E+03  0.00000000000E+00 0.  1.
          1   -1    0    0  501    0  0.00000000000E+00 -0.00000000000E+00 -0.83900390547E+02  0.83900390547E+02  0.00000000000E+00 0. -1.
         25    2    1    2    0    0 -0.41533849921E+02  0.47058262340E+02  0.19020784389E+03  0.23614888950E+03  0.12509090052E+03 0.  0.
          5    1    3    3  502    0  0.16269714036E+02  0.15054637277E+02  0.16303079670E+03  0.16458389585E+03  0.41800000000E+01 0. -1.
         -5    1    3    3    0  502 -0.57803563957E+02  0.32003625063E+02  0.27177047189E+02  0.71564993658E+02  0.41800000000E+01 0. -1.
        -11    1    1    2    0    0  0.60996295624E+02 -0.54229285191E+01 -0.21276372522E+02  0.64827773842E+02  0.00000000000E+00 0. -1.
         11    1    1    2    0    0 -0.19462445703E+02 -0.41635333821E+02  0.11660074445E+02  0.47415663564E+02  0.00000000000E+00 0.  1.
</event>
<event>
 7    1  0.2820496E-009  0.1079496E+03  0.7561462E-02  0.1264415E+00
         -2   -1    0    0    0  501 -0.00000000000E+00  0.00000000000E+00  0.34912243428E+03  0.34912243428E+03  0.00000000000E+00 0. -1.
          2   -1    0    0  501    0  0.00000000000E+00 -0.00000000000E+00 -0.46914583142E+02  0.46914583142E+02  0.00000000000E+00 0.  1.
         25    2    1    2    0    0  0.20622668719E+00 -0.39150615299E+02  0.24756915463E+03  0.28012670238E+03  0.12509064655E+03 0.  0.
          5    1    3    3  502    0  0.26289533792E+02  0.29744179225E+02  0.28722987966E+02  0.49176602388E+02  0.41800000000E+01 0.  1.
         -5    1    3    3    0  502 -0.26083307105E+02 -0.68894794523E+02  0.21884616667E+03  0.23095009999E+03  0.41800000000E+01 0.  1.
        -11    1    1    2    0    0  0.46420033234E+02  0.28157625939E+02  0.30361171376E+02  0.62205081073E+02  0.00000000000E+00 0. -1.
         11    1    1    2    0    0 -0.46626259921E+02  0.10992989360E+02  0.24277525130E+02  0.53705233970E+02  0.00000000000E+00 0.  1.
</event>
<event>
 7    1  0.2820496E-009  0.4064501E+03  0.7561462E-02  0.1041569E+00
          1   -1    0    0  501    0  0.00000000000E+00  0.00000000000E+00  0.56198619291E+03  0.56198619291E+03  0.00000000000E+00 0. -1.
         -1   -1    0    0    0  501 -0.00000000000E+00 -0.00000000000E+00 -0.69348506639E+03  0.69348506639E+03  0.00000000000E+00 0.  1.
         25    2    1    2    0    0 -0.39183915292E+03 -0.81720474627E+02  0.40285560157E+03  0.58151196408E+03  0.12508945166E+03 0.  0.
          5    1    3    3  502    0 -0.37594659245E+01  0.73744421016E+01  0.45628089350E+02  0.46560830299E+02  0.41800000000E+01 0. -1.
         -5    1    3    3    0  502 -0.38807968700E+03 -0.89094916729E+02  0.35722751222E+03  0.53495113378E+03  0.41800000000E+01 0. -1.
        -11    1    1    2    0    0  0.63631767154E+02  0.38542558893E+02 -0.14444471422E+03  0.16247709408E+03  0.00000000000E+00 0.  1.
         11    1    1    2    0    0  0.32820738577E+03  0.43177915734E+02 -0.38990976084E+03  0.51148220114E+03  0.00000000000E+00 0. -1.
</event>
<event>
 7    1  0.2820496E-009  0.1406273E+03  0.7561462E-02  0.1212487E+00
         -1   -1    0    0    0  501 -0.00000000000E+00  0.00000000000E+00  0.26847256942E+03  0.26847256942E+03  0.00000000000E+00 0.  1.
          1   -1    0    0  501    0  0.00000000000E+00 -0.00000000000E+00 -0.81345156307E+02  0.81345156307E+02  0.00000000000E+00 0. -1.
         25    2    1    2    0    0  0.23974650323E+02  0.94094672252E+02  0.13055281899E+03  0.20523471897E+03  0.12509460468E+03 0.  0.
          5    1    3    3  502    0 -0.47507552612E+02  0.12279816753E+02  0.47469479805E+02  0.68400185435E+02  0.41800000000E+01 0.  1.
         -5    1    3    3    0  502  0.71482202934E+02  0.81814855499E+02  0.83083339183E+02  0.13683453353E+03  0.41800000000E+01 0.  1.
        -11    1    1    2    0    0  0.21971413713E+02 -0.65689787434E+02  0.58302947394E+02  0.90537974732E+02  0.00000000000E+00 0.  1.
         11    1    1    2    0    0 -0.45946064035E+02 -0.28404884818E+02 -0.17283532707E+01  0.54045032028E+02  0.00000000000E+00 0. -1.
</event>
<event>
 7    1  0.2820496E-009  0.2830647E+03  0.7561462E-02  0.1094027E+00
          1   -1    0    0  501    0  0.00000000000E+00  0.00000000000E+00  0.66234741687E+02  0.66234741687E+02  0.00000000000E+00 0. -1.
         -1   -1    0    0    0  501 -0.00000000000E+00 -0.00000000000E+00 -0.12275181597E+04  0.12275181597E+04  0.00000000000E+00 0.  1.
         25    2    1    2    0    0  0.17072563295E+03 -0.19911358587E+03 -0.54240294951E+03  0.61533958631E+03  0.12509350510E+03 0.  0.
          5    1    3    3  502    0  0.89289103275E+01  0.17558929961E+02 -0.38237057494E+02  0.43215580834E+02  0.41800000000E+01 0.  1.
         -5    1    3    3    0  502  0.16179672262E+03 -0.21667251584E+03 -0.50416589202E+03  0.57212400548E+03  0.41800000000E+01 0.  1.
        -11    1    1    2    0    0 -0.94488642105E+02  0.47309128581E+02 -0.19561717099E+03  0.22233383620E+03  0.00000000000E+00 0. -1.
         11    1    1    2    0    0 -0.76236990845E+02  0.15180445729E+03 -0.42326329749E+03  0.45607947885E+03  0.00000000000E+00 0.  1.
</event>
<event>
 7    1  0.2820496E-009  0.1094559E+03  0.7561462E-02  0.1261581E+00
          2   -1    0    0  501    0  0.00000000000E+00  0.00000000000E+00  0.58049319401E+03  0.58049319401E+03  0.00000000000E+00 0. -1.
         -2   -1    0    0    0  501 -0.00000000000E+00 -0.00000000000E+00 -0.24568277103E+02  0.24568277103E+02  0.00000000000E+00 0.  1.
         25    2    1    2    0    0 -0.21763222408E+02  0.44009260039E+02  0.31457383805E+03  0.34207429695E+03  0.12509065604E+03 0.  0.
          5    1    3    3  502    0 -0.58614148358E+02  0.59236599455E+02  0.26765685211E+03  0.28036093876E+03  0.41800000000E+01 0.  1.
         -5    1    3    3    0  502  0.36850925950E+02 -0.15227339416E+02  0.46916985942E+02  0.61713358189E+02  0.41800000000E+01 0.  1.
        -11    1    1    2    0    0 -0.22881390501E+02 -0.45264211295E+02  0.18059251853E+03  0.18757948876E+03  0.00000000000E+00 0. -1.
         11    1    1    2    0    0  0.44644612909E+02  0.12549512560E+01  0.60758560332E+02  0.75407685404E+02  0.00000000000E+00 0.  1.
</event>
<event>
 7    1  0.2820496E-009  0.9381839E+02  0.7561462E-02  0.1293860E+00
          2   -1    0    0  501    0  0.00000000000E+00  0.00000000000E+00  0.47629922525E+03  0.47629922525E+03  0.00000000000E+00 0. -1.
         -2   -1    0    0    0  501 -0.00000000000E+00 -0.00000000000E+00 -0.26848824745E+02  0.26848824745E+02  0.00000000000E+00 0.  1.
         25    2    1    2    0    0 -0.34731333217E+02 -0.70209864204E+01  0.28121622450E+03  0.30981750402E+03  0.12509500836E+03 0.  0.
          5    1    3    3  502    0 -0.24266344313E+02  0.48556904928E+02  0.58162707576E+02  0.79668070362E+02  0.41800000000E+01 0. -1.
         -5    1    3    3    0  502 -0.10464988904E+02 -0.55577891349E+02  0.22305351693E+03  0.23014943366E+03  0.41800000000E+01 0. -1.
        -11    1    1    2    0    0 -0.74161033398E+01  0.28310147588E+02  0.14799849840E+02  0.32794795326E+02  0.00000000000E+00 0.  1.
         11    1    1    2    0    0  0.42147436557E+02 -0.21289161168E+02  0.15343432616E+03  0.16053575065E+03  0.00000000000E+00 0. -1.
</event>
<event>
 7    1  0.2820496E-009  0.1209508E+03  0.7561462E-02  0.1241537E+00
         -1   -1    0    0    0  501 -0.00000000000E+00  0.00000000000E+00  0.62166557577E+03  0.62166557577E+03  0.00000000000E+00 0.  1.
          1   -1    0    0  501    0  0.00000000000E+00 -0.00000000000E+00 -0.32897590303E+02  0.32897590303E+02  0.00000000000E+00 0. -1.
         25    2    1    2    0    0  0.47094670683E+02 -0.64371035951E+02  0.21073918367E+03  0.25772346276E+03  0.12509532943E+03 0.  0.
          5    1    3    3  502    0 -0.33441600550E+02  0.11734020060E+02  0.35412494012E+02  0.50274695487E+02  0.41800000000E+01 0.  1.
         -5    1    3    3    0  502  0.80536271233E+02 -0.76105056011E+02  0.17532668966E+03  0.20744876727E+03  0.41800000000E+01 0.  1.
        -11    1    1    2    0    0  0.36790394867E+01  0.37885338741E+02  0.45072876282E+02  0.58994901469E+02  0.00000000000E+00 0. -1.
         11    1    1    2    0    0 -0.50773710170E+02  0.26485697210E+02  0.33295592551E+03  0.33784480184E+03  0.00000000000E+00 0.  1.
</event>
<event>
 7    1  0.2820496E-009  0.1112215E+03  0.7561462E-02  0.1258324E+00
          2   -1    0    0  501    0  0.00000000000E+00  0.00000000000E+00  0.30116512688E+03  0.30116512688E+03  0.00000000000E+00 0. -1.
         -2   -1    0    0    0  501 -0.00000000000E+00 -0.00000000000E+00 -0.62258115961E+02  0.62258115961E+02  0.00000000000E+00 0.  1.
         25    2    1    2    0    0 -0.63403329129E+02  0.19682683033E+02  0.62736318561E+02  0.15489086171E+03  0.12509173922E+03 0.  0.
          5    1    3    3  502    0 -0.73547096009E+02  0.45256891828E+02  0.83479856980E+02  0.12018203073E+03  0.41800000000E+01 0.  1.
         -5    1    3    3    0  502  0.10143766880E+02 -0.25574208795E+02 -0.20743538419E+02  0.34708830982E+02  0.41800000000E+01 0.  1.
        -11    1    1    2    0    0  0.19977054937E+02 -0.50896977652E+02  0.63384422380E+02  0.83708840982E+02  0.00000000000E+00 0.  1.
         11    1    1    2    0    0  0.43426274192E+02  0.31214294619E+02  0.11278626998E+03  0.12482354015E+03  0.00000000000E+00 0. -1.
</event>
<event>
 7    1  0.2820496E-009  0.1998021E+03  0.7561462E-02  0.1149906E+00
         -1   -1    0    0    0  501 -0.00000000000E+00  0.00000000000E+00  0.81973519740E+03  0.81973519740E+03  0.00000000000E+00 0.  1.
          1   -1    0    0  501    0  0.00000000000E+00 -0.00000000000E+00 -0.64122077559E+02  0.64122077559E+02  0.00000000000E+00 0. -1.
         25    2    1    2    0    0 -0.18679514723E+03  0.52916544592E+02  0.49827504107E+03  0.54919791585E+03  0.12509095292E+03 0.  0.
          5    1    3    3  502    0 -0.62368501839E+02  0.25105128345E+02  0.33651114303E+03  0.34318700336E+03  0.41800000000E+01 0. -1.
         -5    1    3    3    0  502 -0.12442664539E+03  0.27811416247E+02  0.16176389803E+03  0.20601091249E+03  0.41800000000E+01 0. -1.
        -11    1    1    2    0    0  0.84324229047E+02 -0.57567408013E+02  0.79670998625E+02  0.12950694997E+03  0.00000000000E+00 0. -1.
         11    1    1    2    0    0  0.10247091819E+03  0.46508634201E+01  0.17766708015E+03  0.20515240914E+03  0.00000000000E+00 0.  1.
</event>
<event>
 7    1  0.2820496E-009  0.8444932E+02  0.7561462E-02  0.1316879E+00
         -3   -1    0    0    0  501 -0.00000000000E+00  0.00000000000E+00  0.92220192153E+03  0.92220192153E+03  0.00000000000E+00 0.  1.
          3   -1    0    0  501    0  0.00000000000E+00 -0.00000000000E+00 -0.25793459212E+02  0.25793459212E+02  0.00000000000E+00 0. -1.
         25    2    1    2    0    0 -0.30854091326E+01  0.36414584357E+01  0.81440685633E+03  0.82397147272E+03  0.12509068809E+03 0.  0.
          5    1    3    3  502    0  0.39078587874E+02  0.59921244033E+01  0.90806723247E+02  0.99128073581E+02  0.41800000000E+01 0. -1.
         -5    1    3    3    0  502 -0.42163997007E+02 -0.23506659676E+01  0.72360013308E+03  0.72484339914E+03  0.41800000000E+01 0. -1.
        -11    1    1    2    0    0  0.44845061380E+02 -0.82597831668E+00  0.64718060524E+02  0.78741279698E+02  0.00000000000E+00 0.  1.
         11    1    1    2    0    0 -0.41759652248E+02 -0.28154801191E+01  0.17283545459E+02  0.45282628322E+02  0.00000000000E+00 0. -1.
</event>
<event>
 7    1  0.3026962E-009  0.1184819E+03  0.7561462E-02  0.1245623E+00
         -2   -1    0    0    0  501 -0.00000000000E+00  0.00000000000E+00  0.46286721645E+02  0.46286721645E+02  0.00000000000E+00 0.  1.
          2   -1    0    0  501    0  0.00000000000E+00 -0.00000000000E+00 -0.65179876821E+03  0.65179876821E+03  0.00000000000E+00 0. -1.
         25    2    1    2    0    0 -0.83358955271E+02  0.83741233023E+02 -0.45308927579E+03  0.48466420232E+03  0.12509271621E+03 0.  0.
          5    1    3    3  502    0 -0.55505658178E+02  0.60977880088E+02 -0.99805128334E+02  0.12952882301E+03  0.41800000000E+01 0. -1.
         -5    1    3    3    0  502 -0.27853297093E+02  0.22763352936E+02 -0.35328414745E+03  0.35513537931E+03  0.41800000000E+01 0. -1.
        -11    1    1    2    0    0  0.44577907068E+02 -0.42936226532E+02 -0.13250980697E+02  0.63295322393E+02  0.00000000000E+00 0.  1.
         11    1    1    2    0    0  0.38781048203E+02 -0.40805006491E+02 -0.13917179009E+03  0.15012596514E+03  0.00000000000E+00 0. -1.
</event>
<event>
 7    1  0.2820496E-009  0.1191071E+03  0.7561462E-02  0.1244577E+00
         -1   -1    0    0    0  501 -0.00000000000E+00  0.00000000000E+00  0.57017538180E+02  0.57017538180E+02  0.00000000000E+00 0.  1.
          1   -1    0    0  501    0  0.00000000000E+00 -0.00000000000E+00 -0.47690011336E+03  0.47690011336E+03  0.00000000000E+00 0. -1.
         25    2    1    2    0    0 -0.41222357024E+02  0.10669470011E+03 -0.30806540995E+03  0.35161770351E+03  0.12509065059E+03 0.  0.
          5    1    3    3  502    0 -0.25684658722E+02  0.10414498778E+03 -0.11295152348E+03  0.15582489926E+03  0.41800000000E+01 0.  1.
         -5    1    3    3    0  502 -0.15537698302E+02  0.25497123283E+01 -0.19511388647E+03  0.19579280425E+03  0.41800000000E+01 0.  1.
        -11    1    1    2    0    0  0.29442487000E+02 -0.67306064415E+02 -0.12118029723E+02  0.74456786072E+02  0.00000000000E+00 0.  1.
         11    1    1    2    0    0  0.11779870024E+02 -0.39388635698E+02 -0.99699135513E+02  0.10784316196E+03  0.00000000000E+00 0. -1.
</event>
<event>
 7    1  0.2820496E-009  0.1952064E+03  0.7561462E-02  0.1153848E+00
         -2   -1    0    0    0  501 -0.00000000000E+00  0.00000000000E+00  0.26293267345E+03  0.26293267345E+03  0.00000000000E+00 0.  1.
          2   -1    0    0  501    0  0.00000000000E+00 -0.00000000000E+00 -0.18819438602E+03  0.18819438602E+03  0.00000000000E+00 0. -1.
         25    2    1    2    0    0  0.13241003372E+03 -0.14093310764E+03  0.50800104284E+02  0.23584516714E+03  0.12509090458E+03 0.  0.
          5    1    3    3  502    0  0.11851570038E+03 -0.10598002492E+03 -0.15195025104E+02  0.15976888967E+03  0.41800000000E+01 0.  1.
         -5    1    3    3    0  502  0.13894333342E+02 -0.34953082722E+02  0.65995129388E+02  0.76076277470E+02  0.41800000000E+01 0.  1.
        -11    1    1    2    0    0 -0.37678346801E+02  0.35243947966E+02  0.49002663610E+02  0.71155145469E+02  0.00000000000E+00 0.  1.
         11    1    1    2    0    0 -0.94731686920E+02  0.10568915968E+03 -0.25064480464E+02  0.14412674686E+03  0.00000000000E+00 0. -1.
</event>
<event>
 7    1  0.2820496E-009  0.1338636E+03  0.7561462E-02  0.1221833E+00
          2   -1    0    0  501    0  0.00000000000E+00  0.00000000000E+00  0.65324431014E+03  0.65324431014E+03  0.00000000000E+00 0. -1.
         -2   -1    0    0    0  501 -0.00000000000E+00 -0.00000000000E+00 -0.42415037585E+02  0.42415037585E+02  0.00000000000E+00 0.  1.
         25    2    1    2    0    0 -0.75731934095E+02  0.98025730730E+02  0.27480199143E+03  0.32636833558E+03  0.12512308439E+03 0.  0.
          5    1    3    3  502    0 -0.51295226181E+02  0.64067059360E+02  0.27209713270E+03  0.28423601170E+03  0.41800000000E+01 0. -1.
         -5    1    3    3    0  502 -0.24436707913E+02  0.33958671370E+02  0.27048587326E+01  0.42132323881E+02  0.41800000000E+01 0. -1.
        -11    1    1    2    0    0  0.14157691933E+01  0.11257202456E+02  0.41720632174E+01  0.12088636029E+02  0.00000000000E+00 0.  1.
         11    1    1    2    0    0  0.74316164901E+02 -0.10928293319E+03  0.33185521791E+03  0.35720237612E+03  0.00000000000E+00 0. -1.
</event>
<event>
 7    1  0.2820496E-009  0.1752228E+03  0.7561462E-02  0.1172508E+00
         -4   -1    0    0    0  501 -0.00000000000E+00  0.00000000000E+00  0.59642749576E+02  0.59642749576E+02  0.00000000000E+00 0.  1.
          4   -1    0    0  501    0  0.00000000000E+00 -0.00000000000E+00 -0.68242152462E+03  0.68242152462E+03  0.00000000000E+00 0. -1.
         25    2    1    2    0    0  0.15058231646E+03  0.62606505037E+02 -0.40908797066E+03  0.45781549361E+03  0.12508976755E+03 0.  0.
          5    1    3    3  502    0 -0.92382515141E+01  0.18188876698E+02 -0.56350646453E+01  0.21573290897E+02  0.41800000000E+01 0.  1.
         -5    1    3    3    0  502  0.15982056798E+03  0.44417628339E+02 -0.40345290602E+03  0.43624220272E+03  0.41800000000E+01 0.  1.
        -11    1    1    2    0    0 -0.37054173022E+02 -0.22146395328E+02 -0.13140820732E+03  0.13831699648E+03  0.00000000000E+00 0.  1.
         11    1    1    2    0    0 -0.11352814344E+03 -0.40460109709E+02 -0.82282597053E+02  0.14593178409E+03  0.00000000000E+00 0. -1.
</event>
<event>
 7    1  0.2820496E-009  0.1127941E+03  0.7561462E-02  0.1255481E+00
         -1   -1    0    0    0  501 -0.00000000000E+00  0.00000000000E+00  0.23319009687E+02  0.23319009687E+02  0.00000000000E+00 0.  1.
          1   -1    0    0  501    0  0.00000000000E+00 -0.00000000000E+00 -0.65419994869E+03  0.65419994869E+03  0.00000000000E+00 0. -1.
         25    2    1    2    0    0  0.47861004212E+02 -0.44030014181E+02 -0.28418229942E+03  0.31723218104E+03  0.12508940606E+03 0.  0.
          5    1    3    3  502    0  0.77330217703E+02 -0.65482838512E+02 -0.17766915484E+03  0.20457704097E+03  0.41800000000E+01 0.  1.
         -5    1    3    3    0  502 -0.29469213491E+02  0.21452824331E+02 -0.10651314458E+03  0.11265514007E+03  0.41800000000E+01 0.  1.
        -11    1    1    2    0    0 -0.20792130700E+02  0.54597796346E+02 -0.29720845458E+03  0.30289618278E+03  0.00000000000E+00 0. -1.
         11    1    1    2    0    0 -0.27068873512E+02 -0.10567782166E+02 -0.49490184997E+02  0.57390594562E+02  0.00000000000E+00 0.  1.
</event>
<event>
 7    1  0.2820496E-009  0.9047385E+02  0.7561462E-02  0.1301708E+00
         -1   -1    0    0    0  501 -0.00000000000E+00  0.00000000000E+00  0.61365816618E+03  0.61365816618E+03  0.00000000000E+00 0.  1.
          1   -1    0    0  501    0  0.00000000000E+00 -0.00000000000E+00 -0.28322998763E+02  0.28322998763E+02  0.00000000000E+00 0. -1.
         25    2    1    2    0    0 -0.13096625945E+02  0.76263755261E+02  0.40021862242E+03  0.42639214615E+03  0.12509050559E+03 0.  0.
          5    1    3    3  502    0  0.17703029452E+02  0.56797287501E+02  0.37972521531E+03  0.38438007319E+03  0.41800000000E+01 0. -1.
         -5    1    3    3    0  502 -0.30799655397E+02  0.19466467760E+02  0.20493407106E+02  0.42012072960E+02  0.41800000000E+01 0. -1.
        -11    1    1    2    0    0 -0.11746764117E+02 -0.27595719885E+02  0.14430351583E+03  0.14738729560E+03  0.00000000000E+00 0.  1.
         11    1    1    2    0    0  0.24843390062E+02 -0.48668035377E+02  0.40813029170E+02  0.68201723198E+02  0.00000000000E+00 0. -1.
</event>
<event>
 7    1  0.2820496E-009  0.1667311E+03  0.7561462E-02  0.1181300E+00
          1   -1    0    0  501    0  0.00000000000E+00  0.00000000000E+00  0.80361693413E+02  0.80361693413E+02  0.00000000000E+00 0. -1.
         -1   -1    0    0    0  501 -0.00000000000E+00 -0.00000000000E+00 -0.44512674794E+03  0.44512674794E+03  0.00000000000E+00 0.  1.
         25    2    1    2    0    0 -0.17381250954E+02 -0.14157768687E+03 -0.10714448350E+03  0.21787793919E+03  0.12507800262E+03 0.  0.
          5    1    3    3  502    0  0.53626688099E+02 -0.67200743389E+02 -0.39387486949E+02  0.94660488677E+02  0.41800000000E+01 0.  1.
         -5    1    3    3    0  502 -0.71007939053E+02 -0.74376943483E+02 -0.67756996547E+02  0.12321745052E+03  0.41800000000E+01 0.  1.
        -11    1    1    2    0    0  0.22546309020E+02  0.96569499812E+02 -0.23876509904E+03  0.25853970075E+03  0.00000000000E+00 0.  1.
         11    1    1    2    0    0 -0.51650580657E+01  0.45008187060E+02 -0.18855471995E+02  0.49070801414E+02  0.00000000000E+00 0. -1.
</event>
<event>
 7    1  0.2820496E-009  0.1713468E+03  0.7561462E-02  0.1176451E+00
          1   -1    0    0  501    0  0.00000000000E+00  0.00000000000E+00  0.12489509392E+04  0.12489509392E+04  0.00000000000E+00 0. -1.
         -1   -1    0    0    0  501 -0.00000000000E+00 -0.00000000000E+00 -0.25984834337E+02  0.25984834337E+02  0.00000000000E+00 0.  1.
         25    2    1    2    0    0 -0.13823022585E+03 -0.30764033404E+02  0.55581002226E+03  0.58704879873E+03  0.12508992830E+03 0.  0.
          5    1    3    3  502    0 -0.15796077802E+03 -0.22604819960E+02  0.41632618452E+03  0.44587840225E+03  0.41800000000E+01 0. -1.
         -5    1    3    3    0  502  0.19730552168E+02 -0.81592134437E+01  0.13948383774E+03  0.14117039648E+03  0.41800000000E+01 0. -1.
        -11    1    1    2    0    0  0.30533118310E+02  0.43198689673E+02  0.31532634997E+03  0.31973286520E+03  0.00000000000E+00 0.  1.
         11    1    1    2    0    0  0.10769710754E+03 -0.12434656269E+02  0.35182973259E+03  0.36815410956E+03  0.00000000000E+00 0. -1.
</event>
<event>
 7    1  0.2820496E-009  0.1439633E+03  0.7561462E-02  0.1208093E+00
         -2   -1    0    0    0  501 -0.00000000000E+00  0.00000000000E+00  0.36628739527E+02  0.36628739527E+02  0.00000000000E+00 0.  1.
          2   -1    0    0  501    0  0.00000000000E+00 -0.00000000000E+00 -0.62789428780E+03  0.62789428780E+03  0.00000000000E+00 0. -1.
         25    2    1    2    0    0 -0.98759538465E+02 -0.38031740510E+02 -0.31303075193E+03  0.35332051736E+03  0.12508907472E+03 0.  0.
          5    1    3    3  502    0  0.17387670151E+02 -0.26986836293E+02 -0.20411092242E+02  0.38271471005E+02  0.41800000000E+01 0.  1.
         -5    1    3    3    0  502 -0.11614720862E+03 -0.11044904217E+02 -0.29261965968E+03  0.31504904636E+03  0.41800000000E+01 0.  1.
        -11    1    1    2    0    0  0.26252216651E+02 -0.29662029672E+02 -0.66936712569E+02  0.77778778423E+02  0.00000000000E+00 0.  1.
         11    1    1    2    0    0  0.72507321813E+02  0.67693770182E+02 -0.21129808378E+03  0.23342373154E+03  0.00000000000E+00 0. -1.
</event>
<event>
 7    1  0.2820496E-009  0.1462027E+03  0.7561462E-02  0.1205218E+00
          1   -1    0    0  501    0  0.00000000000E+00  0.00000000000E+00  0.17396859626E+04  0.17396859626E+04  0.00000000000E+00 0. -1.
         -1   -1    0    0    0  501 -0.00000000000E+00 -0.00000000000E+00 -0.24355193792E+02  0.24355193792E+02  0.00000000000E+00 0.  1.
         25    2    1    2    0    0  0.12020550627E+03  0.23834090751E+02  0.14160904657E+04  0.14268756377E+04  0.12507777874E+03 0.  0.
          5    1    3    3  502    0 -0.65899030721E+01 -0.89447012821E+01  0.12708820283E+02  0.17390256367E+02  0.41800000000E+01 0. -1.
         -5    1    3    3    0  502  0.12679540934E+03  0.32778792034E+02  0.14033816454E+04  0.14094853813E+04  0.41800000000E+01 0. -1.
        -11    1    1    2    0    0  0.78212395405E+01  0.13972237654E+02  0.10748037916E+02  0.19285111668E+02  0.00000000000E+00 0.  1.
         11    1    1    2    0    0 -0.12802674581E+03 -0.37806328405E+02  0.28849226524E+03  0.31788040709E+03  0.00000000000E+00 0. -1.
</event>
<event>
 7    1  0.2820496E-009  0.1193220E+03  0.7561462E-02  0.1244220E+00
         -4   -1    0    0    0  501 -0.00000000000E+00  0.00000000000E+00  0.62971234364E+02  0.62971234364E+02  0.00000000000E+00 0.  1.
          4   -1    0    0  501    0  0.00000000000E+00 -0.00000000000E+00 -0.30401782750E+03  0.30401782750E+03  0.00000000000E+00 0. -1.
         25    2    1    2    0    0 -0.48369683226E+02  0.76372900517E+02 -0.14703235687E+03  0.21314536132E+03  0.12505992522E+03 0.  0.
          5    1    3    3  502    0  0.20268410959E+02 -0.18138015982E+02 -0.30382520127E+01  0.27685727043E+02  0.41800000000E+01 0. -1.
         -5    1    3    3    0  502 -0.68638094185E+02  0.94510916499E+02 -0.14399410486E+03  0.18545963428E+03  0.41800000000E+01 0. -1.
        -11    1    1    2    0    0 -0.51216530264E-01 -0.19716965962E+02 -0.74131413637E+02  0.76708720871E+02  0.00000000000E+00 0. -1.
         11    1    1    2    0    0  0.48420899756E+02 -0.56655934555E+02 -0.19882822623E+02  0.77134979672E+02  0.00000000000E+00 0.  1.
</event>
<event>
 7    1  0.2820496E-009  0.1847815E+03  0.7561462E-02  0.1163254E+00
          2   -1    0    0  501    0  0.00000000000E+00  0.00000000000E+00  0.12405739765E+04  0.12405739765E+04  0.00000000000E+00 0. -1.
         -2   -1    0    0    0  501 -0.00000000000E+00 -0.00000000000E+00 -0.30835276090E+02  0.30835276090E+02  0.00000000000E+00 0.  1.
         25    2    1    2    0    0  0.14342301593E+03 -0.47164556742E+02  0.84065773889E+03  0.86321975575E+03  0.12509298879E+03 0.  0.
          5    1    3    3  502    0  0.10439255745E+03 -0.89598265950E+02  0.62247089810E+03  0.63750540915E+03  0.41800000000E+01 0. -1.
         -5    1    3    3    0  502  0.39030458472E+02  0.42433709208E+02  0.21818684079E+03  0.22571434660E+03  0.41800000000E+01 0. -1.
        -11    1    1    2    0    0 -0.28650167250E+02 -0.25439391105E+02  0.72862376158E+02  0.82322053927E+02  0.00000000000E+00 0. -1.
         11    1    1    2    0    0 -0.11477284868E+03  0.72603947847E+02  0.29621858531E+03  0.32586744287E+03  0.00000000000E+00 0.  1.
</event>
<event>
 7    1  0.2820496E-009  0.1072808E+03  0.7561462E-02  0.1265690E+00
          2   -1    0    0  501    0  0.00000000000E+00  0.00000000000E+00  0.20109777054E+03  0.20109777054E+03  0.00000000000E+00 0. -1.
         -2   -1    0    0    0  501 -0.00000000000E+00 -0.00000000000E+00 -0.19056378989E+03  0.19056378989E+03  0.00000000000E+00 0.  1.
         25    2    1    2    0    0 -0.44444983820E+02 -0.61630594826E+02 -0.13813772103E+03  0.20125446186E+03  0.12509053378E+03 0.  0.
          5    1    3    3  502    0  0.31956125690E+02 -0.48959342849E+02 -0.24175136490E+02  0.63404422919E+02  0.41800000000E+01 0. -1.
         -5    1    3    3    0  502 -0.76401109510E+02 -0.12671251977E+02 -0.11396258454E+03  0.13785003894E+03  0.41800000000E+01 0. -1.
        -11    1    1    2    0    0  0.35194989710E+02  0.32793838859E+02  0.10871588008E+02  0.49318501535E+02  0.00000000000E+00 0.  1.
         11    1    1    2    0    0  0.92499941104E+01  0.28836755967E+02  0.13780011367E+03  0.14108859704E+03  0.00000000000E+00 0. -1.
</event>
<event>
 7    1  0.2820496E-009  0.8930811E+02  0.7561462E-02  0.1304536E+00
         -2   -1    0    0    0  501 -0.00000000000E+00  0.00000000000E+00  0.20665362258E+03  0.20665362258E+03  0.00000000000E+00 0.  1.
          2   -1    0    0  501    0  0.00000000000E+00 -0.00000000000E+00 -0.87301667447E+02  0.87301667447E+02  0.00000000000E+00 0. -1.
         25    2    1    2    0    0  0.49003371524E+02  0.14435645031E+01 -0.87035045446E+00  0.13436035532E+03  0.12509409767E+03 0.  0.
          5    1    3    3  502    0 -0.12408185279E+02  0.17934766124E+02  0.48767167626E+02  0.53584773361E+02  0.41800000000E+01 0. -1.
         -5    1    3    3    0  502  0.61411556804E+02 -0.16491201621E+02 -0.49637518080E+02  0.80775581961E+02  0.41800000000E+01 0. -1.
        -11    1    1    2    0    0 -0.70834090873E+02 -0.16817499641E+01  0.51788442175E+02  0.87762973147E+02  0.00000000000E+00 0.  1.
         11    1    1    2    0    0  0.21830719349E+02  0.23818546102E+00  0.68433863413E+02  0.71831961558E+02  0.00000000000E+00 0. -1.
</event>
<event>
 7    1  0.2820496E-009  0.1078157E+03  0.7561462E-02  0.1264669E+00
         -2   -1    0    0    0  501 -0.00000000000E+00  0.00000000000E+00  0.21146792302E+02  0.21146792302E+02  0.00000000000E+00 0. -1.
          2   -1    0    0  501    0  0.00000000000E+00 -0.00000000000E+00 -0.63395858567E+03  0.63395858567E+03  0.00000000000E+00 0.  1.
         25    2    1    2    0    0 -0.16339783891E+02  0.35214755305E+02 -0.29984939277E+03  0.32720633502E+03  0.12508900753E+03 0.  0.
          5    1    3    3  502    0 -0.65436599018E+02  0.98312645488E+01 -0.10133179515E+03  0.12109586021E+03  0.41800000000E+01 0. -1.
         -5    1    3    3    0  502  0.49096815127E+02  0.25383490756E+02 -0.19851759763E+03  0.20611047481E+03  0.41800000000E+01 0. -1.
        -11    1    1    2    0    0  0.34948009494E+01  0.28596357554E+02 -0.14355099600E+03  0.14641329773E+03  0.00000000000E+00 0. -1.
         11    1    1    2    0    0  0.12844982942E+02 -0.63811112859E+02 -0.16941140459E+03  0.18148574521E+03  0.00000000000E+00 0.  1.
</event>
<event>
 7    1  0.4227109E-009  0.7978685E+02  0.7561462E-02  0.1329657E+00
         -1   -1    0    0    0  501 -0.00000000000E+00  0.00000000000E+00  0.68759001446E+02  0.68759001446E+02  0.00000000000E+00 0.  1.
          1   -1    0    0  501    0  0.00000000000E+00 -0.00000000000E+00 -0.25533551265E+03  0.25533551265E+03  0.00000000000E+00 0. -1.
         25    2    1    2    0    0  0.27053412047E+02 -0.16250531979E+01 -0.16975663077E+02  0.12911386091E+03  0.12509071924E+03 0.  0.
          5    1    3    3  502    0  0.54426289948E+02  0.13150780822E+02  0.36598546304E+02  0.67023056222E+02  0.41800000000E+01 0.  1.
         -5    1    3    3    0  502 -0.27372877901E+02 -0.14775834020E+02 -0.53574209381E+02  0.62090804685E+02  0.41800000000E+01 0.  1.
        -11    1    1    2    0    0 -0.47894357173E+02 -0.88642462468E+01 -0.39238404562E+02  0.62546756136E+02  0.00000000000E+00 0.  1.
         11    1    1    2    0    0  0.20840945126E+02  0.10489299445E+02 -0.13036244357E+03  0.13243389705E+03  0.00000000000E+00 0. -1.
</event>
<event>
 7    1  0.2820496E-009  0.1328794E+03  0.7561462E-02  0.1223245E+00
         -1   -1    0    0    0  501 -0.00000000000E+00  0.00000000000E+00  0.77698452170E+02  0.77698452170E+02  0.00000000000E+00 0.  1.
          1   -1    0    0  501    0  0.00000000000E+00 -0.00000000000E+00 -0.35944619817E+03  0.35944619817E+03  0.00000000000E+00 0. -1.
         25    2    1    2    0    0 -0.96798781570E+02 -0.48872395111E+02 -0.64142653571E+02  0.17754030520E+03  0.12509102625E+03 0.  0.
          5    1    3    3  502    0 -0.11716675507E+02  0.15873260487E+02  0.29242206701E+02  0.35522104895E+02  0.41800000000E+01 0.  1.
         -5    1    3    3    0  502 -0.85082106063E+02 -0.64745655598E+02 -0.93384860272E+02  0.14201820031E+03  0.41800000000E+01 0.  1.
        -11    1    1    2    0    0  0.11285593400E+03  0.37520519637E+02 -0.20236678595E+03  0.23472657985E+03  0.00000000000E+00 0. -1.
         11    1    1    2    0    0 -0.16057152435E+02  0.11351875474E+02 -0.15238306475E+02  0.24877765280E+02  0.00000000000E+00 0.  1.
</event>
<event>
 7    1  0.2820496E-009  0.1214256E+03  0.7561462E-02  0.1240764E+00
         -2   -1    0    0    0  501 -0.00000000000E+00  0.00000000000E+00  0.23062519098E+02  0.23062519098E+02  0.00000000000E+00 0.  1.
          2   -1    0    0  501    0  0.00000000000E+00 -0.00000000000E+00 -0.69784182077E+03  0.69784182077E+03  0.00000000000E+00 0. -1.
         25    2    1    2    0    0 -0.31279271393E+02 -0.56385279394E+02 -0.40854909933E+03  0.43210885538E+03  0.12509198127E+03 0.  0.
          5    1    3    3  502    0  0.26706961335E+02 -0.74946855180E+02 -0.23589268414E+03  0.24898418366E+03  0.41800000000E+01 0. -1.
         -5    1    3    3    0  502 -0.57986232728E+02  0.18561575786E+02 -0.17265641520E+03  0.18312467172E+03  0.41800000000E+01 0. -1.
        -11    1    1    2    0    0  0.16118205845E+02 -0.19194837613E+02 -0.24413464054E+02  0.34989363781E+02  0.00000000000E+00 0.  1.
         11    1    1    2    0    0  0.15161065548E+02  0.75580117007E+02 -0.24181673828E+03  0.25380612071E+03  0.00000000000E+00 0. -1.
</event>
<event>
 7    1  0.2820496E-009  0.4057103E+03  0.7561462E-02  0.1041820E+00
          2   -1    0    0  501    0  0.00000000000E+00  0.00000000000E+00  0.29551210937E+03  0.29551210937E+03  0.00000000000E+00 0.  1.
         -2   -1    0    0    0  501 -0.00000000000E+00 -0.00000000000E+00 -0.71248907694E+03  0.71248907694E+03  0.00000000000E+00 0. -1.
         25    2    1    2    0    0 -0.31134411142E+03  0.25627367597E+03 -0.41825054448E+03  0.59430008365E+03  0.12509084203E+03 0.  0.
          5    1    3    3  502    0 -0.28148279812E+03  0.23105657918E+03 -0.41877887615E+03  0.55498912415E+03  0.41800000000E+01 0. -1.
         -5    1    3    3    0  502 -0.29861313295E+02  0.25217096792E+02  0.52833166641E+00  0.39310959498E+02  0.41800000000E+01 0. -1.
        -11    1    1    2    0    0  0.14493401182E+03 -0.15908724122E+03  0.35075971243E+02  0.21804802650E+03  0.00000000000E+00 0.  1.
         11    1    1    2    0    0  0.16641009960E+03 -0.97186434753E+02 -0.33802394330E+02  0.19565307616E+03  0.00000000000E+00 0. -1.
</event>
<event>
 7    1  0.2820496E-009  0.1632041E+03  0.7561462E-02  0.1185126E+00
         -2   -1    0    0    0  501 -0.00000000000E+00  0.00000000000E+00  0.17448337057E+03  0.17448337057E+03  0.00000000000E+00 0.  1.
          2   -1    0    0  501    0  0.00000000000E+00 -0.00000000000E+00 -0.17895164723E+03  0.17895164723E+03  0.00000000000E+00 0. -1.
         25    2    1    2    0    0  0.74142192635E+02 -0.11689946028E+03  0.18176975636E+02  0.18745938094E+03  0.12509224004E+03 0.  0.
          5    1    3    3  502    0 -0.11487650998E+02 -0.95010144737E+02 -0.52221676394E+01  0.95935588617E+02  0.41800000000E+01 0.  1.
         -5    1    3    3    0  502  0.85629843633E+02 -0.21889315545E+02  0.23399143275E+02  0.91523792326E+02  0.41800000000E+01 0.  1.
        -11    1    1    2    0    0 -0.27273278262E+02  0.72948557759E+02  0.29445010460E+02  0.83260629515E+02  0.00000000000E+00 0.  1.
         11    1    1    2    0    0 -0.46868914372E+02  0.43950902523E+02 -0.52090262753E+02  0.82715007349E+02  0.00000000000E+00 0. -1.
</event>
<event>
 7    1  0.2820496E-009  0.1327388E+03  0.7561462E-02  0.1223448E+00
         -1   -1    0    0    0  501 -0.00000000000E+00  0.00000000000E+00  0.80402339942E+02  0.80402339942E+02  0.00000000000E+00 0.  1.
          1   -1    0    0  501    0  0.00000000000E+00 -0.00000000000E+00 -0.29861235716E+03  0.29861235716E+03  0.00000000000E+00 0. -1.
         25    2    1    2    0    0  0.10349136409E+03 -0.13542202610E+02 -0.78305548874E+02  0.18075576967E+03  0.12508811132E+03 0.  0.
          5    1    3    3  502    0  0.61025906542E+02  0.45189420262E+02 -0.76888287026E+02  0.10814585547E+03  0.41800000000E+01 0.  1.
         -5    1    3    3    0  502  0.42465457544E+02 -0.58731622872E+02 -0.14172618482E+01  0.72609914204E+02  0.41800000000E+01 0.  1.
        -11    1    1    2    0    0 -0.34620316282E+02 -0.20258830822E+02 -0.10793204471E+03  0.11514474717E+03  0.00000000000E+00 0. -1.
         11    1    1    2    0    0 -0.68871047804E+02  0.33801033432E+02 -0.31972423627E+02  0.83114180254E+02  0.00000000000E+00 0.  1.
</event>
<event>
 7    1  0.2820496E-009  0.1201449E+03  0.7561462E-02  0.1242858E+00
         -1   -1    0    0    0  501 -0.00000000000E+00  0.00000000000E+00  0.51698343315E+02  0.51698343315E+02  0.00000000000E+00 0.  1.
          1   -1    0    0  501    0  0.00000000000E+00 -0.00000000000E+00 -0.43834670934E+03  0.43834670934E+03  0.00000000000E+00 0. -1.
         25    2    1    2    0    0  0.56202100718E+02  0.33147501180E+02 -0.93059548497E+02  0.16901329851E+03  0.12509189641E+03 0.  0.
          5    1    3    3  502    0 -0.32262920780E+02  0.32229074234E+02 -0.85307418306E+01  0.46581704986E+02  0.41800000000E+01 0. -1.
         -5    1    3    3    0  502  0.88465021498E+02  0.91842694546E+00 -0.84528806666E+02  0.12243159353E+03  0.41800000000E+01 0. -1.
        -11    1    1    2    0    0  0.15392166063E+02 -0.30640470038E+02 -0.23414240450E+02  0.41520884337E+02  0.00000000000E+00 0.  1.
         11    1    1    2    0    0 -0.71594266781E+02 -0.25070311416E+01 -0.27017457707E+03  0.27951086980E+03  0.00000000000E+00 0. -1.
</event>
<event>
 7    1  0.2820496E-009  0.7036584E+02  0.7561462E-02  0.1358853E+00
         -2   -1    0    0    0  501 -0.00000000000E+00  0.00000000000E+00  0.19666402152E+02  0.19666402152E+02  0.00000000000E+00 0.  1.
          2   -1    0    0  501    0  0.00000000000E+00 -0.00000000000E+00 -0.69533616090E+03  0.69533616090E+03  0.00000000000E+00 0. -1.
         25    2    1    2    0    0 -0.23972724198E+02 -0.19513300532E+02 -0.29883102454E+03  0.32542613667E+03  0.12508688500E+03 0.  0.
          5    1    3    3  502    0  0.92466358162E+01  0.24037304764E+01 -0.28170589610E+03  0.28189885153E+03  0.41800000000E+01 0. -1.
         -5    1    3    3    0  502 -0.33219360014E+02 -0.21917031009E+02 -0.17125128435E+02  0.43527285143E+02  0.41800000000E+01 0. -1.
        -11    1    1    2    0    0 -0.67106320834E+01 -0.30708513064E+02 -0.64623782124E+02  0.71862915148E+02  0.00000000000E+00 0.  1.
         11    1    1    2    0    0  0.30683356282E+02  0.50221813596E+02 -0.31221495209E+03  0.31771351123E+03  0.00000000000E+00 0. -1.
</event>
<event>
 7    1  0.2820496E-009  0.1085534E+03  0.7561462E-02  0.1263273E+00
         -2   -1    0    0    0  501 -0.00000000000E+00  0.00000000000E+00  0.12847583518E+02  0.12847583518E+02  0.00000000000E+00 0. -1.
          2   -1    0    0  501    0  0.00000000000E+00 -0.00000000000E+00 -0.14954142955E+04  0.14954142955E+04  0.00000000000E+00 0.  1.
         25    2    1    2    0    0  0.28194321266E+01 -0.64766421996E+02 -0.11151863576E+04  0.11240513468E+04  0.12509268380E+03 0.  0.
          5    1    3    3  502    0  0.60125642645E+02 -0.43135499738E+02 -0.75923248038E+03  0.76284152739E+03  0.41800000000E+01 0.  1.
         -5    1    3    3    0  502 -0.57306210518E+02 -0.21630922258E+02 -0.35595387721E+03  0.36120981945E+03  0.41800000000E+01 0.  1.
        -11    1    1    2    0    0  0.13051147721E+02 -0.17894353395E+01 -0.30642099508E+01  0.13524936905E+02  0.00000000000E+00 0. -1.
         11    1    1    2    0    0 -0.15870579848E+02  0.66555857335E+02 -0.36431614445E+03  0.37068559530E+03  0.00000000000E+00 0.  1.
</event>
<event>
 6    1  0.2820496E-009  0.8252445E+02  0.7561462E-02  0.1322036E+00
          1   -1    0    0  501    0  0.00000000000E+00  0.00000000000E+00  0.51707070825E+03  0.51707070825E+03  0.00000000000E+00 0. -1.
         -1   -1    0    0    0  501 -0.00000000000E+00 -0.00000000000E+00 -0.25463900041E+02  0.25463900041E+02  0.00000000000E+00 0.  1.
          5    1    1    2  502    0  0.46107282919E+02  0.16980411574E+02  0.25223570425E+03  0.25701077568E+03  0.41800000000E+01 0. -1.
         -5    1    1    2    0  502 -0.18186275153E+02 -0.33539758875E+02  0.17568448323E+02  0.42211121826E+02  0.41800000000E+01 0. -1.
        -11    1    1    2    0    0  0.20413590635E+02  0.20411280362E+02  0.18451521054E+02  0.34260672467E+02  0.00000000000E+00 0.  1.
         11    1    1    2    0    0 -0.48334598402E+02 -0.38519330607E+01  0.20335113458E+03  0.20905203832E+03  0.00000000000E+00 0. -1.
</event>
<event>
 7    1  0.2820496E-009  0.9542239E+02  0.7561462E-02  0.1290228E+00
          1   -1    0    0  501    0  0.00000000000E+00  0.00000000000E+00  0.20500077715E+04  0.20500077715E+04  0.00000000000E+00 0. -1.
         -1   -1    0    0    0  501 -0.00000000000E+00 -0.00000000000E+00 -0.11230102926E+02  0.11230102926E+02  0.00000000000E+00 0.  1.
         25    2    1    2    0    0 -0.58399474033E+02  0.16870138683E+02  0.16674367684E+04  0.16732272322E+04  0.12509553840E+03 0.  0.
          5    1    3    3  502    0 -0.62972853297E+02 -0.18951879103E+02  0.40972092109E+03  0.41498609561E+03  0.41800000000E+01 0.  1.
         -5    1    3    3    0  502  0.45733792641E+01  0.35822017786E+02  0.12577158474E+04  0.12582411366E+04  0.41800000000E+01 0.  1.
        -11    1    1    2    0    0  0.14975382199E+02  0.24438310611E+02  0.30164248220E+02  0.41609794138E+02  0.00000000000E+00 0.  1.
         11    1    1    2    0    0  0.43424091835E+02 -0.41308449295E+02  0.34117665188E+03  0.34640084804E+03  0.00000000000E+00 0. -1.
</event>
<event>
 7    1  0.2820496E-009  0.9989663E+02  0.7561462E-02  0.1280513E+00
         -1   -1    0    0    0  501 -0.00000000000E+00  0.00000000000E+00  0.26765356130E+03  0.26765356130E+03  0.00000000000E+00 0.  1.
          1   -1    0    0  501    0  0.00000000000E+00 -0.00000000000E+00 -0.98703655415E+02  0.98703655415E+02  0.00000000000E+00 0. -1.
         25    2    1    2    0    0 -0.47373801365E+02 -0.17664739424E+01  0.21554643553E+03  0.25368329181E+03  0.12509016422E+03 0.  0.
          5    1    3    3  502    0 -0.47021773164E+02  0.40960577067E+02  0.42969585395E+02  0.75846382209E+02  0.41800000000E+01 0.  1.
         -5    1    3    3    0  502 -0.35202820047E+00 -0.42727051010E+02  0.17257685014E+03  0.17783690960E+03  0.41800000000E+01 0.  1.
        -11    1    1    2    0    0  0.17547239798E+02 -0.39628273638E+02 -0.43736724716E+02  0.61572776330E+02  0.00000000000E+00 0. -1.
         11    1    1    2    0    0  0.29826561567E+02  0.41394747581E+02 -0.28598049277E+01  0.51101148582E+02  0.00000000000E+00 0.  1.
</event>
<event>
 7    1  0.2820496E-009  0.1006522E+03  0.7561462E-02  0.1278930E+00
          2   -1    0    0  501    0  0.00000000000E+00  0.00000000000E+00  0.24024086111E+03  0.24024086111E+03  0.00000000000E+00 0. -1.
         -2   -1    0    0    0  501 -0.00000000000E+00 -0.00000000000E+00 -0.51967422522E+02  0.51967422522E+02  0.00000000000E+00 0.  1.
         25    2    1    2    0    0 -0.22308944077E+01  0.12003191602E+02  0.13785545625E+03  0.18653594679E+03  0.12506989697E+03 0.  0.
          5    1    3    3  502    0 -0.14280126603E+02  0.64482474389E+02  0.10242793121E+03  0.12194615620E+03  0.41800000000E+01 0.  1.
         -5    1    3    3    0  502  0.12049232195E+02 -0.52479282787E+02  0.35427525034E+02  0.64589790589E+02  0.41800000000E+01 0.  1.
        -11    1    1    2    0    0  0.27280437381E+02  0.24621961262E+02 -0.22341307605E+01  0.36816498751E+02  0.00000000000E+00 0.  1.
         11    1    1    2    0    0 -0.25049542973E+02 -0.36625152863E+02  0.52652113104E+02  0.68855838095E+02  0.00000000000E+00 0. -1.
</event>
<event>
 7    1  0.2820496E-009  0.1238732E+03  0.7561462E-02  0.1236841E+00
         -2   -1    0    0    0  501 -0.00000000000E+00  0.00000000000E+00  0.48712573668E+02  0.48712573668E+02  0.00000000000E+00 0.  1.
          2   -1    0    0  501    0  0.00000000000E+00 -0.00000000000E+00 -0.41899187947E+03  0.41899187947E+03  0.00000000000E+00 0. -1.
         25    2    1    2    0    0 -0.64444858265E+02 -0.68014928458E+02 -0.18126002877E+03  0.23933725769E+03  0.12509178485E+03 0.  0.
          5    1    3    3  502    0 -0.92789201287E+02 -0.16850736540E+02 -0.87292866966E+02  0.12857410400E+03  0.41800000000E+01 0. -1.
         -5    1    3    3    0  502  0.28344343022E+02 -0.51164191917E+02 -0.93967161807E+02  0.11076315368E+03  0.41800000000E+01 0. -1.
        -11    1    1    2    0    0  0.17276908487E+02  0.27757088489E+02 -0.36470123703E+01  0.32897541359E+02  0.00000000000E+00 0.  1.
         11    1    1    2    0    0  0.47167949778E+02  0.40257839969E+02 -0.18537226466E+03  0.19546965409E+03  0.00000000000E+00 0. -1.
</event>
<event>
 7    1  0.2820496E-009  0.1184930E+03  0.7561462E-02  0.1245604E+00
          3   -1    0    0  501    0  0.00000000000E+00  0.00000000000E+00  0.29088068613E+03  0.29088068613E+03  0.00000000000E+00 0. -1.
         -3   -1    0    0    0  501 -0.00000000000E+00 -0.00000000000E+00 -0.78440302523E+02  0.78440302523E+02  0.00000000000E+00 0.  1.
         25    2    1    2    0    0 -0.97020764593E+00  0.92671423625E+02  0.54111683766E+02  0.16481397319E+03  0.12508651958E+03 0.  0.
          5    1    3    3  502    0 -0.26899823315E+02  0.59620518887E+02 -0.28941822379E+02  0.71647109148E+02  0.41800000000E+01 0.  1.
         -5    1    3    3    0  502  0.25929615669E+02  0.33050904738E+02  0.83053506145E+02  0.93166864044E+02  0.41800000000E+01 0.  1.
        -11    1    1    2    0    0 -0.42659522098E+02 -0.64373950014E+02  0.88815556642E+02  0.11769470408E+03  0.00000000000E+00 0.  1.
         11    1    1    2    0    0  0.43629729743E+02 -0.28297473612E+02  0.69513143196E+02  0.86812311381E+02  0.00000000000E+00 0. -1.
</event>
<event>
 7    1  0.2820496E-009  0.9095968E+02  0.7561462E-02  0.1300544E+00
          1   -1    0    0  501    0  0.00000000000E+00  0.00000000000E+00  0.46027660716E+02  0.46027660716E+02  0.00000000000E+00 0. -1.
         -1   -1    0    0    0  501 -0.00000000000E+00 -0.00000000000E+00 -0.32794672367E+03  0.32794672367E+03  0.00000000000E+00 0.  1.
         25    2    1    2    0    0  0.39596595920E+02 -0.41461246254E+02 -0.17512948342E+03  0.22272110367E+03  0.12508968266E+03 0.  0.
          5    1    3    3  502    0  0.44607318534E+02 -0.10018694771E+02 -0.12762547395E+01  0.45926989210E+02  0.41800000000E+01 0. -1.
         -5    1    3    3    0  502 -0.50107226141E+01 -0.31442551483E+02 -0.17385322868E+03  0.17679411446E+03  0.41800000000E+01 0. -1.
        -11    1    1    2    0    0 -0.58976050751E+02  0.94330763318E+00 -0.41961664253E+02  0.72386778201E+02  0.00000000000E+00 0.  1.
         11    1    1    2    0    0  0.19379454831E+02  0.40517938621E+02 -0.64827915285E+02  0.78866502520E+02  0.00000000000E+00 0. -1.
</event>
<event>
 7    1  0.2820496E-009  0.9308079E+02  0.7561462E-02  0.1295558E+00
         -2   -1    0    0    0  501 -0.00000000000E+00  0.00000000000E+00  0.11449454549E+03  0.11449454549E+03  0.00000000000E+00 0.  1.
          2   -1    0    0  501    0  0.00000000000E+00 -0.00000000000E+00 -0.11888476500E+03  0.11888476500E+03  0.00000000000E+00 0. -1.
         25    2    1    2    0    0 -0.22787682025E+02  0.32722103910E+02 -0.17425166912E+02  0.13244194399E+03  0.12508883863E+03 0.  0.
          5    1    3    3  502    0  0.13870626489E+02  0.69366992921E+02  0.13214512723E+02  0.72085156118E+02  0.41800000000E+01 0. -1.
         -5    1    3    3    0  502 -0.36658308514E+02 -0.36644889011E+02 -0.30639679635E+02  0.60356787869E+02  0.41800000000E+01 0. -1.
        -11    1    1    2    0    0  0.13120089984E+02  0.11855280861E+02 -0.32175495896E+02  0.36714397470E+02  0.00000000000E+00 0. -1.
         11    1    1    2    0    0  0.96675920415E+01 -0.44577384771E+02  0.45210443300E+02  0.64222969039E+02  0.00000000000E+00 0.  1.
</event>
<event>
 7    1  0.2820496E-009  0.1215722E+03  0.7561462E-02  0.1240526E+00
          1   -1    0    0  501    0  0.00000000000E+00  0.00000000000E+00  0.41561784945E+03  0.41561784945E+03  0.00000000000E+00 0. -1.
         -1   -1    0    0    0  501 -0.00000000000E+00 -0.00000000000E+00 -0.57677417114E+02  0.57677417114E+02  0.00000000000E+00 0.  1.
         25    2    1    2    0    0 -0.91599581771E+02 -0.50023383143E+02  0.24896613745E+03  0.29752623083E+03  0.12507956745E+03 0.  0.
          5    1    3    3  502    0 -0.30548107368E+02  0.26594936962E+02  0.16008456361E+03  0.16518177091E+03  0.41800000000E+01 0. -1.
         -5    1    3    3    0  502 -0.61051474403E+02 -0.76618320105E+02  0.88881573843E+02  0.13234445992E+03  0.41800000000E+01 0. -1.
        -11    1    1    2    0    0  0.52377574179E+02  0.28348030545E+02  0.11601264304E+03  0.13040688041E+03  0.00000000000E+00 0. -1.
         11    1    1    2    0    0  0.39222007592E+02  0.21675352598E+02 -0.70383481670E+01  0.45362155314E+02  0.00000000000E+00 0.  1.
</event>
<event>
 7    1  0.2820496E-009  0.1245702E+03  0.7561462E-02  0.1235743E+00
         -1   -1    0    0    0  501 -0.00000000000E+00  0.00000000000E+00  0.23125129817E+02  0.23125129817E+02  0.00000000000E+00 0.  1.
          1   -1    0    0  501    0  0.00000000000E+00 -0.00000000000E+00 -0.88378827788E+03  0.88378827788E+03  0.00000000000E+00 0. -1.
         25    2    1    2    0    0  0.25524454720E+02 -0.80795062591E+02 -0.35338063216E+03  0.38431948236E+03  0.12507698991E+03 0.  0.
          5    1    3    3  502    0  0.73289290306E+02 -0.60912703679E+02 -0.26717785681E+03  0.28369553595E+03  0.41800000000E+01 0.  1.
         -5    1    3    3    0  502 -0.47764835586E+02 -0.19882358912E+02 -0.86202775347E+02  0.10062394641E+03  0.41800000000E+01 0.  1.
        -11    1    1    2    0    0 -0.13927366963E+02  0.87397198181E+02 -0.49921775661E+03  0.50700158808E+03  0.00000000000E+00 0. -1.
         11    1    1    2    0    0 -0.11597087757E+02 -0.66021355905E+01 -0.80647592921E+01  0.15592337260E+02  0.00000000000E+00 0.  1.
</event>
<event>
 7    1  0.2820496E-009  0.1742403E+03  0.7561462E-02  0.1173497E+00
          2   -1    0    0  501    0  0.00000000000E+00  0.00000000000E+00  0.18747910833E+04  0.18747910833E+04  0.00000000000E+00 0. -1.
         -2   -1    0    0    0  501 -0.00000000000E+00 -0.00000000000E+00 -0.23680297392E+02  0.23680297392E+02  0.00000000000E+00 0.  1.
         25    2    1    2    0    0  0.14932339806E+03  0.25584338617E+02  0.14020502059E+04  0.14157483370E+04  0.12508612374E+03 0.  0.
          5    1    3    3  502    0  0.14434539987E+03 -0.18929501733E+02  0.90241678404E+03  0.91409378350E+03  0.41800000000E+01 0.  1.
         -5    1    3    3    0  502  0.49779981894E+01  0.44513840350E+02  0.49963342184E+03  0.50165455352E+03  0.41800000000E+01 0.  1.
        -11    1    1    2    0    0 -0.84977811790E+02 -0.36683519429E+02  0.14720258727E+03  0.17388361278E+03  0.00000000000E+00 0. -1.
         11    1    1    2    0    0 -0.64345586269E+02  0.11099180812E+02  0.30185799278E+03  0.30883943092E+03  0.00000000000E+00 0.  1.
</event>
<event>
 7    1  0.2820496E-009  0.1045258E+03  0.7561462E-02  0.1271057E+00
          2   -1    0    0  501    0  0.00000000000E+00  0.00000000000E+00  0.24202200036E+02  0.24202200036E+02  0.00000000000E+00 0. -1.
         -2   -1    0    0    0  501 -0.00000000000E+00 -0.00000000000E+00 -0.49956355658E+03  0.49956355658E+03  0.00000000000E+00 0.  1.
         25    2    1    2    0    0 -0.12977296253E+02 -0.61666361223E+01 -0.22010537433E+03  0.25357411191E+03  0.12508803622E+03 0.  0.
          5    1    3    3  502    0 -0.29120182060E+02 -0.61394003572E+02 -0.12512369149E+03  0.14244514470E+03  0.41800000000E+01 0. -1.
         -5    1    3    3    0  502  0.16142885806E+02  0.55227367450E+02 -0.94981682837E+02  0.11112896721E+03  0.41800000000E+01 0. -1.
        -11    1    1    2    0    0  0.18187930079E+02  0.42683194285E+02 -0.94725909208E+02  0.10547821458E+03  0.00000000000E+00 0.  1.
         11    1    1    2    0    0 -0.52106338262E+01 -0.36516558162E+02 -0.16053007301E+03  0.16471343013E+03  0.00000000000E+00 0. -1.
</event>
<event>
 7    1  0.3500623E-009  0.8866682E+02  0.7561462E-02  0.1306113E+00
         -2   -1    0    0    0  501 -0.00000000000E+00  0.00000000000E+00  0.30467979530E+02  0.30467979530E+02  0.00000000000E+00 0.  1.
          2   -1    0    0  501    0  0.00000000000E+00 -0.00000000000E+00 -0.40307111673E+03  0.40307111673E+03  0.00000000000E+00 0. -1.
         25    2    1    2    0    0  0.13909314220E+02  0.14516233344E+02 -0.18834049706E+03  0.22696802989E+03  0.12505260375E+03 0.  0.
          5    1    3    3  502    0  0.59062567664E+02  0.53702328165E+01 -0.16452592781E+03  0.17493850239E+03  0.41800000000E+01 0.  1.
         -5    1    3    3    0  502 -0.45153253443E+02  0.91460005277E+01 -0.23814569255E+02  0.52029527492E+02  0.41800000000E+01 0.  1.
        -11    1    1    2    0    0 -0.36066521589E+02  0.11114765846E+02 -0.28839197009E+02  0.47497697665E+02  0.00000000000E+00 0.  1.
         11    1    1    2    0    0  0.22157207369E+02 -0.25630999190E+02 -0.15542344313E+03  0.15907336871E+03  0.00000000000E+00 0. -1.
</event>
<event>
 7    1  0.2820496E-009  0.1287328E+03  0.7561462E-02  0.1229348E+00
         -1   -1    0    0    0  501 -0.00000000000E+00  0.00000000000E+00  0.43555529524E+02  0.43555529524E+02  0.00000000000E+00 0.  1.
          1   -1    0    0  501    0  0.00000000000E+00 -0.00000000000E+00 -0.51860898123E+03  0.51860898123E+03  0.00000000000E+00 0. -1.
         25    2    1    2    0    0  0.88193115345E+02 -0.44483825580E+02 -0.31235522671E+03  0.35067288458E+03  0.12509535560E+03 0.  0.
          5    1    3    3  502    0  0.11854548654E+03 -0.26424975045E+02 -0.26418272073E+03  0.29079424688E+03  0.41800000000E+01 0. -1.
         -5    1    3    3    0  502 -0.30352371198E+02 -0.18058850535E+02 -0.48172505979E+02  0.59878637696E+02  0.41800000000E+01 0. -1.
        -11    1    1    2    0    0 -0.61471734350E+02  0.39837341409E+02 -0.16851959502E+03  0.18375157632E+03  0.00000000000E+00 0. -1.
         11    1    1    2    0    0 -0.26721380996E+02  0.46464841715E+01  0.58213700194E+01  0.27740049863E+02  0.00000000000E+00 0.  1.
</event>
<event>
 7    1  0.2820496E-009  0.1117276E+03  0.7561462E-02  0.1257404E+00
          1   -1    0    0  501    0  0.00000000000E+00  0.00000000000E+00  0.11967816786E+03  0.11967816786E+03  0.00000000000E+00 0. -1.
         -1   -1    0    0    0  501 -0.00000000000E+00 -0.00000000000E+00 -0.46160379938E+03  0.46160379938E+03  0.00000000000E+00 0.  1.
         25    2    1    2    0    0  0.25597530930E+02 -0.51180381597E+02 -0.42519786652E+03  0.44689447796E+03  0.12508710441E+03 0.  0.
          5    1    3    3  502    0 -0.48895148986E+02 -0.70325432092E+01 -0.18513686986E+03  0.19165939904E+03  0.41800000000E+01 0. -1.
         -5    1    3    3    0  502  0.74492679916E+02 -0.44147838388E+02 -0.24006099666E+03  0.25523507892E+03  0.41800000000E+01 0. -1.
        -11    1    1    2    0    0 -0.37503028968E+02  0.61099601904E+02  0.91974875594E+02  0.11661482013E+03  0.00000000000E+00 0. -1.
         11    1    1    2    0    0  0.11905498038E+02 -0.99192203066E+01 -0.87026405969E+01  0.17772669141E+02  0.00000000000E+00 0.  1.
</event>
<event>
 7    1  0.2820496E-009  0.1260603E+03  0.7561462E-02  0.1233421E+00
         -1   -1    0    0    0  501 -0.00000000000E+00  0.00000000000E+00  0.11670017145E+03  0.11670017145E+03  0.00000000000E+00 0.  1.
          1   -1    0    0  501    0  0.00000000000E+00 -0.00000000000E+00 -0.29661538383E+03  0.29661538383E+03  0.00000000000E+00 0. -1.
         25    2    1    2    0    0  0.96521415507E+02 -0.62222693012E+02 -0.20441988285E+03  0.26574640029E+03  0.12508242715E+03 0.  0.
          5    1    3    3  502    0  0.25670595609E+01 -0.26536021972E+02 -0.14794658044E+03  0.15038754377E+03  0.41800000000E+01 0. -1.
         -5    1    3    3    0  502  0.93954355946E+02 -0.35686671040E+02 -0.56473302408E+02  0.11535885651E+03  0.41800000000E+01 0. -1.
        -11    1    1    2    0    0 -0.50585208758E+02  0.45151877639E+01  0.48280744591E+02  0.70073394123E+02  0.00000000000E+00 0.  1.
         11    1    1    2    0    0 -0.45936206749E+02  0.57707505248E+02 -0.23776074115E+02  0.77495760870E+02  0.00000000000E+00 0. -1.
</event>
<event>
 7    1  0.2820496E-009  0.1564662E+03  0.7561462E-02  0.1192745E+00
          2   -1    0    0  501    0  0.00000000000E+00  0.00000000000E+00  0.91986316674E+02  0.91986316674E+02  0.00000000000E+00 0. -1.
         -2   -1    0    0    0  501 -0.00000000000E+00 -0.00000000000E+00 -0.37106238934E+03  0.37106238934E+03  0.00000000000E+00 0.  1.
         25    2    1    2    0    0 -0.10478145004E+03  0.85737494051E+02 -0.22477054182E+03  0.29068856535E+03  0.12509186783E+03 0.  0.
          5    1    3    3  502    0 -0.57435497139E+02 -0.38146154088E+01 -0.16071723384E+03  0.17076559746E+03  0.41800000000E+01 0.  1.
         -5    1    3    3    0  502 -0.47345952905E+02  0.89552109459E+02 -0.64053307979E+02  0.11992296789E+03  0.41800000000E+01 0.  1.
        -11    1    1    2    0    0  0.66706402139E+02 -0.93618390179E+02 -0.64969269900E+02  0.13204223982E+03  0.00000000000E+00 0.  1.
         11    1    1    2    0    0  0.38075047904E+02  0.78808961285E+01  0.10663739061E+02  0.40317900832E+02  0.00000000000E+00 0. -1.
</event>
<event>
 7    1  0.2820496E-009  0.1847073E+03  0.7561462E-02  0.1163324E+00
          2   -1    0    0  501    0  0.00000000000E+00  0.00000000000E+00  0.40104708720E+03  0.40104708720E+03  0.00000000000E+00 0. -1.
         -2   -1    0    0    0  501 -0.00000000000E+00 -0.00000000000E+00 -0.99689880744E+02  0.99689880744E+02  0.00000000000E+00 0.  1.
         25    2    1    2    0    0  0.13663387693E+03  0.78113526906E+02  0.22933717380E+03  0.30498142270E+03  0.12509032535E+03 0.  0.
          5    1    3    3  502    0  0.78621311946E+01 -0.25048791807E+02  0.72807701156E+02  0.77509282189E+02  0.41800000000E+01 0. -1.
         -5    1    3    3    0  502  0.12877174574E+03  0.10316231871E+03  0.15652947264E+03  0.22747214051E+03  0.41800000000E+01 0. -1.
        -11    1    1    2    0    0 -0.43814664536E+02  0.14993037971E+02  0.97800974861E+00  0.46319245665E+02  0.00000000000E+00 0.  1.
         11    1    1    2    0    0 -0.92819212396E+02 -0.93106564877E+02  0.71042022910E+02  0.14943629958E+03  0.00000000000E+00 0. -1.
</event>
<event>
 7    1  0.2820496E-009  0.9387163E+02  0.7561462E-02  0.1293738E+00
         -2   -1    0    0    0  501 -0.00000000000E+00  0.00000000000E+00  0.12689430814E+03  0.12689430814E+03  0.00000000000E+00 0.  1.
          2   -1    0    0  501    0  0.00000000000E+00 -0.00000000000E+00 -0.95805514925E+02  0.95805514925E+02  0.00000000000E+00 0. -1.
         25    2    1    2    0    0 -0.85842765633E+01 -0.10709060998E+01  0.16701497730E+01  0.12539891920E+03  0.12508901987E+03 0.  0.
          5    1    3    3  502    0 -0.36954628359E+01 -0.62145981572E+02 -0.90772855320E+01  0.63052747631E+02  0.41800000000E+01 0. -1.
         -5    1    3    3    0  502 -0.48888137275E+01  0.61075075472E+02  0.10747435305E+02  0.62346171569E+02  0.41800000000E+01 0. -1.
        -11    1    1    2    0    0 -0.14137020244E+01  0.31691485410E+02  0.49899537476E+02  0.59129625750E+02  0.00000000000E+00 0.  1.
         11    1    1    2    0    0  0.99979785878E+01 -0.30620579311E+02 -0.20480894030E+02  0.38171278121E+02  0.00000000000E+00 0. -1.
</event>
<event>
 7    1  0.2820496E-009  0.9057133E+02  0.7561462E-02  0.1301474E+00
          2   -1    0    0  501    0  0.00000000000E+00  0.00000000000E+00  0.11135002718E+03  0.11135002718E+03  0.00000000000E+00 0. -1.
         -2   -1    0    0    0  501 -0.00000000000E+00 -0.00000000000E+00 -0.15583094868E+03  0.15583094868E+03  0.00000000000E+00 0.  1.
         25    2    1    2    0    0 -0.70348647371E+01  0.50279974268E+02  0.29201213982E+02  0.13812213048E+03  0.12508975536E+03 0.  0.
          5    1    3    3  502    0 -0.36976181393E+02 -0.26828818318E+02  0.30848641018E+02  0.55282316660E+02  0.41800000000E+01 0. -1.
         -5    1    3    3    0  502  0.29941316655E+02  0.77108792586E+02 -0.16474270357E+01  0.82839813815E+02  0.41800000000E+01 0. -1.
        -11    1    1    2    0    0 -0.37373342649E+01 -0.18928793818E+02 -0.90045908030E+02  0.92089806470E+02  0.00000000000E+00 0.  1.
         11    1    1    2    0    0  0.10772199002E+02 -0.31351180450E+02  0.16363772548E+02  0.36969038924E+02  0.00000000000E+00 0. -1.
</event>
<event>
 7    1  0.2820496E-009  0.1671362E+03  0.7561462E-02  0.1180868E+00
          2   -1    0    0  501    0  0.00000000000E+00  0.00000000000E+00  0.17807171730E+03  0.17807171730E+03  0.00000000000E+00 0. -1.
         -2   -1    0    0    0  501 -0.00000000000E+00 -0.00000000000E+00 -0.21455915397E+03  0.21455915397E+03  0.00000000000E+00 0.  1.
         25    2    1    2    0    0  0.78605328835E+02  0.13318776947E+03  0.26615302349E+02  0.20068430178E+03  0.12509210609E+03 0.  0.
          5    1    3    3  502    0 -0.15078587908E+02  0.50324859352E+02  0.50832113169E+02  0.73221113153E+02  0.41800000000E+01 0.  1.
         -5    1    3    3    0  502  0.93683916743E+02  0.82862910116E+02 -0.24216810820E+02  0.12746318863E+03  0.41800000000E+01 0.  1.
        -11    1    1    2    0    0 -0.71738399243E+02 -0.10332395910E+03 -0.45602057846E+01  0.12586911427E+03  0.00000000000E+00 0. -1.
         11    1    1    2    0    0 -0.68669295921E+01 -0.29863810369E+02 -0.58542533231E+02  0.66077455224E+02  0.00000000000E+00 0.  1.
</event>
<event>
 7    1  0.2820496E-009  0.1320954E+03  0.7561462E-02  0.1224379E+00
          1   -1    0    0  501    0  0.00000000000E+00  0.00000000000E+00  0.85943492401E+03  0.85943492401E+03  0.00000000000E+00 0. -1.
         -1   -1    0    0    0  501 -0.00000000000E+00 -0.00000000000E+00 -0.34280134232E+02  0.34280134232E+02  0.00000000000E+00 0.  1.
         25    2    1    2    0    0 -0.68541822589E+02  0.67076614559E+02  0.67494276706E+03  0.69310372772E+03  0.12509110645E+03 0.  0.
          5    1    3    3  502    0  0.73966898882E+01 -0.19067719819E+02  0.22794942864E+02  0.30909072788E+02  0.41800000000E+01 0.  1.
         -5    1    3    3    0  502 -0.75938512478E+02  0.86144334378E+02  0.65214782419E+03  0.66219465493E+03  0.41800000000E+01 0.  1.
        -11    1    1    2    0    0  0.87976201625E+02 -0.63845934840E+02  0.14301491617E+03  0.17963680496E+03  0.00000000000E+00 0. -1.
         11    1    1    2    0    0 -0.19434379035E+02 -0.32306797192E+01  0.71971065513E+01  0.20974525564E+02  0.00000000000E+00 0.  1.
</event>
<event>
 7    1  0.2820496E-009  0.9169645E+02  0.7561462E-02  0.1298795E+00
         -2   -1    0    0    0  501 -0.00000000000E+00  0.00000000000E+00  0.28125989038E+02  0.28125989038E+02  0.00000000000E+00 0.  1.
          2   -1    0    0  501    0  0.00000000000E+00 -0.00000000000E+00 -0.49712420938E+03  0.49712420938E+03  0.00000000000E+00 0. -1.
         25    2    1    2    0    0  0.37573462850E+02 -0.14458077280E+02 -0.19750110290E+03  0.23722341807E+03  0.12508982104E+03 0.  0.
          5    1    3    3  502    0 -0.25165467849E+02  0.16115805007E+02 -0.27467586147E+01  0.30299125828E+02  0.41800000000E+01 0.  1.
         -5    1    3    3    0  502  0.62738930699E+02 -0.30573882287E+02 -0.19475434428E+03  0.20692429224E+03  0.41800000000E+01 0.  1.
        -11    1    1    2    0    0  0.22223120741E+02  0.31567526518E+01 -0.22809605819E+02  0.32001723397E+02  0.00000000000E+00 0.  1.
         11    1    1    2    0    0 -0.59796583591E+02  0.11301324628E+02 -0.24868751163E+03  0.25602505695E+03  0.00000000000E+00 0. -1.
</event>
<event>
 7    1  0.2820496E-009  0.1078184E+03  0.7561462E-02  0.1264664E+00
          3   -1    0    0  501    0  0.00000000000E+00  0.00000000000E+00  0.47246509743E+02  0.47246509743E+02  0.00000000000E+00 0. -1.
         -3   -1    0    0    0  501 -0.00000000000E+00 -0.00000000000E+00 -0.37286610665E+03  0.37286610665E+03  0.00000000000E+00 0.  1.
         25    2    1    2    0    0 -0.62286354965E+02 -0.49959464796E+02 -0.16892538433E+03  0.22485430623E+03  0.12509250746E+03 0.  0.
          5    1    3    3  502    0 -0.38165406221E+02 -0.83358460563E+02 -0.63538558190E+02  0.11162370696E+03  0.41800000000E+01 0. -1.
         -5    1    3    3    0  502 -0.24120948744E+02  0.33398995767E+02 -0.10538682614E+03  0.11323059926E+03  0.41800000000E+01 0. -1.
        -11    1    1    2    0    0  0.36324068314E+02  0.15966881895E+02 -0.79248343081E+01  0.40462108881E+02  0.00000000000E+00 0. -1.
         11    1    1    2    0    0  0.25962286651E+02  0.33992582901E+02 -0.14876937827E+03  0.15479620128E+03  0.00000000000E+00 0.  1.
</event>
<event>
 7    1  0.2820496E-009  0.1488705E+03  0.7561462E-02  0.1201868E+00
          3   -1    0    0  501    0  0.00000000000E+00  0.00000000000E+00  0.10774413400E+03  0.10774413400E+03  0.00000000000E+00 0. -1.
         -3   -1    0    0    0  501 -0.00000000000E+00 -0.00000000000E+00 -0.43144083946E+03  0.43144083946E+03  0.00000000000E+00 0.  1.
         25    2    1    2    0    0 -0.33627470844E+02  0.11833150470E+03 -0.34292541424E+03  0.38519978949E+03  0.12509151167E+03 0.  0.
          5    1    3    3  502    0  0.31492769230E+02  0.10239320667E+03 -0.23097637708E+03  0.25464430576E+03  0.41800000000E+01 0.  1.
         -5    1    3    3    0  502 -0.65120240074E+02  0.15938298030E+02 -0.11194903717E+03  0.13055548374E+03  0.41800000000E+01 0.  1.
        -11    1    1    2    0    0  0.31208983922E+02 -0.97120656817E+02  0.52288197906E+02  0.11463192530E+03  0.00000000000E+00 0. -1.
         11    1    1    2    0    0  0.24184869222E+01 -0.21210847887E+02 -0.33059489119E+02  0.39353258670E+02  0.00000000000E+00 0.  1.
</event>
<event>
 7    1  0.2820496E-009  0.1034856E+03  0.7561462E-02  0.1273132E+00
         -1   -1    0    0    0  501 -0.00000000000E+00  0.00000000000E+00  0.16826495968E+03  0.16826495968E+03  0.00000000000E+00 0.  1.
          1   -1    0    0  501    0  0.00000000000E+00 -0.00000000000E+00 -0.77030652040E+02  0.77030652040E+02  0.00000000000E+00 0. -1.
         25    2    1    2    0    0  0.14091519720E+02 -0.32334834831E+02  0.57413737926E+02  0.14207768761E+03  0.12508245098E+03 0.  0.
          5    1    3    3  502    0  0.63442396495E+02 -0.29527474264E+02  0.60184984527E+02  0.92393258261E+02  0.41800000000E+01 0. -1.
         -5    1    3    3    0  502 -0.49350876776E+02 -0.28073605661E+01 -0.27712466008E+01  0.49684429348E+02  0.41800000000E+01 0. -1.
        -11    1    1    2    0    0 -0.44737796951E+02  0.34564833897E+02  0.43133354011E+02  0.71110368067E+02  0.00000000000E+00 0.  1.
         11    1    1    2    0    0  0.30646277232E+02 -0.22299990664E+01 -0.93127842945E+01  0.32107556047E+02  0.00000000000E+00 0. -1.
</event>
<event>
 7    1  0.2820496E-009  0.1174032E+03  0.7561462E-02  0.1247443E+00
          1   -1    0    0  501    0  0.00000000000E+00  0.00000000000E+00  0.46343101746E+03  0.46343101746E+03  0.00000000000E+00 0. -1.
         -1   -1    0    0    0  501 -0.00000000000E+00 -0.00000000000E+00 -0.39797760935E+02  0.39797760935E+02  0.00000000000E+00 0.  1.
         25    2    1    2    0    0 -0.47177872343E+02 -0.65923200720E+02  0.20270474242E+03  0.25161375404E+03  0.12509455860E+03 0.  0.
          5    1    3    3  502    0 -0.61260223287E+02  0.13499170750E+02  0.56232941324E+02  0.84348436015E+02  0.41800000000E+01 0. -1.
         -5    1    3    3    0  502  0.14082350945E+02 -0.79422371470E+02  0.14647180110E+03  0.16726531803E+03  0.41800000000E+01 0. -1.
        -11    1    1    2    0    0 -0.18819015500E+00  0.34108594105E+02  0.17521045177E+03  0.17849967511E+03  0.00000000000E+00 0. -1.
         11    1    1    2    0    0  0.47366062498E+02  0.31814606615E+02  0.45718062336E+02  0.73115349239E+02  0.00000000000E+00 0.  1.
</event>
<event>
 7    1  0.2820496E-009  0.7373691E+02  0.7561462E-02  0.1347828E+00
          1   -1    0    0  501    0  0.00000000000E+00  0.00000000000E+00  0.18514417040E+03  0.18514417040E+03  0.00000000000E+00 0. -1.
         -1   -1    0    0    0  501 -0.00000000000E+00 -0.00000000000E+00 -0.76932187917E+02  0.76932187917E+02  0.00000000000E+00 0.  1.
         25    2    1    2    0    0  0.29171047953E+02 -0.69504652212E+01  0.19694173882E+02  0.13012899022E+03  0.12508570904E+03 0.  0.
          5    1    3    3  502    0  0.12718008779E+02 -0.29861768344E+02 -0.47186082335E+02  0.57423616414E+02  0.41800000000E+01 0.  1.
         -5    1    3    3    0  502  0.16453039174E+02  0.22911303123E+02  0.66880256217E+02  0.72705373808E+02  0.41800000000E+01 0.  1.
        -11    1    1    2    0    0 -0.54490906686E+02  0.19626751993E+02  0.26340734253E+02  0.63626272767E+02  0.00000000000E+00 0.  1.
         11    1    1    2    0    0  0.25319858733E+02 -0.12676286771E+02  0.62177074343E+02  0.68321095325E+02  0.00000000000E+00 0. -1.
</event>
<event>
 7    1  0.2820496E-009  0.1198312E+03  0.7561462E-02  0.1243376E+00
          1   -1    0    0  501    0  0.00000000000E+00  0.00000000000E+00  0.11137952068E+04  0.11137952068E+04  0.00000000000E+00 0.  1.
         -1   -1    0    0    0  501 -0.00000000000E+00 -0.00000000000E+00 -0.17775253599E+02  0.17775253599E+02  0.00000000000E+00 0. -1.
         25    2    1    2    0    0 -0.63770148717E+02 -0.15752572029E+02  0.84748944165E+03  0.85918605495E+03  0.12509015915E+03 0.  0.
          5    1    3    3  502    0  0.38037249656E+02 -0.84808062044E+00  0.22124577441E+03  0.22453221750E+03  0.41800000000E+01 0. -1.
         -5    1    3    3    0  502 -0.10180739837E+03 -0.14904491409E+02  0.62624366724E+03  0.63465383745E+03  0.41800000000E+01 0. -1.
        -11    1    1    2    0    0  0.77124408588E+02 -0.81625131272E+00  0.12386521786E+03  0.14591584171E+03  0.00000000000E+00 0. -1.
         11    1    1    2    0    0 -0.13354259871E+02  0.16568823342E+02  0.12466529367E+03  0.12646856372E+03  0.00000000000E+00 0.  1.
</event>
<event>
 7    1  0.2820496E-009  0.2546332E+03  0.7561462E-02  0.1110411E+00
          2   -1    0    0  501    0  0.00000000000E+00  0.00000000000E+00  0.96568710632E+03  0.96568710632E+03  0.00000000000E+00 0. -1.
         -2   -1    0    0    0  501 -0.00000000000E+00 -0.00000000000E+00 -0.82927614781E+02  0.82927614781E+02  0.00000000000E+00 0.  1.
         25    2    1    2    0    0  0.28595248789E+02 -0.25065009046E+03  0.32376165156E+03  0.42908279699E+03  0.12508910243E+03 0.  0.
          5    1    3    3  502    0  0.36452695121E+02 -0.16390986626E+03  0.11703445811E+03  0.20471878278E+03  0.41800000000E+01 0.  1.
         -5    1    3    3    0  502 -0.78574463327E+01 -0.86740224202E+02  0.20672719345E+03  0.22436401421E+03  0.41800000000E+01 0.  1.
        -11    1    1    2    0    0  0.20872077993E+01  0.11534802502E+03  0.16115935892E+03  0.19819652439E+03  0.00000000000E+00 0.  1.
         11    1    1    2    0    0 -0.30682456588E+02  0.13530206544E+03  0.39783848106E+03  0.42133539973E+03  0.00000000000E+00 0. -1.
</event>
<event>
 7    1  0.2820496E-009  0.1470510E+03  0.7561462E-02  0.1204144E+00
          2   -1    0    0  501    0  0.00000000000E+00  0.00000000000E+00  0.63964596442E+03  0.63964596442E+03  0.00000000000E+00 0. -1.
         -2   -1    0    0    0  501 -0.00000000000E+00 -0.00000000000E+00 -0.43328096329E+02  0.43328096329E+02  0.00000000000E+00 0.  1.
         25    2    1    2    0    0  0.11887388185E+03  0.52174542979E+01  0.23206031187E+03  0.28923606165E+03  0.12508912582E+03 0.  0.
          5    1    3    3  502    0  0.77831895670E+02  0.47672066218E+02  0.20440858019E+03  0.22389901727E+03  0.41800000000E+01 0.  1.
         -5    1    3    3    0  502  0.41041986180E+02 -0.42454611920E+02  0.27651731681E+02  0.65337044376E+02  0.41800000000E+01 0.  1.
        -11    1    1    2    0    0 -0.51003921857E+02 -0.42242534083E+02  0.11432865784E+03  0.13212446304E+03  0.00000000000E+00 0.  1.
         11    1    1    2    0    0 -0.67869959993E+02  0.37025079786E+02  0.24992889839E+03  0.26161353606E+03  0.00000000000E+00 0. -1.
</event>
<event>
 7    1  0.2820496E-009  0.9769380E+02  0.7561462E-02  0.1285222E+00
         -1   -1    0    0    0  501 -0.00000000000E+00  0.00000000000E+00  0.49708829199E+02  0.49708829199E+02  0.00000000000E+00 0.  1.
          1   -1    0    0  501    0  0.00000000000E+00 -0.00000000000E+00 -0.41029708178E+03  0.41029708178E+03  0.00000000000E+00 0. -1.
         25    2    1    2    0    0 -0.16586682005E+02 -0.58791719442E+02 -0.30959661128E+03  0.33945422311E+03  0.12509006188E+03 0.  0.
          5    1    3    3  502    0  0.34775327390E+02  0.93908754713E+01 -0.29927146645E+02  0.47017214331E+02  0.41800000000E+01 0. -1.
         -5    1    3    3    0  502 -0.51362009395E+02 -0.68182594913E+02 -0.27966946463E+03  0.29243700878E+03  0.41800000000E+01 0. -1.
        -11    1    1    2    0    0  0.27838519250E+02  0.22906428108E+02  0.19255258180E+02  0.40871170405E+02  0.00000000000E+00 0.  1.
         11    1    1    2    0    0 -0.11251837244E+02  0.35885291334E+02 -0.70246899486E+02  0.79680517461E+02  0.00000000000E+00 0. -1.
</event>
<event>
 7    1  0.4764051E-009  0.2058381E+03  0.7561462E-02  0.1144905E+00
          1   -1    0    0  501    0  0.00000000000E+00  0.00000000000E+00  0.57805607287E+03  0.57805607287E+03  0.00000000000E+00 0. -1.
         -1   -1    0    0    0  501 -0.00000000000E+00 -0.00000000000E+00 -0.86796015305E+02  0.86796015305E+02  0.00000000000E+00 0.  1.
         25    2    1    2    0    0  0.18578635622E+03  0.16203634813E+02  0.16724691111E+03  0.27999692011E+03  0.12509043951E+03 0.  0.
          5    1    3    3  502    0  0.45263251874E+01 -0.28955277012E+02  0.56716321993E+00  0.29608947308E+02  0.41800000000E+01 0.  1.
         -5    1    3    3    0  502  0.18126003103E+03  0.45158911825E+02  0.16667974789E+03  0.25038797280E+03  0.41800000000E+01 0.  1.
        -11    1    1    2    0    0 -0.14906489496E+03 -0.36220637998E+02  0.29917927789E+03  0.33621498754E+03  0.00000000000E+00 0. -1.
         11    1    1    2    0    0 -0.36721461264E+02  0.20017003185E+02  0.24833868567E+02  0.48640180529E+02  0.00000000000E+00 0.  1.
</event>
<event>
 7    1  0.2820496E-009  0.1145383E+03  0.7561462E-02  0.1252389E+00
          2   -1    0    0  501    0  0.00000000000E+00  0.00000000000E+00  0.24902209545E+03  0.24902209545E+03  0.00000000000E+00 0. -1.
         -2   -1    0    0    0  501 -0.00000000000E+00 -0.00000000000E+00 -0.67891760806E+02  0.67891760806E+02  0.00000000000E+00 0.  1.
         25    2    1    2    0    0 -0.10145638948E+02 -0.50170705089E+02  0.16242433586E+03  0.21130273607E+03  0.12508855965E+03 0.  0.
          5    1    3    3  502    0  0.50213674639E+02 -0.41575679821E+02  0.46266137422E+02  0.80049847878E+02  0.41800000000E+01 0. -1.
         -5    1    3    3    0  502 -0.60359313587E+02 -0.85950252679E+01  0.11615819843E+03  0.13125288819E+03  0.41800000000E+01 0. -1.
        -11    1    1    2    0    0 -0.39371125522E+02  0.16110709920E+02 -0.41807733471E+00  0.42541923883E+02  0.00000000000E+00 0.  1.
         11    1    1    2    0    0  0.49516764470E+02  0.34059995169E+02  0.19124076124E+02  0.63069196301E+02  0.00000000000E+00 0. -1.
</event>
<event>
 7    1  0.2820496E-009  0.1435602E+03  0.7561462E-02  0.1208617E+00
         -3   -1    0    0    0  501 -0.00000000000E+00  0.00000000000E+00  0.45448365232E+03  0.45448365232E+03  0.00000000000E+00 0.  1.
          3   -1    0    0  501    0  0.00000000000E+00 -0.00000000000E+00 -0.72233659738E+02  0.72233659738E+02  0.00000000000E+00 0. -1.
         25    2    1    2    0    0  0.49514763136E+02 -0.93425375782E+02  0.35367489513E+03  0.38976027702E+03  0.12508848663E+03 0.  0.
          5    1    3    3  502    0  0.78979741622E+02 -0.15840531716E+02  0.17034303732E+03  0.18847531614E+03  0.41800000000E+01 0. -1.
         -5    1    3    3    0  502 -0.29464978486E+02 -0.77584844067E+02  0.18333185782E+03  0.20128496088E+03  0.41800000000E+01 0. -1.
        -11    1    1    2    0    0 -0.22519121698E+02  0.93697583842E+02  0.43921535936E+02  0.10590301874E+03  0.00000000000E+00 0.  1.
         11    1    1    2    0    0 -0.26995641438E+02 -0.27220805940E+00 -0.15346438486E+02  0.31054016296E+02  0.00000000000E+00 0. -1.
</event>
<event>
 7    1  0.2820496E-009  0.1408521E+03  0.7561462E-02  0.1212187E+00
          3   -1    0    0  501    0  0.00000000000E+00  0.00000000000E+00  0.13562085661E+04  0.13562085661E+04  0.00000000000E+00 0. -1.
         -3   -1    0    0    0  501 -0.00000000000E+00 -0.00000000000E+00 -0.19182678363E+02  0.19182678363E+02  0.00000000000E+00 0.  1.
         25    2    1    2    0    0 -0.11307672014E+03  0.27932970174E+02  0.84629646280E+03  0.86338412254E+03  0.12509134518E+03 0.  0.
          5    1    3    3  502    0 -0.66137655811E+01 -0.21553251622E+02  0.25784642693E+02  0.34505140913E+02  0.41800000000E+01 0.  1.
         -5    1    3    3    0  502 -0.10646295456E+03  0.49486221796E+02  0.82051182011E+03  0.82887898163E+03  0.41800000000E+01 0.  1.
        -11    1    1    2    0    0  0.84342858659E+01 -0.35399074340E+02  0.76721035808E+02  0.84913773781E+02  0.00000000000E+00 0. -1.
         11    1    1    2    0    0  0.10464243427E+03  0.74661041661E+01  0.41400838913E+03  0.42709334815E+03  0.00000000000E+00 0.  1.
</event>
<event>
 7    1  0.2820496E-009  0.1252074E+03  0.7561462E-02  0.1234746E+00
          3   -1    0    0  501    0  0.00000000000E+00  0.00000000000E+00  0.68567729893E+02  0.68567729893E+02  0.00000000000E+00 0. -1.
         -3   -1    0    0    0  501 -0.00000000000E+00 -0.00000000000E+00 -0.24409155110E+03  0.24409155110E+03  0.00000000000E+00 0.  1.
         25    2    1    2    0    0 -0.50567939026E+02  0.42976984705E+02 -0.11310331263E+03  0.18122415504E+03  0.12508276209E+03 0.  0.
          5    1    3    3  502    0  0.39382552291E+02  0.27659151949E+01 -0.15935870999E+02  0.42779201679E+02  0.41800000000E+01 0. -1.
         -5    1    3    3    0  502 -0.89950491316E+02  0.40211069510E+02 -0.97167441632E+02  0.13844495337E+03  0.41800000000E+01 0. -1.
        -11    1    1    2    0    0 -0.15596589595E+01  0.25772297844E+02 -0.29213439679E+02  0.38988061379E+02  0.00000000000E+00 0.  1.
         11    1    1    2    0    0  0.52127597985E+02 -0.68749282549E+02 -0.33207068899E+02  0.92447064570E+02  0.00000000000E+00 0. -1.
</event>
<event>
 7    1  0.2820496E-009  0.9432643E+02  0.7561462E-02  0.1292700E+00
          4   -1    0    0  501    0  0.00000000000E+00  0.00000000000E+00  0.46844496495E+02  0.46844496495E+02  0.00000000000E+00 0. -1.
         -4   -1    0    0    0  501 -0.00000000000E+00 -0.00000000000E+00 -0.40892890161E+03  0.40892890161E+03  0.00000000000E+00 0.  1.
         25    2    1    2    0    0  0.60423142498E+02  0.45836661517E+01 -0.29547664336E+03  0.32653618925E+03  0.12508984760E+03 0.  0.
          5    1    3    3  502    0 -0.14808692616E+02 -0.17674109670E+02 -0.29217242524E+01  0.23615257827E+02  0.41800000000E+01 0.  1.
         -5    1    3    3    0  502  0.75231835114E+02  0.22257775822E+02 -0.29255491911E+03  0.30292093142E+03  0.41800000000E+01 0.  1.
        -11    1    1    2    0    0 -0.34833821448E+02  0.28373580913E+02  0.61679196621E+01  0.45348632212E+02  0.00000000000E+00 0.  1.
         11    1    1    2    0    0 -0.25589321050E+02 -0.32957247065E+02 -0.72775681416E+02  0.83888576645E+02  0.00000000000E+00 0. -1.
</event>
<event>
 7    1  0.2820496E-009  0.1891231E+03  0.7561462E-02  0.1159255E+00
         -1   -1    0    0    0  501 -0.00000000000E+00  0.00000000000E+00  0.25400941591E+03  0.25400941591E+03  0.00000000000E+00 0.  1.
          1   -1    0    0  501    0  0.00000000000E+00 -0.00000000000E+00 -0.17507365066E+03  0.17507365066E+03  0.00000000000E+00 0. -1.
         25    2    1    2    0    0 -0.14486151123E+03  0.95205467975E+02 -0.10334620751E+02  0.21401550561E+03  0.12508754410E+03 0.  0.
          5    1    3    3  502    0  0.29030960136E+01 -0.15603864810E+02 -0.23655022389E+02  0.28791336331E+02  0.41800000000E+01 0.  1.
         -5    1    3    3    0  502 -0.14776460724E+03  0.11080933279E+03  0.13320401638E+02  0.18522416928E+03  0.41800000000E+01 0.  1.
        -11    1    1    2    0    0  0.50985314559E+02 -0.13767702264E+02 -0.12692536826E+02  0.54315305553E+02  0.00000000000E+00 0.  1.
         11    1    1    2    0    0  0.93876196669E+02 -0.81437765711E+02  0.10196292283E+03  0.16075225541E+03  0.00000000000E+00 0. -1.
</event>
<event>
 7    1  0.2820496E-009  0.1199579E+03  0.7561462E-02  0.1243167E+00
          2   -1    0    0  501    0  0.00000000000E+00  0.00000000000E+00  0.10463773545E+04  0.10463773545E+04  0.00000000000E+00 0. -1.
         -2   -1    0    0    0  501 -0.00000000000E+00 -0.00000000000E+00 -0.21007668235E+02  0.21007668235E+02  0.00000000000E+00 0.  1.
         25    2    1    2    0    0  0.76970714801E+02  0.61375491785E+02  0.46405206522E+03  0.49059474917E+03  0.12508975480E+03 0.  0.
          5    1    3    3  502    0  0.21293042438E+02  0.45972487306E+02  0.40391326944E+03  0.40709982176E+03  0.41800000000E+01 0.  1.
         -5    1    3    3    0  502  0.55677672363E+02  0.15403004479E+02  0.60138795777E+02  0.83494927416E+02  0.41800000000E+01 0.  1.
        -11    1    1    2    0    0 -0.27304236031E+02 -0.74869128956E+02  0.29683433825E+03  0.30734594863E+03  0.00000000000E+00 0. -1.
         11    1    1    2    0    0 -0.49666478770E+02  0.13493637171E+02  0.26448328283E+03  0.26944432497E+03  0.00000000000E+00 0.  1.
</event>
<event>
 7    1  0.2820496E-009  0.8485594E+02  0.7561462E-02  0.1315810E+00
          2   -1    0    0  501    0  0.00000000000E+00  0.00000000000E+00  0.13955004701E+04  0.13955004701E+04  0.00000000000E+00 0. -1.
         -2   -1    0    0    0  501 -0.00000000000E+00 -0.00000000000E+00 -0.88370507094E+01  0.88370507094E+01  0.00000000000E+00 0.  1.
         25    2    1    2    0    0 -0.70891698690E+01  0.46226871761E+01  0.93424321795E+03  0.94261858807E+03  0.12509111369E+03 0.  0.
          5    1    3    3  502    0  0.28914171043E+02  0.22719585344E+02  0.82932882687E+03  0.83015419310E+03  0.41800000000E+01 0.  1.
         -5    1    3    3    0  502 -0.36003340912E+02 -0.18096898167E+02  0.10491439108E+03  0.11246439497E+03  0.41800000000E+01 0.  1.
        -11    1    1    2    0    0 -0.37795654433E+02 -0.22375893719E+02  0.21827388937E+03  0.22264923735E+03  0.00000000000E+00 0.  1.
         11    1    1    2    0    0  0.44884824302E+02  0.17753206543E+02  0.23414631207E+03  0.23906969539E+03  0.00000000000E+00 0. -1.
</event>
<event>
 7    1  0.2820496E-009  0.1354721E+03  0.7561462E-02  0.1219555E+00
         -2   -1    0    0    0  501 -0.00000000000E+00  0.00000000000E+00  0.59319563984E+02  0.59319563984E+02  0.00000000000E+00 0.  1.
          2   -1    0    0  501    0  0.00000000000E+00 -0.00000000000E+00 -0.47585225706E+03  0.47585225706E+03  0.00000000000E+00 0. -1.
         25    2    1    2    0    0  0.80407624445E+02 -0.49570154362E+02 -0.85597276227E+02  0.17859656597E+03  0.12508898195E+03 0.  0.
          5    1    3    3  502    0  0.93266209240E+02 -0.76253905063E+02 -0.46118073433E+02  0.12906429762E+03  0.41800000000E+01 0. -1.
         -5    1    3    3    0  502 -0.12858584795E+02  0.26683750701E+02 -0.39479202794E+02  0.49532268348E+02  0.41800000000E+01 0. -1.
        -11    1    1    2    0    0 -0.34936457885E+02 -0.17798195193E+02 -0.18892231975E+03  0.19294811412E+03  0.00000000000E+00 0. -1.
         11    1    1    2    0    0 -0.45471166560E+02  0.67368349555E+02 -0.14201309710E+03  0.16362714095E+03  0.00000000000E+00 0.  1.
</event>
<event>
 7    1  0.2820496E-009  0.1584776E+03  0.7561462E-02  0.1190426E+00
          2   -1    0    0  501    0  0.00000000000E+00  0.00000000000E+00  0.16090448900E+03  0.16090448900E+03  0.00000000000E+00 0. -1.
         -2   -1    0    0    0  501 -0.00000000000E+00 -0.00000000000E+00 -0.22008603569E+03  0.22008603569E+03  0.00000000000E+00 0.  1.
         25    2    1    2    0    0 -0.99694403594E+02 -0.10963301463E+03 -0.68497349924E+02  0.20566271770E+03  0.12508754735E+03 0.  0.
          5    1    3    3  502    0 -0.15187369026E+02 -0.53891018436E+02 -0.86134037825E+02  0.10281752243E+03  0.41800000000E+01 0. -1.
         -5    1    3    3    0  502 -0.84507034568E+02 -0.55741996194E+02  0.17636687901E+02  0.10284519528E+03  0.41800000000E+01 0. -1.
        -11    1    1    2    0    0  0.20083486235E+02  0.65398937579E+02  0.39969109388E+02  0.79233182197E+02  0.00000000000E+00 0. -1.
         11    1    1    2    0    0  0.79610917359E+02  0.44234077051E+02 -0.30653306155E+02  0.96094624790E+02  0.00000000000E+00 0.  1.
</event>
<event>
 7    1  0.2820496E-009  0.7088447E+02  0.7561462E-02  0.1357111E+00
         -1   -1    0    0    0  501 -0.00000000000E+00  0.00000000000E+00  0.66249199943E+02  0.66249199943E+02  0.00000000000E+00 0.  1.
          1   -1    0    0  501    0  0.00000000000E+00 -0.00000000000E+00 -0.20113844280E+03  0.20113844280E+03  0.00000000000E+00 0. -1.
         25    2    1    2    0    0  0.28926556283E+01 -0.38825170787E+02 -0.80750730687E+02  0.15389416360E+03  0.12508785609E+03 0.  0.
          5    1    3    3  502    0  0.11351211026E+02 -0.34155546867E+02  0.27277622419E+02  0.45354078741E+02  0.41800000000E+01 0. -1.
         -5    1    3    3    0  502 -0.84585553980E+01 -0.46696239193E+01 -0.10802835311E+03  0.10854008486E+03  0.41800000000E+01 0. -1.
        -11    1    1    2    0    0 -0.15647641109E+02 -0.25233365218E+02 -0.34008384667E+02  0.45145781864E+02  0.00000000000E+00 0.  1.
         11    1    1    2    0    0  0.12754985481E+02  0.64058536005E+02 -0.20130127505E+02  0.68347697277E+02  0.00000000000E+00 0. -1.
</event>
<event>
 7    1  0.2820496E-009  0.1282746E+03  0.7561462E-02  0.1230039E+00
          2   -1    0    0  501    0  0.00000000000E+00  0.00000000000E+00  0.31975105655E+03  0.31975105655E+03  0.00000000000E+00 0. -1.
         -2   -1    0    0    0  501 -0.00000000000E+00 -0.00000000000E+00 -0.58014917026E+02  0.58014917026E+02  0.00000000000E+00 0.  1.
         25    2    1    2    0    0  0.47786291127E+02 -0.65573083281E+02  0.13009335982E+03  0.19787788263E+03  0.12509202730E+03 0.  0.
          5    1    3    3  502    0  0.17107696151E+02  0.37315240016E+02  0.29812172518E+02  0.50905190651E+02  0.41800000000E+01 0. -1.
         -5    1    3    3    0  502  0.30678594976E+02 -0.10288832330E+03  0.10028118730E+03  0.14697269198E+03  0.41800000000E+01 0. -1.
        -11    1    1    2    0    0 -0.39953591148E+02  0.81123926419E+02  0.65939923755E+02  0.11191717664E+03  0.00000000000E+00 0.  1.
         11    1    1    2    0    0 -0.78326999790E+01 -0.15550843138E+02  0.65702855951E+02  0.67970914305E+02  0.00000000000E+00 0. -1.
</event>
<event>
 7    1  0.2820496E-009  0.1164793E+03  0.7561462E-02  0.1249021E+00
          1   -1    0    0  501    0  0.00000000000E+00  0.00000000000E+00  0.24883006973E+02  0.24883006973E+02  0.00000000000E+00 0. -1.
         -1   -1    0    0    0  501 -0.00000000000E+00 -0.00000000000E+00 -0.71101976207E+03  0.71101976207E+03  0.00000000000E+00 0.  1.
         25    2    1    2    0    0 -0.40503101960E+02  0.17987837455E+02 -0.55020641807E+03  0.56598393935E+03  0.12508658425E+03 0.  0.
          5    1    3    3  502    0 -0.60179004227E+02 -0.39173841317E+02 -0.28387013800E+03  0.29284096373E+03  0.41800000000E+01 0.  1.
         -5    1    3    3    0  502  0.19675902268E+02  0.57161678772E+02 -0.26633628007E+03  0.27314297562E+03  0.41800000000E+01 0.  1.
        -11    1    1    2    0    0 -0.25966614471E+02 -0.21728770948E+02 -0.32621266673E+02  0.47016503414E+02  0.00000000000E+00 0.  1.
         11    1    1    2    0    0  0.66469716430E+02  0.37409334928E+01 -0.10330907035E+03  0.12290232627E+03  0.00000000000E+00 0. -1.
</event>
<event>
 7    1  0.2820496E-009  0.1470471E+03  0.7561462E-02  0.1204149E+00
         -2   -1    0    0    0  501 -0.00000000000E+00  0.00000000000E+00  0.59844784438E+02  0.59844784438E+02  0.00000000000E+00 0. -1.
          2   -1    0    0  501    0  0.00000000000E+00 -0.00000000000E+00 -0.62997962562E+03  0.62997962562E+03  0.00000000000E+00 0.  1.
         25    2    1    2    0    0  0.96690075092E+02 -0.89638969962E+02 -0.14501297652E+03  0.23249888302E+03  0.12507138637E+03 0.  0.
          5    1    3    3  502    0  0.91195454282E+02 -0.31913870138E+02 -0.26152712743E+02  0.10018254725E+03  0.41800000000E+01 0.  1.
         -5    1    3    3    0  502  0.54946208104E+01 -0.57725099823E+02 -0.11886026377E+03  0.13231633577E+03  0.41800000000E+01 0.  1.
        -11    1    1    2    0    0 -0.75366477092E+02  0.40222389794E+02 -0.11888609697E+03  0.14639621089E+03  0.00000000000E+00 0. -1.
         11    1    1    2    0    0 -0.21323598001E+02  0.49416580168E+02 -0.30623576769E+03  0.31092931615E+03  0.00000000000E+00 0.  1.
</event>
<event>
 7    1  0.2820496E-009  0.1267143E+03  0.7561462E-02  0.1232414E+00
          1   -1    0    0  501    0  0.00000000000E+00  0.00000000000E+00  0.34356078788E+03  0.34356078788E+03  0.00000000000E+00 0. -1.
         -1   -1    0    0    0  501 -0.00000000000E+00 -0.00000000000E+00 -0.79985205485E+02  0.79985205485E+02  0.00000000000E+00 0.  1.
         25    2    1    2    0    0  0.23477420497E+02 -0.11310366023E+03  0.62697324504E+02  0.18144393158E+03  0.12508924245E+03 0.  0.
          5    1    3    3  502    0 -0.40605997949E+01 -0.64996166510E+02 -0.31194976564E+02  0.72329724833E+02  0.41800000000E+01 0.  1.
         -5    1    3    3    0  502  0.27538020292E+02 -0.48107493718E+02  0.93892301068E+02  0.10911420674E+03  0.41800000000E+01 0.  1.
        -11    1    1    2    0    0 -0.19568409531E+02  0.15774673406E+00  0.49211614848E+02  0.52959707057E+02  0.00000000000E+00 0. -1.
         11    1    1    2    0    0 -0.39090109663E+01  0.11294591349E+03  0.15166664305E+03  0.18914235474E+03  0.00000000000E+00 0.  1.
</event>
<event>
 7    1  0.2820496E-009  0.1730923E+03  0.7561462E-02  0.1174661E+00
         -2   -1    0    0    0  501 -0.00000000000E+00  0.00000000000E+00  0.66590552026E+02  0.66590552026E+02  0.00000000000E+00 0.  1.
          2   -1    0    0  501    0  0.00000000000E+00 -0.00000000000E+00 -0.48144855449E+03  0.48144855449E+03  0.00000000000E+00 0. -1.
         25    2    1    2    0    0 -0.33048746925E+02 -0.13844334946E+03 -0.22890608869E+03  0.29716020533E+03  0.12508960592E+03 0.  0.
          5    1    3    3  502    0 -0.47372417536E+02 -0.71816987101E+01 -0.10737766159E+03  0.11765694772E+03  0.41800000000E+01 0. -1.
         -5    1    3    3    0  502  0.14323670611E+02 -0.13126165075E+03 -0.12152842711E+03  0.17950325761E+03  0.41800000000E+01 0. -1.
        -11    1    1    2    0    0 -0.28870893521E+02  0.54467402475E+02 -0.90280233646E+02  0.10931947225E+03  0.00000000000E+00 0.  1.
         11    1    1    2    0    0  0.61919640447E+02  0.83975946980E+02 -0.95671680125E+02  0.14155942894E+03  0.00000000000E+00 0. -1.
</event>
<event>
 7    1  0.2820496E-009  0.1835179E+03  0.7561462E-02  0.1164441E+00
          3   -1    0    0  501    0  0.00000000000E+00  0.00000000000E+00  0.25957411056E+02  0.25957411056E+02  0.00000000000E+00 0. -1.
         -3   -1    0    0    0  501 -0.00000000000E+00 -0.00000000000E+00 -0.18606038446E+04  0.18606038446E+04  0.00000000000E+00 0.  1.
         25    2    1    2    0    0  0.16809200645E+03  0.21152399708E+01 -0.13489438303E+04  0.13651213715E+04  0.12508998659E+03 0.  0.
          5    1    3    3  502    0  0.70430319669E+02 -0.51483080101E+02 -0.38667630722E+03  0.39641767926E+03  0.41800000000E+01 0. -1.
         -5    1    3    3    0  502  0.97661686782E+02  0.53598320072E+02 -0.96226752313E+03  0.96870369228E+03  0.41800000000E+01 0. -1.
        -11    1    1    2    0    0 -0.82177731820E+02  0.19854549475E+01 -0.11798654063E+03  0.14379828027E+03  0.00000000000E+00 0.  1.
         11    1    1    2    0    0 -0.85914274631E+02 -0.41006949183E+01 -0.36771606262E+03  0.37764160390E+03  0.00000000000E+00 0. -1.
</event>
<event>
 7    1  0.2820496E-009  0.1070249E+03  0.7561462E-02  0.1266181E+00
         -1   -1    0    0    0  501 -0.00000000000E+00  0.00000000000E+00  0.22149096091E+02  0.22149096091E+02  0.00000000000E+00 0.  1.
          1   -1    0    0  501    0  0.00000000000E+00 -0.00000000000E+00 -0.82505067223E+03  0.82505067223E+03  0.00000000000E+00 0. -1.
         25    2    1    2    0    0 -0.45437577492E+02  0.67092092430E+02 -0.47745633184E+03  0.50017787739E+03  0.12508971940E+03 0.  0.
          5    1    3    3  502    0 -0.28791142858E+02 -0.24373456596E+02 -0.27190773322E+03  0.27454377261E+03  0.41800000000E+01 0.  1.
         -5    1    3    3    0  502 -0.16646434634E+02  0.91465549026E+02 -0.20554859862E+03  0.22563410478E+03  0.41800000000E+01 0.  1.
        -11    1    1    2    0    0  0.22818944600E+02 -0.49061663446E+02 -0.30909436120E+03  0.31379463855E+03  0.00000000000E+00 0. -1.
         11    1    1    2    0    0  0.22618632892E+02 -0.18030428983E+02 -0.16350883097E+02  0.33227252389E+02  0.00000000000E+00 0.  1.
</event>
<event>
 7    1  0.2820496E-009  0.1157979E+03  0.7561462E-02  0.1250195E+00
         -2   -1    0    0    0  501 -0.00000000000E+00  0.00000000000E+00  0.33005718695E+02  0.33005718695E+02  0.00000000000E+00 0.  1.
          2   -1    0    0  501    0  0.00000000000E+00 -0.00000000000E+00 -0.44343958452E+03  0.44343958452E+03  0.00000000000E+00 0. -1.
         25    2    1    2    0    0  0.29519998428E+02  0.44737979838E+02 -0.21531459686E+03  0.25471782381E+03  0.12509147453E+03 0.  0.
          5    1    3    3  502    0  0.40483385752E+02  0.79855025319E+02 -0.10340450709E+03  0.13684185791E+03  0.41800000000E+01 0.  1.
         -5    1    3    3    0  502 -0.10963387324E+02 -0.35117045480E+02 -0.11191008976E+03  0.11787596590E+03  0.41800000000E+01 0.  1.
        -11    1    1    2    0    0 -0.64684234636E+01 -0.70256644689E+02 -0.12217498632E+03  0.14108353521E+03  0.00000000000E+00 0. -1.
         11    1    1    2    0    0 -0.23051574965E+02  0.25518664850E+02 -0.72944282649E+02  0.80643944195E+02  0.00000000000E+00 0.  1.
</event>
<event>
 7    1  0.2820496E-009  0.1089488E+03  0.7561462E-02  0.1262529E+00
          2   -1    0    0  501    0  0.00000000000E+00  0.00000000000E+00  0.36035031212E+02  0.36035031212E+02  0.00000000000E+00 0. -1.
         -2   -1    0    0    0  501 -0.00000000000E+00 -0.00000000000E+00 -0.51556591764E+03  0.51556591764E+03  0.00000000000E+00 0.  1.
         25    2    1    2    0    0  0.81926987027E+02  0.22585524377E+02 -0.28958982269E+03  0.32670157440E+03  0.12509802634E+03 0.  0.
          5    1    3    3  502    0  0.25231302223E+01 -0.21134152984E+02 -0.19284638454E+03  0.19406241017E+03  0.41800000000E+01 0.  1.
         -5    1    3    3    0  502  0.79403856805E+02  0.43719677361E+02 -0.96743438151E+02  0.13263916424E+03  0.41800000000E+01 0.  1.
        -11    1    1    2    0    0  0.56844907292E+01 -0.16718419528E+02 -0.90640188701E+02  0.92344262378E+02  0.00000000000E+00 0.  1.
         11    1    1    2    0    0 -0.87611477756E+02 -0.58671048485E+01 -0.99300875031E+02  0.13255511207E+03  0.00000000000E+00 0. -1.
</event>
<event>
 7    1  0.2820496E-009  0.1100794E+03  0.7561462E-02  0.1260423E+00
          2   -1    0    0  501    0  0.00000000000E+00  0.00000000000E+00  0.10876712863E+04  0.10876712863E+04  0.00000000000E+00 0. -1.
         -2   -1    0    0    0  501 -0.00000000000E+00 -0.00000000000E+00 -0.13477821571E+02  0.13477821571E+02  0.00000000000E+00 0.  1.
         25    2    1    2    0    0  0.20246524323E+02 -0.47723922509E+02  0.71558838451E+03  0.72828766246E+03  0.12509471899E+03 0.  0.
          5    1    3    3  502    0  0.16582710279E+02  0.32977809645E+02  0.88173228478E+02  0.95679218378E+02  0.41800000000E+01 0. -1.
         -5    1    3    3    0  502  0.36638140446E+01 -0.80701732154E+02  0.62741515603E+03  0.63260844408E+03  0.41800000000E+01 0. -1.
        -11    1    1    2    0    0 -0.51332390191E+02  0.84392856038E+01  0.18313821991E+03  0.19038341161E+03  0.00000000000E+00 0.  1.
         11    1    1    2    0    0  0.31085865868E+02  0.39284636906E+02  0.17546686033E+03  0.18247803383E+03  0.00000000000E+00 0. -1.
</event>
<event>
 7    1  0.2820496E-009  0.1019602E+03  0.7561462E-02  0.1276227E+00
         -3   -1    0    0    0  501 -0.00000000000E+00  0.00000000000E+00  0.68984546114E+02  0.68984546114E+02  0.00000000000E+00 0.  1.
          3   -1    0    0  501    0  0.00000000000E+00 -0.00000000000E+00 -0.23484244050E+03  0.23484244050E+03  0.00000000000E+00 0. -1.
         25    2    1    2    0    0  0.37838610165E+02 -0.24148320239E+02 -0.35165159307E+02  0.13747575167E+03  0.12509233421E+03 0.  0.
          5    1    3    3  502    0 -0.28583551279E+02 -0.42265175696E+02 -0.44550971574E+02  0.67864762200E+02  0.41800000000E+01 0. -1.
         -5    1    3    3    0  502  0.66422161445E+02  0.18116855457E+02  0.93858122675E+01  0.69610989467E+02  0.41800000000E+01 0. -1.
        -11    1    1    2    0    0  0.85096834990E+01 -0.18753880915E+02  0.65895232726E+00  0.20604780533E+02  0.00000000000E+00 0.  1.
         11    1    1    2    0    0 -0.46348293664E+02  0.42902201154E+02 -0.13135168741E+03  0.14574645441E+03  0.00000000000E+00 0. -1.
</event>
<event>
 7    1  0.2820496E-009  0.8946783E+02  0.7561462E-02  0.1304146E+00
          1   -1    0    0  501    0  0.00000000000E+00  0.00000000000E+00  0.22557278807E+03  0.22557278807E+03  0.00000000000E+00 0. -1.
         -1   -1    0    0    0  501 -0.00000000000E+00 -0.00000000000E+00 -0.67665913282E+02  0.67665913282E+02  0.00000000000E+00 0.  1.
         25    2    1    2    0    0  0.27515132962E+02  0.55010083199E+02  0.76353065924E+02  0.15893865868E+03  0.12509402365E+03 0.  0.
          5    1    3    3  502    0  0.32498898974E+01  0.46618621633E+02 -0.25787164112E+02  0.53537910869E+02  0.41800000000E+01 0.  1.
         -5    1    3    3    0  502  0.24265243065E+02  0.83914615657E+01  0.10214023004E+03  0.10540074781E+03  0.41800000000E+01 0.  1.
        -11    1    1    2    0    0 -0.57999840011E+02 -0.46542422254E+02  0.49967937765E+02  0.89593377630E+02  0.00000000000E+00 0.  1.
         11    1    1    2    0    0  0.30484707049E+02 -0.84676609447E+01  0.31585871100E+02  0.44706665039E+02  0.00000000000E+00 0. -1.
</event>
<event>
 7    1  0.2820496E-009  0.8144770E+02  0.7561462E-02  0.1324993E+00
         -1   -1    0    0    0  501 -0.00000000000E+00  0.00000000000E+00  0.92301005526E+02  0.92301005526E+02  0.00000000000E+00 0.  1.
          1   -1    0    0  501    0  0.00000000000E+00 -0.00000000000E+00 -0.12364237610E+03  0.12364237610E+03  0.00000000000E+00 0. -1.
         25    2    1    2    0    0 -0.85793597850E+01 -0.86461951913E+01 -0.15624187135E+02  0.12664706870E+03  0.12508797977E+03 0.  0.
          5    1    3    3  502    0  0.31798811439E+02  0.47269253083E+01  0.43152781713E+02  0.53973541679E+02  0.41800000000E+01 0.  1.
         -5    1    3    3    0  502 -0.40378171224E+02 -0.13373120500E+02 -0.58776968848E+02  0.72673527025E+02  0.41800000000E+01 0.  1.
        -11    1    1    2    0    0  0.31013455794E+02  0.39103329197E+02 -0.62226268738E+01  0.50295386267E+02  0.00000000000E+00 0.  1.
         11    1    1    2    0    0 -0.22434096009E+02 -0.30457134006E+02 -0.94945565662E+01  0.39000926655E+02  0.00000000000E+00 0. -1.
</event>
<event>
 7    1  0.2820496E-009  0.1425245E+03  0.7561462E-02  0.1209972E+00
          2   -1    0    0  501    0  0.00000000000E+00  0.00000000000E+00  0.37719204536E+03  0.37719204536E+03  0.00000000000E+00 0. -1.
         -2   -1    0    0    0  501 -0.00000000000E+00 -0.00000000000E+00 -0.71897947953E+02  0.71897947953E+02  0.00000000000E+00 0.  1.
         25    2    1    2    0    0  0.42192479735E+02  0.10437734031E+03  0.67960163589E+02  0.18150360072E+03  0.12510051447E+03 0.  0.
          5    1    3    3  502    0 -0.44056280705E+02  0.44059070248E+02  0.18440583628E+02  0.65112864053E+02  0.41800000000E+01 0. -1.
         -5    1    3    3    0  502  0.86248760440E+02  0.60318270066E+02  0.49519579961E+02  0.11639073666E+03  0.41800000000E+01 0. -1.
        -11    1    1    2    0    0 -0.33140656469E+02 -0.38605401068E+02  0.62627127617E+02  0.80689759055E+02  0.00000000000E+00 0.  1.
         11    1    1    2    0    0 -0.90518232652E+01 -0.65771939246E+02  0.17470680620E+03  0.18689663355E+03  0.00000000000E+00 0. -1.
</event>
<event>
 7    1  0.2820496E-009  0.1287649E+03  0.7561462E-02  0.1229300E+00
          1   -1    0    0  501    0  0.00000000000E+00  0.00000000000E+00  0.34122993137E+03  0.34122993137E+03  0.00000000000E+00 0. -1.
         -1   -1    0    0    0  501 -0.00000000000E+00 -0.00000000000E+00 -0.67659827576E+02  0.67659827576E+02  0.00000000000E+00 0.  1.
         25    2    1    2    0    0  0.88288650168E+02  0.56215866936E+02  0.14900656573E+03  0.22091732600E+03  0.12508556612E+03 0.  0.
          5    1    3    3  502    0  0.69841185771E+02  0.78963059026E+02  0.15800993654E+03  0.18999360086E+03  0.41800000000E+01 0. -1.
         -5    1    3    3    0  502  0.18447464397E+02 -0.22747192091E+02 -0.90033708087E+01  0.30923725141E+02  0.41800000000E+01 0. -1.
        -11    1    1    2    0    0 -0.83648845002E+02 -0.20096808901E+02  0.12477261261E+03  0.15155598258E+03  0.00000000000E+00 0. -1.
         11    1    1    2    0    0 -0.46398051658E+01 -0.36119058035E+02 -0.20907454798E+00  0.36416450369E+02  0.00000000000E+00 0.  1.
</event>
<event>
 7    1  0.2820496E-009  0.1181959E+03  0.7561462E-02  0.1246103E+00
         -2   -1    0    0    0  501 -0.00000000000E+00  0.00000000000E+00  0.23279661822E+02  0.23279661822E+02  0.00000000000E+00 0.  1.
          2   -1    0    0  501    0  0.00000000000E+00 -0.00000000000E+00 -0.70044719933E+03  0.70044719933E+03  0.00000000000E+00 0. -1.
         25    2    1    2    0    0 -0.44087707615E+02 -0.45645829329E+02 -0.42563262295E+03  0.44814816863E+03  0.12508550526E+03 0.  0.
          5    1    3    3  502    0 -0.48808974496E+02 -0.83904830036E+02 -0.34889244260E+03  0.36216811759E+03  0.41800000000E+01 0.  1.
         -5    1    3    3    0  502  0.47212668812E+01  0.38259000707E+02 -0.76740180356E+02  0.85980051042E+02  0.41800000000E+01 0.  1.
        -11    1    1    2    0    0 -0.22699128273E+02  0.11925255034E+02 -0.13269066559E+03  0.13514538419E+03  0.00000000000E+00 0.  1.
         11    1    1    2    0    0  0.66786835888E+02  0.33720574295E+02 -0.11884424896E+03  0.14043330834E+03  0.00000000000E+00 0. -1.
</event>
<event>
 7    1  0.2820496E-009  0.2796671E+03  0.7561462E-02  0.1095871E+00
         -2   -1    0    0    0  501 -0.00000000000E+00  0.00000000000E+00  0.11119573330E+03  0.11119573330E+03  0.00000000000E+00 0.  1.
          2   -1    0    0  501    0  0.00000000000E+00 -0.00000000000E+00 -0.76545972104E+03  0.76545972104E+03  0.00000000000E+00 0. -1.
         25    2    1    2    0    0  0.16441227596E+03 -0.20337365520E+03 -0.43735893963E+03  0.52471213185E+03  0.12509092342E+03 0.  0.
          5    1    3    3  502    0  0.11285533478E+03 -0.49836503457E+02 -0.23536086495E+03  0.26576721546E+03  0.41800000000E+01 0.  1.
         -5    1    3    3    0  502  0.51556941183E+02 -0.15353715174E+03 -0.20199807468E+03  0.25894491639E+03  0.41800000000E+01 0.  1.
        -11    1    1    2    0    0 -0.85490687088E+02  0.16563724469E+03 -0.12148806021E+03  0.22249427674E+03  0.00000000000E+00 0. -1.
         11    1    1    2    0    0 -0.78921588873E+02  0.37736410512E+02 -0.95416987899E+02  0.12944904576E+03  0.00000000000E+00 0.  1.
</event>
<event>
 7    1  0.2820496E-009  0.1403589E+03  0.7561462E-02  0.1212847E+00
          1   -1    0    0  501    0  0.00000000000E+00  0.00000000000E+00  0.15029808827E+03  0.15029808827E+03  0.00000000000E+00 0. -1.
         -1   -1    0    0    0  501 -0.00000000000E+00 -0.00000000000E+00 -0.15039245043E+03  0.15039245043E+03  0.00000000000E+00 0.  1.
         25    2    1    2    0    0  0.71606865104E+02 -0.72251633040E+02  0.19482818221E+02  0.16239723132E+03  0.12508172899E+03 0.  0.
          5    1    3    3  502    0  0.99272005557E+02 -0.53081304510E+02 -0.15454077838E+02  0.11370513136E+03  0.41800000000E+01 0. -1.
         -5    1    3    3    0  502 -0.27665140453E+02 -0.19170328530E+02  0.34936896059E+02  0.48692099960E+02  0.41800000000E+01 0. -1.
        -11    1    1    2    0    0  0.17784284697E+01  0.59668344727E+02 -0.22462372737E+02  0.63781128551E+02  0.00000000000E+00 0.  1.
         11    1    1    2    0    0 -0.73385293573E+02  0.12583288313E+02  0.28851923559E+01  0.74512178820E+02  0.00000000000E+00 0. -1.
</event>
<event>
 7    1  0.2820496E-009  0.1055687E+03  0.7561462E-02  0.1269003E+00
          1   -1    0    0  501    0  0.00000000000E+00  0.00000000000E+00  0.15161465084E+03  0.15161465084E+03  0.00000000000E+00 0. -1.
         -1   -1    0    0    0  501 -0.00000000000E+00 -0.00000000000E+00 -0.80438852815E+02  0.80438852815E+02  0.00000000000E+00 0.  1.
         25    2    1    2    0    0  0.30504139964E+01  0.24661455138E+02  0.39392959966E+02  0.13347917949E+03  0.12508954260E+03 0.  0.
          5    1    3    3  502    0 -0.21808538876E+02  0.67500541296E+02  0.43970845533E+02  0.83563407662E+02  0.41800000000E+01 0.  1.
         -5    1    3    3    0  502  0.24858952872E+02 -0.42839086158E+02 -0.45778855676E+01  0.49915771826E+02  0.41800000000E+01 0.  1.
        -11    1    1    2    0    0  0.41337015113E+02 -0.19437936453E+02  0.37858891293E+01  0.45835740951E+02  0.00000000000E+00 0.  1.
         11    1    1    2    0    0 -0.44387429110E+02 -0.52235186844E+01  0.27996948932E+02  0.52738583219E+02  0.00000000000E+00 0. -1.
</event>
<event>
 7    1  0.2820496E-009  0.1009103E+03  0.7561462E-02  0.1278393E+00
         -1   -1    0    0    0  501 -0.00000000000E+00  0.00000000000E+00  0.15111161647E+03  0.15111161647E+03  0.00000000000E+00 0.  1.
          1   -1    0    0  501    0  0.00000000000E+00 -0.00000000000E+00 -0.79839997893E+02  0.79839997893E+02  0.00000000000E+00 0. -1.
         25    2    1    2    0    0  0.49785252593E+01 -0.47735695909E+01  0.60603576274E+02  0.13916717839E+03  0.12508851827E+03 0.  0.
          5    1    3    3  502    0  0.57847952831E+02  0.15636915143E+02  0.56050716971E+02  0.82158712471E+02  0.41800000000E+01 0.  1.
         -5    1    3    3    0  502 -0.52869427572E+02 -0.20410484733E+02  0.45528593030E+01  0.57008465921E+02  0.41800000000E+01 0.  1.
        -11    1    1    2    0    0 -0.43505689294E+02  0.13244572703E+02 -0.10984952511E+02  0.46784964345E+02  0.00000000000E+00 0. -1.
         11    1    1    2    0    0  0.38527164035E+02 -0.84710031122E+01  0.21652994815E+02  0.44999471627E+02  0.00000000000E+00 0.  1.
</event>
<event>
 7    1  0.2820496E-009  0.1003760E+03  0.7561462E-02  0.1279507E+00
         -3   -1    0    0    0  501 -0.00000000000E+00  0.00000000000E+00  0.21120329506E+02  0.21120329506E+02  0.00000000000E+00 0.  1.
          3   -1    0    0  501    0  0.00000000000E+00 -0.00000000000E+00 -0.80601846508E+03  0.80601846508E+03  0.00000000000E+00 0. -1.
         25    2    1    2    0    0 -0.30604058822E+02  0.69396530807E+02 -0.36902985076E+03  0.39696307274E+03  0.12507663034E+03 0.  0.
          5    1    3    3  502    0 -0.18853449604E+02 -0.91107531788E+00  0.17111372250E+01  0.19408323235E+02  0.41800000000E+01 0. -1.
         -5    1    3    3    0  502 -0.11750609218E+02  0.70307606125E+02 -0.37074098799E+03  0.37755474950E+03  0.41800000000E+01 0. -1.
        -11    1    1    2    0    0  0.28482230851E+01  0.18047430621E+02 -0.70936540681E+02  0.73251723056E+02  0.00000000000E+00 0.  1.
         11    1    1    2    0    0  0.27755835737E+02 -0.87443961429E+02 -0.34493174413E+03  0.35692399880E+03  0.00000000000E+00 0. -1.
</event>
<event>
 7    1  0.2820496E-009  0.9343179E+02  0.7561462E-02  0.1294748E+00
          1   -1    0    0  501    0  0.00000000000E+00  0.00000000000E+00  0.12194281664E+04  0.12194281664E+04  0.00000000000E+00 0. -1.
         -1   -1    0    0    0  501 -0.00000000000E+00 -0.00000000000E+00 -0.19557114604E+02  0.19557114604E+02  0.00000000000E+00 0.  1.
         25    2    1    2    0    0 -0.46860826886E+01  0.46380600502E+02  0.10493052277E+04  0.10577624460E+04  0.12508721692E+03 0.  0.
          5    1    3    3  502    0 -0.54860554362E+02  0.53985636030E+02  0.47604380397E+03  0.48224403057E+03  0.41800000000E+01 0. -1.
         -5    1    3    3    0  502  0.50174471673E+02 -0.76050355282E+01  0.57326142374E+03  0.57551841545E+03  0.41800000000E+01 0. -1.
        -11    1    1    2    0    0  0.19555804214E+02 -0.16910328350E+02  0.14555779359E+03  0.14783592242E+03  0.00000000000E+00 0. -1.
         11    1    1    2    0    0 -0.14869721526E+02 -0.29470272152E+02  0.50080304602E+01  0.33386912526E+02  0.00000000000E+00 0.  1.
</event>
<event>
 7    1  0.2820496E-009  0.1058490E+03  0.7561462E-02  0.1268456E+00
          1   -1    0    0  501    0  0.00000000000E+00  0.00000000000E+00  0.36921306683E+03  0.36921306683E+03  0.00000000000E+00 0. -1.
         -1   -1    0    0    0  501 -0.00000000000E+00 -0.00000000000E+00 -0.36098987530E+02  0.36098987530E+02  0.00000000000E+00 0.  1.
         25    2    1    2    0    0  0.75568349331E+01 -0.41958765579E+02  0.16681626374E+03  0.21282176987E+03  0.12509115125E+03 0.  0.
          5    1    3    3  502    0  0.50401694881E+02  0.12347374720E+02  0.31649289365E+02  0.60925679534E+02  0.41800000000E+01 0. -1.
         -5    1    3    3    0  502 -0.42844859948E+02 -0.54306140299E+02  0.13516697438E+03  0.15189609034E+03  0.41800000000E+01 0. -1.
        -11    1    1    2    0    0  0.35733327945E+02  0.26040509574E+02  0.46720112186E+02  0.64325327419E+02  0.00000000000E+00 0. -1.
         11    1    1    2    0    0 -0.43290162878E+02  0.15918256005E+02  0.11957770337E+03  0.12816495706E+03  0.00000000000E+00 0.  1.
</event>
<event>
 7    1  0.2820496E-009  0.1262977E+03  0.7561462E-02  0.1233055E+00
          3   -1    0    0  501    0  0.00000000000E+00  0.00000000000E+00  0.80899767571E+02  0.80899767571E+02  0.00000000000E+00 0. -1.
         -3   -1    0    0    0  501 -0.00000000000E+00 -0.00000000000E+00 -0.23998342944E+03  0.23998342944E+03  0.00000000000E+00 0.  1.
         25    2    1    2    0    0  0.70188740968E+02 -0.52191484233E+02 -0.90480142648E+02  0.17744192802E+03  0.12509424935E+03 0.  0.
          5    1    3    3  502    0  0.10586294798E+02 -0.74427649781E+02 -0.11858959907E+02  0.76221073330E+02  0.41800000000E+01 0.  1.
         -5    1    3    3    0  502  0.59602446169E+02  0.22236165549E+02 -0.78621182741E+02  0.10122085469E+03  0.41800000000E+01 0.  1.
        -11    1    1    2    0    0  0.14260238387E+02 -0.27565362756E-01 -0.36345297742E+02  0.39042743585E+02  0.00000000000E+00 0.  1.
         11    1    1    2    0    0 -0.84448979355E+02  0.52219049595E+02 -0.32258221479E+02  0.10439852541E+03  0.00000000000E+00 0. -1.
</event>
<event>
 7    1  0.2820496E-009  0.1111844E+03  0.7561462E-02  0.1258392E+00
         -3   -1    0    0    0  501 -0.00000000000E+00  0.00000000000E+00  0.15408146356E+03  0.15408146356E+03  0.00000000000E+00 0. -1.
          3   -1    0    0  501    0  0.00000000000E+00 -0.00000000000E+00 -0.17066347496E+03  0.17066347496E+03  0.00000000000E+00 0.  1.
         25    2    1    2    0    0 -0.85196315185E+01 -0.65089715824E+02  0.91035018395E+02  0.16805646463E+03  0.12508535287E+03 0.  0.
          5    1    3    3  502    0  0.29596365898E+02  0.25640509319E+02  0.10322354006E+02  0.40711226765E+02  0.41800000000E+01 0. -1.
         -5    1    3    3    0  502 -0.38115997416E+02 -0.90730225143E+02  0.80712664389E+02  0.12734523786E+03  0.41800000000E+01 0. -1.
        -11    1    1    2    0    0 -0.18350710759E+02  0.55596260962E+01 -0.85664935505E+02  0.87784618258E+02  0.00000000000E+00 0.  1.
         11    1    1    2    0    0  0.26870342277E+02  0.59530089728E+02 -0.21952094287E+02  0.68903855630E+02  0.00000000000E+00 0. -1.
</event>
<event>
 7    1  0.2820496E-009  0.1045295E+03  0.7561462E-02  0.1271049E+00
          1   -1    0    0  501    0  0.00000000000E+00  0.00000000000E+00  0.53461437128E+02  0.53461437128E+02  0.00000000000E+00 0. -1.
         -1   -1    0    0    0  501 -0.00000000000E+00 -0.00000000000E+00 -0.23149248494E+03  0.23149248494E+03  0.00000000000E+00 0.  1.
         25    2    1    2    0    0  0.22101121205E+02  0.77755689159E+00 -0.10916281720E+03  0.16749442038E+03  0.12509514797E+03 0.  0.
          5    1    3    3  502    0 -0.50696862965E+02 -0.10104705015E+02 -0.57709572685E+02  0.77589587945E+02  0.41800000000E+01 0. -1.
         -5    1    3    3    0  502  0.72797984170E+02  0.10882261907E+02 -0.51453244513E+02  0.89904832430E+02  0.41800000000E+01 0. -1.
        -11    1    1    2    0    0  0.30678726872E+02 -0.86532976809E+00 -0.54845204743E+02  0.62848465068E+02  0.00000000000E+00 0.  1.
         11    1    1    2    0    0 -0.52779848077E+02  0.87772876498E-01 -0.14023025876E+02  0.54611036630E+02  0.00000000000E+00 0. -1.
</event>
<event>
 7    1  0.2820496E-009  0.9872793E+02  0.7561462E-02  0.1282994E+00
          2   -1    0    0  501    0  0.00000000000E+00  0.00000000000E+00  0.61092749430E+03  0.61092749430E+03  0.00000000000E+00 0. -1.
         -2   -1    0    0    0  501 -0.00000000000E+00 -0.00000000000E+00 -0.22771555790E+02  0.22771555790E+02  0.00000000000E+00 0.  1.
         25    2    1    2    0    0  0.16203757540E+02  0.51840251610E+01  0.43946244221E+03  0.45723534737E+03  0.12508992324E+03 0.  0.
          5    1    3    3  502    0  0.79737194081E+01  0.53439444186E+02  0.35819438049E+03  0.36227067368E+03  0.41800000000E+01 0. -1.
         -5    1    3    3    0  502  0.82300381322E+01 -0.48255419025E+02  0.81268061725E+02  0.94964673692E+02  0.41800000000E+01 0. -1.
        -11    1    1    2    0    0 -0.51254102308E+02  0.15359290035E+02  0.96275918725E+02  0.11014510121E+03  0.00000000000E+00 0.  1.
         11    1    1    2    0    0  0.35050344767E+02 -0.20543315196E+02  0.52417577570E+02  0.66318601508E+02  0.00000000000E+00 0. -1.
</event>
<event>
 7    1  0.3228184E-009  0.1620448E+03  0.7561462E-02  0.1186407E+00
          2   -1    0    0  501    0  0.00000000000E+00  0.00000000000E+00  0.36808531143E+03  0.36808531143E+03  0.00000000000E+00 0. -1.
         -2   -1    0    0    0  501 -0.00000000000E+00 -0.00000000000E+00 -0.78210364237E+02  0.78210364237E+02  0.00000000000E+00 0.  1.
         25    2    1    2    0    0  0.19542394211E+02 -0.11878776148E+03  0.21865537460E+03  0.27919341608E+03  0.12508538400E+03 0.  0.
          5    1    3    3  502    0 -0.52370269225E+02 -0.38540214925E+02  0.71192227143E+02  0.96508024903E+02  0.41800000000E+01 0.  1.
         -5    1    3    3    0  502  0.71912663435E+02 -0.80247546560E+02  0.14746314745E+03  0.18268539117E+03  0.41800000000E+01 0.  1.
        -11    1    1    2    0    0 -0.56207174284E+02  0.64069481123E+02  0.37669224212E+02  0.93183235108E+02  0.00000000000E+00 0. -1.
         11    1    1    2    0    0  0.36664780073E+02  0.54718280361E+02  0.33550348380E+02  0.73919024479E+02  0.00000000000E+00 0.  1.
</event>
<event>
 7    1  0.2820496E-009  0.7281334E+02  0.7561462E-02  0.1350779E+00
          2   -1    0    0  501    0  0.00000000000E+00  0.00000000000E+00  0.35723254103E+03  0.35723254103E+03  0.00000000000E+00 0.  1.
         -2   -1    0    0    0  501 -0.00000000000E+00 -0.00000000000E+00 -0.41392611776E+02  0.41392611776E+02  0.00000000000E+00 0. -1.
         25    2    1    2    0    0 -0.18373137277E+02  0.21228875803E+02  0.25516543694E+03  0.28556077687E+03  0.12508924708E+03 0.  0.
          5    1    3    3  502    0 -0.32337295234E+02  0.48077674439E+02  0.24727616246E+03  0.25400814231E+03  0.41800000000E+01 0.  1.
         -5    1    3    3    0  502  0.13964157957E+02 -0.26848798636E+02  0.78892744883E+01  0.31552634559E+02  0.41800000000E+01 0.  1.
        -11    1    1    2    0    0  0.20782654046E+02  0.11779250710E+02  0.73717118141E+02  0.77491179908E+02  0.00000000000E+00 0.  1.
         11    1    1    2    0    0 -0.24095167684E+01 -0.33008126513E+02 -0.13042625831E+02  0.35573196026E+02  0.00000000000E+00 0. -1.
</event>
<event>
 7    1  0.2820496E-009  0.8132640E+02  0.7561462E-02  0.1325329E+00
          1   -1    0    0  501    0  0.00000000000E+00  0.00000000000E+00  0.56948476216E+02  0.56948476216E+02  0.00000000000E+00 0. -1.
         -1   -1    0    0    0  501 -0.00000000000E+00 -0.00000000000E+00 -0.22927395802E+03  0.22927395802E+03  0.00000000000E+00 0.  1.
         25    2    1    2    0    0  0.25878797354E+02 -0.25966719376E+02 -0.96967445033E+02  0.16246140590E+03  0.12508813031E+03 0.  0.
          5    1    3    3  502    0 -0.35882417469E+02 -0.20348121034E+02 -0.91022473708E+02  0.10002078301E+03  0.41800000000E+01 0. -1.
         -5    1    3    3    0  502  0.61761214823E+02 -0.56185983417E+01 -0.59449713257E+01  0.62440622897E+02  0.41800000000E+01 0. -1.
        -11    1    1    2    0    0 -0.38854796818E+02  0.24597370206E+02  0.12959943742E+01  0.46004406944E+02  0.00000000000E+00 0. -1.
         11    1    1    2    0    0  0.12975999464E+02  0.13693491700E+01 -0.76654031150E+02  0.77756621395E+02  0.00000000000E+00 0.  1.
</event>
<event>
 7    1  0.2820496E-009  0.1009181E+03  0.7561462E-02  0.1278377E+00
         -1   -1    0    0    0  501 -0.00000000000E+00  0.00000000000E+00  0.17973733228E+03  0.17973733228E+03  0.00000000000E+00 0.  1.
          1   -1    0    0  501    0  0.00000000000E+00 -0.00000000000E+00 -0.80209814038E+02  0.80209814038E+02  0.00000000000E+00 0. -1.
         25    2    1    2    0    0  0.40225592495E+02  0.25403499003E+02  0.79636204220E+02  0.15573487868E+03  0.12509193164E+03 0.  0.
          5    1    3    3  502    0 -0.21950855831E+02  0.37989259206E+02 -0.10620522600E+02  0.45335326038E+02  0.41800000000E+01 0. -1.
         -5    1    3    3    0  502  0.62176448326E+02 -0.12585760203E+02  0.90256726820E+02  0.11039955264E+03  0.41800000000E+01 0. -1.
        -11    1    1    2    0    0  0.23421567281E+02  0.45253385635E+01  0.23896930497E+02  0.33765541462E+02  0.00000000000E+00 0.  1.
         11    1    1    2    0    0 -0.63647159776E+02 -0.29928837567E+02 -0.40056164789E+01  0.70446726177E+02  0.00000000000E+00 0. -1.
</event>
<event>
 7    1  0.2820496E-009  0.9950177E+02  0.7561462E-02  0.1281347E+00
         -2   -1    0    0    0  501 -0.00000000000E+00  0.00000000000E+00  0.24834840925E+02  0.24834840925E+02  0.00000000000E+00 0.  1.
          2   -1    0    0  501    0  0.00000000000E+00 -0.00000000000E+00 -0.48264015251E+03  0.48264015251E+03  0.00000000000E+00 0. -1.
         25    2    1    2    0    0  0.38092873922E+00  0.14276547015E+02 -0.26278283433E+03  0.29138850873E+03  0.12509388514E+03 0.  0.
          5    1    3    3  502    0  0.40591846238E+02 -0.31496765163E+02 -0.57543369358E+02  0.77255782656E+02  0.41800000000E+01 0.  1.
         -5    1    3    3    0  502 -0.40210917499E+02  0.45773312178E+02 -0.20523946498E+03  0.21413272608E+03  0.41800000000E+01 0.  1.
        -11    1    1    2    0    0  0.36814599991E+02 -0.28505779902E+02 -0.14413186335E+03  0.15146579909E+03  0.00000000000E+00 0. -1.
         11    1    1    2    0    0 -0.37195528730E+02  0.14229232887E+02 -0.50890613906E+02  0.64620685618E+02  0.00000000000E+00 0.  1.
</event>
<event>
 7    1  0.2820496E-009  0.8271331E+02  0.7561462E-02  0.1321523E+00
          1   -1    0    0  501    0  0.00000000000E+00  0.00000000000E+00  0.30172200709E+03  0.30172200709E+03  0.00000000000E+00 0. -1.
         -1   -1    0    0    0  501 -0.00000000000E+00 -0.00000000000E+00 -0.54511106720E+02  0.54511106720E+02  0.00000000000E+00 0.  1.
         25    2    1    2    0    0 -0.36683200307E+02  0.19530871640E+02  0.21665430921E+03  0.25360299609E+03  0.12509307652E+03 0.  0.
          5    1    3    3  502    0  0.24550090821E+02  0.23140260692E+02  0.64622456905E+01  0.34603636276E+02  0.41800000000E+01 0.  1.
         -5    1    3    3    0  502 -0.61233291128E+02 -0.36093890521E+01  0.21019206352E+03  0.21899935981E+03  0.41800000000E+01 0.  1.
        -11    1    1    2    0    0  0.29677626632E+02 -0.39144423839E+02 -0.15970948455E+02  0.51653834657E+02  0.00000000000E+00 0.  1.
         11    1    1    2    0    0  0.70055736752E+01  0.19613552199E+02  0.46527539611E+02  0.50976283061E+02  0.00000000000E+00 0. -1.
</event>
<event>
 7    1  0.2820496E-009  0.9096687E+02  0.7561462E-02  0.1300527E+00
          1   -1    0    0  501    0  0.00000000000E+00  0.00000000000E+00  0.85413338104E+03  0.85413338104E+03  0.00000000000E+00 0. -1.
         -1   -1    0    0    0  501 -0.00000000000E+00 -0.00000000000E+00 -0.46253451808E+02  0.46253451808E+02  0.00000000000E+00 0.  1.
         25    2    1    2    0    0  0.12210831738E+02  0.75793956805E+01  0.79653942865E+03  0.80642946480E+03  0.12508744403E+03 0.  0.
          5    1    3    3  502    0  0.64848941132E+02  0.20136061640E+02  0.34534806642E+03  0.35198523481E+03  0.41800000000E+01 0. -1.
         -5    1    3    3    0  502 -0.52638109394E+02 -0.12556665960E+02  0.45119136223E+03  0.45444422999E+03  0.41800000000E+01 0. -1.
        -11    1    1    2    0    0 -0.32449811321E+02  0.87632959944E+01 -0.30039812161E+02  0.45079662001E+02  0.00000000000E+00 0.  1.
         11    1    1    2    0    0  0.20238979584E+02 -0.16342691675E+02  0.41380312747E+02  0.48877706051E+02  0.00000000000E+00 0. -1.
</event>
<event>
 7    1  0.2820496E-009  0.1211499E+03  0.7561462E-02  0.1241212E+00
          2   -1    0    0  501    0  0.00000000000E+00  0.00000000000E+00  0.22518041296E+03  0.22518041296E+03  0.00000000000E+00 0. -1.
         -2   -1    0    0    0  501 -0.00000000000E+00 -0.00000000000E+00 -0.10119956799E+03  0.10119956799E+03  0.00000000000E+00 0.  1.
         25    2    1    2    0    0  0.10140811139E+03  0.23676416817E+02  0.56620412704E+02  0.17232732008E+03  0.12508659538E+03 0.  0.
          5    1    3    3  502    0  0.10759736302E+03  0.30993125234E+02  0.85931616065E+02  0.14120722850E+03  0.41800000000E+01 0.  1.
         -5    1    3    3    0  502 -0.61892516323E+01 -0.73167084171E+01 -0.29311203361E+02  0.31120091586E+02  0.41800000000E+01 0.  1.
        -11    1    1    2    0    0 -0.11612790272E+02 -0.27568770477E+02 -0.13806986444E+02  0.32947334918E+02  0.00000000000E+00 0.  1.
         11    1    1    2    0    0 -0.89795321116E+02  0.38923536599E+01  0.81167418713E+02  0.12110532594E+03  0.00000000000E+00 0. -1.
</event>
<event>
 7    1  0.2820496E-009  0.1080616E+03  0.7561462E-02  0.1264202E+00
         -2   -1    0    0    0  501 -0.00000000000E+00  0.00000000000E+00  0.21964949307E+03  0.21964949307E+03  0.00000000000E+00 0.  1.
          2   -1    0    0  501    0  0.00000000000E+00 -0.00000000000E+00 -0.65839559621E+02  0.65839559621E+02  0.00000000000E+00 0. -1.
         25    2    1    2    0    0 -0.41158473832E+02  0.21421752663E+02  0.51683980576E+02  0.14308142699E+03  0.12509256351E+03 0.  0.
          5    1    3    3  502    0 -0.56053361833E+02  0.55803645464E+02  0.12151682072E+00  0.79205513609E+02  0.41800000000E+01 0. -1.
         -5    1    3    3    0  502  0.14894888001E+02 -0.34381892801E+02  0.51562463755E+02  0.63875913376E+02  0.41800000000E+01 0. -1.
        -11    1    1    2    0    0 -0.13939517792E+02 -0.38972172581E+02  0.44407472940E+02  0.60705552010E+02  0.00000000000E+00 0.  1.
         11    1    1    2    0    0  0.55097991624E+02  0.17550419918E+02  0.57718479934E+02  0.81702073696E+02  0.00000000000E+00 0. -1.
</event>
<event>
 7    1  0.2820496E-009  0.1903089E+03  0.7561462E-02  0.1158183E+00
          1   -1    0    0  501    0  0.00000000000E+00  0.00000000000E+00  0.18631662068E+03  0.18631662068E+03  0.00000000000E+00 0. -1.
         -1   -1    0    0    0  501 -0.00000000000E+00 -0.00000000000E+00 -0.23770195136E+03  0.23770195136E+03  0.00000000000E+00 0.  1.
         25    2    1    2    0    0 -0.15056370339E+03 -0.93904178061E+02  0.35487047098E+01  0.21712937094E+03  0.12508056197E+03 0.  0.
          5    1    3    3  502    0 -0.82018928910E+02 -0.16680421788E+02 -0.53169995996E+02  0.99246471195E+02  0.41800000000E+01 0.  1.
         -5    1    3    3    0  502 -0.68544774481E+02 -0.77223756273E+02  0.56718700705E+02  0.11788289974E+03  0.41800000000E+01 0.  1.
        -11    1    1    2    0    0  0.33851379110E+02 -0.11960267891E+02  0.87191768051E+01  0.36945742920E+02  0.00000000000E+00 0. -1.
         11    1    1    2    0    0  0.11671232428E+03  0.10586444595E+03 -0.63653212192E+02  0.16994345818E+03  0.00000000000E+00 0.  1.
</event>
<event>
 7    1  0.2820496E-009  0.1061220E+03  0.7561462E-02  0.1267925E+00
          2   -1    0    0  501    0  0.00000000000E+00  0.00000000000E+00  0.71965280445E+03  0.71965280445E+03  0.00000000000E+00 0. -1.
         -2   -1    0    0    0  501 -0.00000000000E+00 -0.00000000000E+00 -0.22744373652E+02  0.22744373652E+02  0.00000000000E+00 0.  1.
         25    2    1    2    0    0  0.61514016053E+02 -0.25096372824E+02  0.40068247192E+03  0.42497928461E+03  0.12508855641E+03 0.  0.
          5    1    3    3  502    0 -0.23322770179E+02 -0.27276006720E+02  0.37831540778E+02  0.52312809417E+02  0.41800000000E+01 0.  1.
         -5    1    3    3    0  502  0.84836786232E+02  0.21796338969E+01  0.36285093115E+03  0.37266647520E+03  0.41800000000E+01 0.  1.
        -11    1    1    2    0    0  0.80043685151E+01  0.19881497668E+02  0.11582623710E+02  0.24361876711E+02  0.00000000000E+00 0.  1.
         11    1    1    2    0    0 -0.69518384568E+02  0.52148751553E+01  0.28464333516E+03  0.29305601677E+03  0.00000000000E+00 0. -1.
</event>
<event>
 7    1  0.2820496E-009  0.4766019E+03  0.7561462E-02  0.1020073E+00
          2   -1    0    0  501    0  0.00000000000E+00  0.00000000000E+00  0.23931490648E+04  0.23931490648E+04  0.00000000000E+00 0. -1.
         -2   -1    0    0    0  501 -0.00000000000E+00 -0.00000000000E+00 -0.10143416374E+03  0.10143416374E+03  0.00000000000E+00 0.  1.
         25    2    1    2    0    0  0.26671883813E+03 -0.38446990467E+03  0.87944057771E+03  0.10040030583E+04  0.12510141979E+03 0.  0.
          5    1    3    3  502    0  0.27524169827E+03 -0.38351475813E+03  0.87308167937E+03  0.99253748212E+03  0.41800000000E+01 0. -1.
         -5    1    3    3    0  502 -0.85228601464E+01 -0.95514654243E+00  0.63588983439E+01  0.11465576224E+02  0.41800000000E+01 0. -1.
        -11    1    1    2    0    0 -0.13238847493E+02  0.51120178479E+02  0.24027374583E+03  0.24600815569E+03  0.00000000000E+00 0.  1.
         11    1    1    2    0    0 -0.25347999063E+03  0.33334972619E+03  0.11720005775E+04  0.12445720145E+04  0.00000000000E+00 0. -1.
</event>
<event>
 7    1  0.2820496E-009  0.1343656E+03  0.7561462E-02  0.1221118E+00
         -1   -1    0    0    0  501 -0.00000000000E+00  0.00000000000E+00  0.28266912119E+02  0.28266912119E+02  0.00000000000E+00 0.  1.
          1   -1    0    0  501    0  0.00000000000E+00 -0.00000000000E+00 -0.85526154556E+03  0.85526154556E+03  0.00000000000E+00 0. -1.
         25    2    1    2    0    0 -0.93978498597E+02 -0.13632008754E+02 -0.57558856341E+03  0.59663058213E+03  0.12509223534E+03 0.  0.
          5    1    3    3  502    0 -0.20179279537E+02 -0.61950954093E+02 -0.30810234711E+03  0.31494388823E+03  0.41800000000E+01 0.  1.
         -5    1    3    3    0  502 -0.73799219060E+02  0.48318945338E+02 -0.26748621629E+03  0.28168669390E+03  0.41800000000E+01 0.  1.
        -11    1    1    2    0    0  0.11872447304E+02  0.29238793213E+02 -0.12758280181E+02  0.34038738912E+02  0.00000000000E+00 0.  1.
         11    1    1    2    0    0  0.82106051293E+02 -0.15606784458E+02 -0.23864778985E+03  0.25285913664E+03  0.00000000000E+00 0. -1.
</event>
<event>
 7    1  0.2820496E-009  0.7940930E+02  0.7561462E-02  0.1330736E+00
         -1   -1    0    0    0  501 -0.00000000000E+00  0.00000000000E+00  0.19314294435E+03  0.19314294435E+03  0.00000000000E+00 0.  1.
          1   -1    0    0  501    0  0.00000000000E+00 -0.00000000000E+00 -0.78912369611E+02  0.78912369611E+02  0.00000000000E+00 0. -1.
         25    2    1    2    0    0  0.10522328039E+02  0.83408799656E+01  0.12982571523E+03  0.18078089207E+03  0.12508686956E+03 0.  0.
          5    1    3    3  502    0 -0.25666352172E+02  0.26103066894E+02 -0.74983996692E+01  0.37600932604E+02  0.41800000000E+01 0. -1.
         -5    1    3    3    0  502  0.36188680211E+02 -0.17762186928E+02  0.13732411490E+03  0.14317995947E+03  0.41800000000E+01 0. -1.
        -11    1    1    2    0    0 -0.41040394153E+02  0.14282896540E+02 -0.27545669607E+02  0.51449771622E+02  0.00000000000E+00 0. -1.
         11    1    1    2    0    0  0.30518066114E+02 -0.22623776506E+02  0.11950529113E+02  0.39824650266E+02  0.00000000000E+00 0.  1.
</event>
<event>
 7    1  0.2820496E-009  0.1060905E+03  0.7561462E-02  0.1267986E+00
         -2   -1    0    0    0  501 -0.00000000000E+00  0.00000000000E+00  0.20713249987E+02  0.20713249987E+02  0.00000000000E+00 0.  1.
          2   -1    0    0  501    0  0.00000000000E+00 -0.00000000000E+00 -0.10272857396E+04  0.10272857396E+04  0.00000000000E+00 0. -1.
         25    2    1    2    0    0  0.42203873390E+01 -0.72693064649E+02 -0.79260539019E+03  0.80571270178E+03  0.12509020721E+03 0.  0.
          5    1    3    3  502    0  0.36882169078E+02 -0.52359687834E+01 -0.56090372352E+03  0.56215493346E+03  0.41800000000E+01 0.  1.
         -5    1    3    3    0  502 -0.32661781739E+02 -0.67457095866E+02 -0.23170166667E+03  0.24355776832E+03  0.41800000000E+01 0.  1.
        -11    1    1    2    0    0  0.24870647650E+02  0.42098388399E+01 -0.13833161373E+02  0.28768528137E+02  0.00000000000E+00 0.  1.
         11    1    1    2    0    0 -0.29091034989E+02  0.68483225810E+02 -0.20013393807E+03  0.21351775969E+03  0.00000000000E+00 0. -1.
</event>
<event>
 7    1  0.2820496E-009  0.1177691E+03  0.7561462E-02  0.1246823E+00
         -1   -1    0    0    0  501 -0.00000000000E+00  0.00000000000E+00  0.30596326059E+03  0.30596326059E+03  0.00000000000E+00 0.  1.
          1   -1    0    0  501    0  0.00000000000E+00 -0.00000000000E+00 -0.82916892597E+02  0.82916892597E+02  0.00000000000E+00 0. -1.
         25    2    1    2    0    0  0.59979203988E+02  0.99231080954E+02  0.13100123802E+03  0.21506469440E+03  0.12508871282E+03 0.  0.
          5    1    3    3  502    0  0.15043201117E+02  0.14225968583E+02  0.11570166028E+03  0.11761387109E+03  0.41800000000E+01 0. -1.
         -5    1    3    3    0  502  0.44936002871E+02  0.85005112371E+02  0.15299577735E+02  0.97450823301E+02  0.41800000000E+01 0. -1.
        -11    1    1    2    0    0 -0.17134703720E+02 -0.50287227370E+02 -0.87616772142E+01  0.53843943910E+02  0.00000000000E+00 0. -1.
         11    1    1    2    0    0 -0.42844500268E+02 -0.48943853583E+02  0.10080680719E+03  0.11997151488E+03  0.00000000000E+00 0.  1.
</event>
<event>
 7    1  0.2820496E-009  0.9934847E+02  0.7561462E-02  0.1281672E+00
         -1   -1    0    0    0  501 -0.00000000000E+00  0.00000000000E+00  0.23865276347E+02  0.23865276347E+02  0.00000000000E+00 0.  1.
          1   -1    0    0  501    0  0.00000000000E+00 -0.00000000000E+00 -0.56358164299E+03  0.56358164299E+03  0.00000000000E+00 0. -1.
         25    2    1    2    0    0  0.15209900916E+02  0.33271274121E+02 -0.35306132056E+03  0.37634824358E+03  0.12508951036E+03 0.  0.
          5    1    3    3  502    0  0.33068054955E+02  0.75808020057E+02 -0.24990834840E+03  0.26327173636E+03  0.41800000000E+01 0.  1.
         -5    1    3    3    0  502 -0.17858154039E+02 -0.42536745937E+02 -0.10315297216E+03  0.11307650722E+03  0.41800000000E+01 0.  1.
        -11    1    1    2    0    0 -0.12889109025E+02  0.15825957798E+02 -0.25784284995E+01  0.20572757842E+02  0.00000000000E+00 0.  1.
         11    1    1    2    0    0 -0.23207918907E+01 -0.49097231918E+02 -0.18407661758E+03  0.19052591791E+03  0.00000000000E+00 0. -1.
</event>
<event>
 7    1  0.2820496E-009  0.9196059E+02  0.7561462E-02  0.1298172E+00
          1   -1    0    0  501    0  0.00000000000E+00  0.00000000000E+00  0.14816688099E+03  0.14816688099E+03  0.00000000000E+00 0. -1.
         -1   -1    0    0    0  501 -0.00000000000E+00 -0.00000000000E+00 -0.11858252750E+03  0.11858252750E+03  0.00000000000E+00 0.  1.
         25    2    1    2    0    0 -0.36783753163E+02  0.13441601839E+02  0.79810490065E+02  0.15346737181E+03  0.12509515870E+03 0.  0.
          5    1    3    3  502    0  0.23338972201E+02  0.99972123941E+01 -0.22824449213E+02  0.34395926517E+02  0.41800000000E+01 0. -1.
         -5    1    3    3    0  502 -0.60122725364E+02  0.34443894448E+01  0.10263493928E+03  0.11907144529E+03  0.41800000000E+01 0. -1.
        -11    1    1    2    0    0 -0.10917894870E+01 -0.47124393619E+02 -0.90942304808E+01  0.48006306943E+02  0.00000000000E+00 0.  1.
         11    1    1    2    0    0  0.37875542650E+02  0.33682791780E+02 -0.41131906096E+02  0.65275729733E+02  0.00000000000E+00 0. -1.
</event>
<event>
 6    1  0.2820496E-009  0.1274504E+03  0.7561462E-02  0.1231289E+00
         -1   -1    0    0    0  501 -0.00000000000E+00  0.00000000000E+00  0.16205696291E+04  0.16205696291E+04  0.00000000000E+00 0.  1.
          1   -1    0    0  501    0  0.00000000000E+00 -0.00000000000E+00 -0.15085411350E+02  0.15085411350E+02  0.00000000000E+00 0. -1.
          5    1    1    2  502    0  0.36530765204E+02 -0.33341721146E+02  0.21689681044E+03  0.22250363133E+03  0.41800000000E+01 0. -1.
         -5    1    1    2    0  502 -0.73017014300E+02 -0.41090309774E+02  0.10219645785E+04  0.10254018578E+04  0.41800000000E+01 0. -1.
        -11    1    1    2    0    0  0.16488199296E+02 -0.19386804945E+02  0.12915318712E+03  0.13163682868E+03  0.00000000000E+00 0.  1.
         11    1    1    2    0    0  0.19998049800E+02  0.93818835865E+02  0.23746964170E+03  0.25611272262E+03  0.00000000000E+00 0. -1.
</event>
<event>
 7    1  0.2820496E-009  0.1322783E+03  0.7561462E-02  0.1224114E+00
         -3   -1    0    0    0  501 -0.00000000000E+00  0.00000000000E+00  0.19751692755E+03  0.19751692755E+03  0.00000000000E+00 0.  1.
          3   -1    0    0  501    0  0.00000000000E+00 -0.00000000000E+00 -0.13175788947E+03  0.13175788947E+03  0.00000000000E+00 0. -1.
         25    2    1    2    0    0 -0.97269193973E+02 -0.33342054396E+02 -0.26496177558E+02  0.16408013075E+03  0.12508898111E+03 0.  0.
          5    1    3    3  502    0 -0.10248293889E+03  0.15057622786E+02  0.84479853712E+01  0.10401118029E+03  0.41800000000E+01 0.  1.
         -5    1    3    3    0  502  0.52137449174E+01 -0.48399677181E+02 -0.34944162930E+02  0.60068950467E+02  0.41800000000E+01 0.  1.
        -11    1    1    2    0    0  0.31116097718E+02  0.33710693180E+02  0.87589295497E+02  0.98876220890E+02  0.00000000000E+00 0.  1.
         11    1    1    2    0    0  0.66153096254E+02 -0.36863878467E+00  0.46659201423E+01  0.66318465373E+02  0.00000000000E+00 0. -1.
</event>
<event>
 7    1  0.2820496E-009  0.1065140E+03  0.7561462E-02  0.1267165E+00
          4   -1    0    0  501    0  0.00000000000E+00  0.00000000000E+00  0.15634315290E+02  0.15634315290E+02  0.00000000000E+00 0. -1.
         -4   -1    0    0    0  501 -0.00000000000E+00 -0.00000000000E+00 -0.84292769458E+03  0.84292769458E+03  0.00000000000E+00 0.  1.
         25    2    1    2    0    0  0.20623876761E+02  0.18737919185E+01 -0.59318223936E+03  0.60658207465E+03  0.12509112199E+03 0.  0.
          5    1    3    3  502    0  0.11413553624E+02  0.60109754355E+02 -0.20668794156E+03  0.21559413109E+03  0.41800000000E+01 0.  1.
         -5    1    3    3    0  502  0.92103231373E+01 -0.58235962436E+02 -0.38649429781E+03  0.39098794356E+03  0.41800000000E+01 0.  1.
        -11    1    1    2    0    0  0.25528637747E+02 -0.29336265328E+02 -0.11270737274E+03  0.11922784774E+03  0.00000000000E+00 0. -1.
         11    1    1    2    0    0 -0.46152514507E+02  0.27462473410E+02 -0.12140376719E+03  0.13275208747E+03  0.00000000000E+00 0.  1.
</event>
<event>
 7    1  0.2820496E-009  0.1099928E+03  0.7561462E-02  0.1260583E+00
         -3   -1    0    0    0  501 -0.00000000000E+00  0.00000000000E+00  0.11561179320E+03  0.11561179320E+03  0.00000000000E+00 0.  1.
          3   -1    0    0  501    0  0.00000000000E+00 -0.00000000000E+00 -0.11268150670E+03  0.11268150670E+03  0.00000000000E+00 0. -1.
         25    2    1    2    0    0 -0.25415949497E+01 -0.38128018960E+02 -0.69461898091E+00  0.13080578235E+03  0.12509782039E+03 0.  0.
          5    1    3    3  502    0 -0.47782272133E+02  0.22349533674E+02 -0.12171627793E+02  0.54297956764E+02  0.41800000000E+01 0. -1.
         -5    1    3    3    0  502  0.45240677184E+02 -0.60477552634E+02  0.11477008812E+02  0.76507825586E+02  0.41800000000E+01 0. -1.
        -11    1    1    2    0    0  0.21512241327E+02 -0.20555280885E+02  0.17158090090E+02  0.34346705151E+02  0.00000000000E+00 0.  1.
         11    1    1    2    0    0 -0.18970646377E+02  0.58683299845E+02 -0.13533184612E+02  0.63140812399E+02  0.00000000000E+00 0. -1.
</event>
<event>
 7    1  0.2820496E-009  0.1001951E+03  0.7561462E-02  0.1279886E+00
          2   -1    0    0  501    0  0.00000000000E+00  0.00000000000E+00  0.90909101962E+03  0.90909101962E+03  0.00000000000E+00 0. -1.
         -2   -1    0    0    0  501 -0.00000000000E+00 -0.00000000000E+00 -0.32863095602E+02  0.32863095602E+02  0.00000000000E+00 0.  1.
         25    2    1    2    0    0  0.40149742830E+02 -0.25823390778E+02  0.80500994172E+03  0.81606816886E+03  0.12508957031E+03 0.  0.
          5    1    3    3  502    0  0.57155022662E+02 -0.49118410533E+02  0.75024285125E+03  0.75402992190E+03  0.41800000000E+01 0. -1.
         -5    1    3    3    0  502 -0.17005279832E+02  0.23295019754E+02  0.54767090470E+02  0.62038246962E+02  0.41800000000E+01 0. -1.
        -11    1    1    2    0    0 -0.35650205779E+02  0.55385712157E+02  0.69767504143E+02  0.95948001113E+02  0.00000000000E+00 0. -1.
         11    1    1    2    0    0 -0.44995370514E+01 -0.29562321379E+02  0.14504781587E+01  0.29937945251E+02  0.00000000000E+00 0.  1.
</event>
<event>
 7    1  0.2820496E-009  0.1084458E+03  0.7561462E-02  0.1263475E+00
          1   -1    0    0  501    0  0.00000000000E+00  0.00000000000E+00  0.97731030464E+03  0.97731030464E+03  0.00000000000E+00 0. -1.
         -1   -1    0    0    0  501 -0.00000000000E+00 -0.00000000000E+00 -0.13089307640E+02  0.13089307640E+02  0.00000000000E+00 0.  1.
         25    2    1    2    0    0 -0.91275634002E+01 -0.28406654225E+02  0.49925892147E+03  0.51555528581E+03  0.12509009410E+03 0.  0.
          5    1    3    3  502    0 -0.42343305445E+02  0.32104988455E+02  0.14221573236E+03  0.15187650487E+03  0.41800000000E+01 0.  1.
         -5    1    3    3    0  502  0.33215742045E+02 -0.60511642680E+02  0.35704318910E+03  0.36367878094E+03  0.41800000000E+01 0.  1.
        -11    1    1    2    0    0  0.46924579370E+02 -0.37529466839E+00  0.18374326837E+03  0.18964083333E+03  0.00000000000E+00 0.  1.
         11    1    1    2    0    0 -0.37797015970E+02  0.28781948894E+02  0.28121880717E+03  0.28520349314E+03  0.00000000000E+00 0. -1.
</event>
<event>
 7    1  0.2820496E-009  0.1001520E+03  0.7561462E-02  0.1279977E+00
          1   -1    0    0  501    0  0.00000000000E+00  0.00000000000E+00  0.19556291021E+03  0.19556291021E+03  0.00000000000E+00 0. -1.
         -1   -1    0    0    0  501 -0.00000000000E+00 -0.00000000000E+00 -0.67740932848E+02  0.67740932848E+02  0.00000000000E+00 0.  1.
         25    2    1    2    0    0 -0.16647490284E+02  0.22973698667E+02  0.10300642913E+03  0.16450886820E+03  0.12509162047E+03 0.  0.
          5    1    3    3  502    0 -0.50684668105E+02 -0.21305960936E+02  0.10143913442E+02  0.56064703087E+02  0.41800000000E+01 0. -1.
         -5    1    3    3    0  502  0.34037177821E+02  0.44279659603E+02  0.92862515684E+02  0.10844416512E+03  0.41800000000E+01 0. -1.
        -11    1    1    2    0    0 -0.32950951678E+02  0.31495901272E+01 -0.77068843549E+01  0.33986485563E+02  0.00000000000E+00 0.  1.
         11    1    1    2    0    0  0.49598441961E+02 -0.26123288794E+02  0.32522432588E+02  0.64808489289E+02  0.00000000000E+00 0. -1.
</event>
<event>
 7    1  0.2820496E-009  0.2233773E+03  0.7561462E-02  0.1131390E+00
         -1   -1    0    0    0  501 -0.00000000000E+00  0.00000000000E+00  0.90975272515E+02  0.90975272515E+02  0.00000000000E+00 0.  1.
          1   -1    0    0  501    0  0.00000000000E+00 -0.00000000000E+00 -0.58707248321E+03  0.58707248321E+03  0.00000000000E+00 0. -1.
         25    2    1    2    0    0  0.14443556808E+03  0.14077389798E+03 -0.21744631767E+03  0.32188312218E+03  0.12508764766E+03 0.  0.
          5    1    3    3  502    0  0.16138327973E+03  0.10221615756E+03 -0.19846485327E+03  0.27549678079E+03  0.41800000000E+01 0. -1.
         -5    1    3    3    0  502 -0.16947711649E+02  0.38557740424E+02 -0.18981464398E+02  0.46386341389E+02  0.41800000000E+01 0. -1.
        -11    1    1    2    0    0 -0.91898217697E+02 -0.13083416088E+03 -0.24638283364E+03  0.29371305858E+03  0.00000000000E+00 0. -1.
         11    1    1    2    0    0 -0.52537350384E+02 -0.99397371008E+01 -0.32268059384E+02  0.62451574963E+02  0.00000000000E+00 0.  1.
</event>
<event>
 7    1  0.2820496E-009  0.1208263E+03  0.7561462E-02  0.1241740E+00
         -1   -1    0    0    0  501 -0.00000000000E+00  0.00000000000E+00  0.48732178404E+02  0.48732178404E+02  0.00000000000E+00 0.  1.
          1   -1    0    0  501    0  0.00000000000E+00 -0.00000000000E+00 -0.46086347164E+03  0.46086347164E+03  0.00000000000E+00 0. -1.
         25    2    1    2    0    0 -0.13135127181E+02  0.77221561554E+02 -0.10912466958E+03  0.18354937161E+03  0.12508587919E+03 0.  0.
          5    1    3    3  502    0  0.14777377917E+02  0.10601150289E+03 -0.82958498363E+02  0.13548577229E+03  0.41800000000E+01 0.  1.
         -5    1    3    3    0  502 -0.27912505099E+02 -0.28789941337E+02 -0.26166171215E+02  0.48063599315E+02  0.41800000000E+01 0.  1.
        -11    1    1    2    0    0  0.28161273535E+02 -0.73539269245E+02 -0.30015753111E+03  0.31031536367E+03  0.00000000000E+00 0.  1.
         11    1    1    2    0    0 -0.15026146354E+02 -0.36822923086E+01 -0.28490925429E+01  0.15730914760E+02  0.00000000000E+00 0. -1.
</event>
<event>
 7    1  0.2820496E-009  0.2472929E+03  0.7561462E-02  0.1115028E+00
          2   -1    0    0  501    0  0.00000000000E+00  0.00000000000E+00  0.41259555802E+03  0.41259555802E+03  0.00000000000E+00 0.  1.
         -2   -1    0    0    0  501 -0.00000000000E+00 -0.00000000000E+00 -0.23015298446E+03  0.23015298446E+03  0.00000000000E+00 0. -1.
         25    2    1    2    0    0 -0.15403559572E+03  0.19074623189E+03  0.25100988389E+03  0.37250965080E+03  0.12508552435E+03 0.  0.
          5    1    3    3  502    0 -0.19210137145E+02  0.51227580213E+02  0.13665377007E+03  0.14725834312E+03  0.41800000000E+01 0.  1.
         -5    1    3    3    0  502 -0.13482545857E+03  0.13951865168E+03  0.11435611382E+03  0.22525130769E+03  0.41800000000E+01 0.  1.
        -11    1    1    2    0    0  0.86957394408E+02 -0.11958548627E+03 -0.85784887515E+02  0.17094245785E+03  0.00000000000E+00 0. -1.
         11    1    1    2    0    0  0.67078201311E+02 -0.71160745624E+02  0.17217577187E+02  0.99296433838E+02  0.00000000000E+00 0.  1.
</event>
<event>
 7    1  0.2820496E-009  0.1884725E+03  0.7561462E-02  0.1159846E+00
         -2   -1    0    0    0  501 -0.00000000000E+00  0.00000000000E+00  0.17230813512E+03  0.17230813512E+03  0.00000000000E+00 0.  1.
          2   -1    0    0  501    0  0.00000000000E+00 -0.00000000000E+00 -0.31457635524E+03  0.31457635524E+03  0.00000000000E+00 0. -1.
         25    2    1    2    0    0  0.12180539894E+03  0.10963738831E+03 -0.20316942768E+03  0.28945250714E+03  0.12509206777E+03 0.  0.
          5    1    3    3  502    0  0.55119103942E+02 -0.61914438669E+01 -0.13247973211E+02  0.57178936601E+02  0.41800000000E+01 0.  1.
         -5    1    3    3    0  502  0.66686294993E+02  0.11582883218E+03 -0.18992145446E+03  0.23227357054E+03  0.41800000000E+01 0.  1.
        -11    1    1    2    0    0 -0.35881971648E+02 -0.93537626667E+02  0.27955499566E+02  0.10401112175E+03  0.00000000000E+00 0.  1.
         11    1    1    2    0    0 -0.85923427288E+02 -0.16099761642E+02  0.32945707991E+02  0.93420861465E+02  0.00000000000E+00 0. -1.
</event>
<event>
 7    1  0.2820496E-009  0.1495699E+03  0.7561462E-02  0.1201002E+00
          1   -1    0    0  501    0  0.00000000000E+00  0.00000000000E+00  0.15189763566E+04  0.15189763566E+04  0.00000000000E+00 0. -1.
         -1   -1    0    0    0  501 -0.00000000000E+00 -0.00000000000E+00 -0.20387226716E+02  0.20387226716E+02  0.00000000000E+00 0.  1.
         25    2    1    2    0    0  0.92149383199E+02 -0.94746466367E+02  0.97700357641E+03  0.99380709831E+03  0.12509260022E+03 0.  0.
          5    1    3    3  502    0 -0.10139502274E+01 -0.23380129756E+02  0.24666984046E+02  0.34257715399E+02  0.41800000000E+01 0.  1.
         -5    1    3    3    0  502  0.93163333426E+02 -0.71366336611E+02  0.95233659236E+03  0.95954938291E+03  0.41800000000E+01 0.  1.
        -11    1    1    2    0    0 -0.84921554492E+02  0.26002158997E+02  0.33519715120E+03  0.34676348260E+03  0.00000000000E+00 0. -1.
         11    1    1    2    0    0 -0.72278287067E+01  0.68744307370E+02  0.18638840231E+03  0.19879300244E+03  0.00000000000E+00 0.  1.
</event>
<event>
 7    1  0.2820496E-009  0.1723290E+03  0.7561462E-02  0.1175441E+00
         -4   -1    0    0    0  501 -0.00000000000E+00  0.00000000000E+00  0.87932754658E+02  0.87932754658E+02  0.00000000000E+00 0.  1.
          4   -1    0    0  501    0  0.00000000000E+00 -0.00000000000E+00 -0.35354626872E+03  0.35354626872E+03  0.00000000000E+00 0. -1.
         25    2    1    2    0    0  0.13955877330E+02  0.13558958802E+03 -0.17136069307E+03  0.25217381693E+03  0.12509134232E+03 0.  0.
          5    1    3    3  502    0  0.48245772834E+02  0.89839215287E+01 -0.73471640244E+02  0.88452923991E+02  0.41800000000E+01 0.  1.
         -5    1    3    3    0  502 -0.34289895504E+02  0.12660566649E+03 -0.97889052828E+02  0.16372089294E+03  0.41800000000E+01 0.  1.
        -11    1    1    2    0    0  0.33580672115E+02 -0.97923139654E+02 -0.59011344841E+02  0.11915931201E+03  0.00000000000E+00 0.  1.
         11    1    1    2    0    0 -0.47536549445E+02 -0.37666448363E+02 -0.35241476150E+02  0.70145894440E+02  0.00000000000E+00 0. -1.
</event>
<event>
 7    1  0.2820496E-009  0.2919556E+03  0.7561462E-02  0.1089333E+00
          2   -1    0    0  501    0  0.00000000000E+00  0.00000000000E+00  0.60922798947E+03  0.60922798947E+03  0.00000000000E+00 0. -1.
         -2   -1    0    0    0  501 -0.00000000000E+00 -0.00000000000E+00 -0.15316320401E+03  0.15316320401E+03  0.00000000000E+00 0.  1.
         25    2    1    2    0    0  0.11012371327E+03  0.25743533198E+03  0.30083317461E+03  0.42959006215E+03  0.12508733018E+03 0.  0.
          5    1    3    3  502    0  0.55506196604E+02  0.18318769033E+02  0.36852929153E+02  0.69225182899E+02  0.41800000000E+01 0.  1.
         -5    1    3    3    0  502  0.54617516671E+02  0.23911656295E+03  0.26398024546E+03  0.36036487925E+03  0.41800000000E+01 0.  1.
        -11    1    1    2    0    0 -0.12675566193E+02 -0.29617374337E+02 -0.11428692908E+02  0.34182946955E+02  0.00000000000E+00 0.  1.
         11    1    1    2    0    0 -0.97448147082E+02 -0.22781795764E+03  0.16666030375E+03  0.29861818438E+03  0.00000000000E+00 0. -1.
</event>
<event>
 7    1  0.2820496E-009  0.1478176E+03  0.7561462E-02  0.1203181E+00
          2   -1    0    0  501    0  0.00000000000E+00  0.00000000000E+00  0.13566812785E+04  0.13566812785E+04  0.00000000000E+00 0. -1.
         -2   -1    0    0    0  501 -0.00000000000E+00 -0.00000000000E+00 -0.41523695278E+02  0.41523695278E+02  0.00000000000E+00 0.  1.
         25    2    1    2    0    0  0.13954261753E+03  0.32573900486E+02  0.10367175352E+04  0.10540275007E+04  0.12513002586E+03 0.  0.
          5    1    3    3  502    0  0.47040574368E+02  0.23490158393E+02  0.76511141369E+03  0.76692734397E+03  0.41800000000E+01 0.  1.
         -5    1    3    3    0  502  0.92502043160E+02  0.90837420925E+01  0.27160612155E+03  0.28710015678E+03  0.41800000000E+01 0.  1.
        -11    1    1    2    0    0 -0.47358530474E+02 -0.32898798305E+02  0.77029284135E+01  0.58176425163E+02  0.00000000000E+00 0.  1.
         11    1    1    2    0    0 -0.92184087053E+02  0.32489781956E+00  0.27073711955E+03  0.28600104784E+03  0.00000000000E+00 0. -1.
</event>
<event>
 7    1  0.2820496E-009  0.9311336E+02  0.7561462E-02  0.1295483E+00
         -1   -1    0    0    0  501 -0.00000000000E+00  0.00000000000E+00  0.51738867395E+02  0.51738867395E+02  0.00000000000E+00 0.  1.
          1   -1    0    0  501    0  0.00000000000E+00 -0.00000000000E+00 -0.27770581270E+03  0.27770581270E+03  0.00000000000E+00 0. -1.
         25    2    1    2    0    0  0.18752190800E+02  0.78062447625E+01 -0.62591686098E+02  0.14134521784E+03  0.12509264295E+03 0.  0.
          5    1    3    3  502    0  0.43413371651E+01  0.58503499062E+02  0.77512795495E+00  0.58818193055E+02  0.41800000000E+01 0.  1.
         -5    1    3    3    0  502  0.14410853635E+02 -0.50697254300E+02 -0.63366814052E+02  0.82527024781E+02  0.41800000000E+01 0.  1.
        -11    1    1    2    0    0  0.92106138681E+01 -0.34606021093E+02 -0.23193941509E+02  0.42665806291E+02  0.00000000000E+00 0.  1.
         11    1    1    2    0    0 -0.27962804668E+02  0.26799776331E+02 -0.14018131770E+03  0.14543365597E+03  0.00000000000E+00 0. -1.
</event>
<event>
 7    1  0.2820496E-009  0.7615012E+02  0.7561462E-02  0.1340346E+00
         -2   -1    0    0    0  501 -0.00000000000E+00  0.00000000000E+00  0.21708094918E+02  0.21708094918E+02  0.00000000000E+00 0.  1.
          2   -1    0    0  501    0  0.00000000000E+00 -0.00000000000E+00 -0.97039523914E+03  0.97039523914E+03  0.00000000000E+00 0. -1.
         25    2    1    2    0    0  0.33636518436E+02 -0.30800969832E+01 -0.82516597421E+03  0.83527709988E+03  0.12509215091E+03 0.  0.
          5    1    3    3  502    0  0.20403696815E+01  0.28103674105E+02 -0.72587312434E+03  0.72643185822E+03  0.41800000000E+01 0. -1.
         -5    1    3    3    0  502  0.31596148755E+02 -0.31183771088E+02 -0.99292849869E+02  0.10884524165E+03  0.41800000000E+01 0. -1.
        -11    1    1    2    0    0 -0.41296116437E+02 -0.26235457872E+02 -0.11557190789E+03  0.12550113297E+03  0.00000000000E+00 0. -1.
         11    1    1    2    0    0  0.76595980009E+01  0.29315554855E+02 -0.79492621285E+01  0.31325101219E+02  0.00000000000E+00 0.  1.
</event>
<event>
 7    1  0.2820496E-009  0.2397925E+03  0.7561462E-02  0.1119931E+00
         -2   -1    0    0    0  501 -0.00000000000E+00  0.00000000000E+00  0.32731550184E+02  0.32731550184E+02  0.00000000000E+00 0.  1.
          2   -1    0    0  501    0  0.00000000000E+00 -0.00000000000E+00 -0.20862101610E+04  0.20862101610E+04  0.00000000000E+00 0. -1.
         25    2    1    2    0    0 -0.12809926511E+03 -0.19826843992E+03 -0.12416627780E+04  0.12700755063E+04  0.12508213949E+03 0.  0.
          5    1    3    3  502    0 -0.42817374223E+02 -0.39506594619E+02 -0.11396812869E+03  0.12806367678E+03  0.41800000000E+01 0.  1.
         -5    1    3    3    0  502 -0.85281890890E+02 -0.15876184530E+03 -0.11276946493E+04  0.11420118296E+04  0.41800000000E+01 0.  1.
        -11    1    1    2    0    0  0.10070182992E+03  0.18462777753E+03 -0.76119380543E+03  0.78971151961E+03  0.00000000000E+00 0. -1.
         11    1    1    2    0    0  0.27397435190E+02  0.13640662397E+02 -0.50622027453E+02  0.59154685268E+02  0.00000000000E+00 0.  1.
</event>
<event>
 7    1  0.2820496E-009  0.1537829E+03  0.7561462E-02  0.1195900E+00
          3   -1    0    0  501    0  0.00000000000E+00  0.00000000000E+00  0.60050526667E+03  0.60050526667E+03  0.00000000000E+00 0. -1.
         -3   -1    0    0    0  501 -0.00000000000E+00 -0.00000000000E+00 -0.50549592936E+02  0.50549592936E+02  0.00000000000E+00 0.  1.
         25    2    1    2    0    0  0.10526516233E+03 -0.80232740959E+02  0.35420804692E+03  0.39828260966E+03  0.12509056530E+03 0.  0.
          5    1    3    3  502    0  0.63399072147E+02  0.13587884131E+02  0.67480161030E+02  0.93675597020E+02  0.41800000000E+01 0.  1.
         -5    1    3    3    0  502  0.41866090186E+02 -0.93820625090E+02  0.28672788589E+03  0.30460701264E+03  0.41800000000E+01 0.  1.
        -11    1    1    2    0    0 -0.59419067188E+02  0.17258790234E+02  0.15042052365E+03  0.16264939385E+03  0.00000000000E+00 0. -1.
         11    1    1    2    0    0 -0.45846095145E+02  0.62973950725E+02  0.45327103166E+02  0.90122856099E+02  0.00000000000E+00 0.  1.
</event>
<event>
 7    1  0.2820496E-009  0.1141400E+03  0.7561462E-02  0.1253090E+00
          3   -1    0    0  501    0  0.00000000000E+00  0.00000000000E+00  0.53487172443E+03  0.53487172443E+03  0.00000000000E+00 0. -1.
         -3   -1    0    0    0  501 -0.00000000000E+00 -0.00000000000E+00 -0.42749704494E+02  0.42749704494E+02  0.00000000000E+00 0.  1.
         25    2    1    2    0    0 -0.81806362994E+02  0.62842433535E+02  0.22703997601E+03  0.27899236476E+03  0.12509251139E+03 0.  0.
          5    1    3    3  502    0 -0.71255096889E+02  0.39864569644E+02  0.23760151004E+03  0.25127360132E+03  0.41800000000E+01 0. -1.
         -5    1    3    3    0  502 -0.10551266105E+02  0.22977863891E+02 -0.10561534030E+02  0.27718763437E+02  0.41800000000E+01 0. -1.
        -11    1    1    2    0    0  0.61783673807E+02 -0.75232519842E+02  0.13503757180E+03  0.16647011801E+03  0.00000000000E+00 0.  1.
         11    1    1    2    0    0  0.20022689186E+02  0.12390086307E+02  0.13004447213E+03  0.13215894616E+03  0.00000000000E+00 0. -1.
</event>
<event>
 6    1  0.2820496E-009  0.1635148E+03  0.7561462E-02  0.1184785E+00
         -2   -1    0    0    0  501 -0.00000000000E+00  0.00000000000E+00  0.44994052210E+02  0.44994052210E+02  0.00000000000E+00 0.  1.
          2   -1    0    0  501    0  0.00000000000E+00 -0.00000000000E+00 -0.68673318200E+03  0.68673318200E+03  0.00000000000E+00 0. -1.
          5    1    1    2  502    0 -0.36714400277E+02 -0.15625720632E+03 -0.30784511167E+03  0.34720361014E+03  0.41800000000E+01 0. -1.
         -5    1    1    2    0  502  0.68964174339E+01  0.21483859112E+02 -0.21496614109E+02  0.31443498436E+02  0.41800000000E+01 0. -1.
        -11    1    1    2    0    0  0.30358923087E+02  0.48356475405E+02 -0.21688610696E+03  0.22427571495E+03  0.00000000000E+00 0. -1.
         11    1    1    2    0    0 -0.54094024350E+00  0.86416871798E+02 -0.95511297054E+02  0.12880441069E+03  0.00000000000E+00 0.  1.
</event>
<event>
 7    1  0.2820496E-009  0.1401157E+03  0.7561462E-02  0.1213173E+00
          2   -1    0    0  501    0  0.00000000000E+00  0.00000000000E+00  0.41759781840E+03  0.41759781840E+03  0.00000000000E+00 0. -1.
         -2   -1    0    0    0  501 -0.00000000000E+00 -0.00000000000E+00 -0.75647454170E+02  0.75647454170E+02  0.00000000000E+00 0.  1.
         25    2    1    2    0    0  0.52026684299E+02 -0.11296357901E+03  0.96346470829E+02  0.20099209921E+03  0.12509050900E+03 0.  0.
          5    1    3    3  502    0  0.17016541919E+02 -0.97397353755E+02  0.12017648649E+03  0.15567808941E+03  0.41800000000E+01 0. -1.
         -5    1    3    3    0  502  0.35010142381E+02 -0.15566225256E+02 -0.23830015656E+02  0.45314009803E+02  0.41800000000E+01 0. -1.
        -11    1    1    2    0    0 -0.58400798474E+02  0.43120273339E+02  0.18788743790E+03  0.20142418067E+03  0.00000000000E+00 0. -1.
         11    1    1    2    0    0  0.63741141750E+01  0.69843305672E+02  0.57716455499E+02  0.90828992696E+02  0.00000000000E+00 0.  1.
</event>
<event>
 7    1  0.2820496E-009  0.1409142E+03  0.7561462E-02  0.1212104E+00
         -2   -1    0    0    0  501 -0.00000000000E+00  0.00000000000E+00  0.15860824360E+03  0.15860824360E+03  0.00000000000E+00 0.  1.
          2   -1    0    0  501    0  0.00000000000E+00 -0.00000000000E+00 -0.15435991411E+03  0.15435991411E+03  0.00000000000E+00 0. -1.
         25    2    1    2    0    0  0.31812257998E+02 -0.10348053159E+03 -0.18882570900E+02  0.16650712549E+03  0.12509129137E+03 0.  0.
          5    1    3    3  502    0 -0.78468145825E+01  0.12440418530E+02 -0.39354647570E+02  0.42220814744E+02  0.41800000000E+01 0. -1.
         -5    1    3    3    0  502  0.39659072580E+02 -0.11592095012E+03  0.20472076670E+02  0.12428631075E+03  0.41800000000E+01 0. -1.
        -11    1    1    2    0    0  0.34074294661E+02  0.38427339675E+02  0.15052048457E+02  0.53518988722E+02  0.00000000000E+00 0.  1.
         11    1    1    2    0    0 -0.65886552659E+02  0.65053191920E+02  0.80788519304E+01  0.92942043494E+02  0.00000000000E+00 0. -1.
</event>
<event>
 7    1  0.2820496E-009  0.1329802E+03  0.7561462E-02  0.1223100E+00
          1   -1    0    0  501    0  0.00000000000E+00  0.00000000000E+00  0.97038198146E+03  0.97038198146E+03  0.00000000000E+00 0. -1.
         -1   -1    0    0    0  501 -0.00000000000E+00 -0.00000000000E+00 -0.21748547482E+02  0.21748547482E+02  0.00000000000E+00 0.  1.
         25    2    1    2    0    0  0.64443898159E+02  0.71864682888E+02  0.50382038082E+03  0.52801643999E+03  0.12509530812E+03 0.  0.
          5    1    3    3  502    0  0.47362180685E+02  0.10339893959E+03  0.29680780205E+03  0.31787868853E+03  0.41800000000E+01 0. -1.
         -5    1    3    3    0  502  0.17081717473E+02 -0.31534256698E+02  0.20701257878E+03  0.21013775146E+03  0.41800000000E+01 0. -1.
        -11    1    1    2    0    0 -0.87939390678E+01 -0.58044497061E+02  0.11256369473E+03  0.12695307154E+03  0.00000000000E+00 0.  1.
         11    1    1    2    0    0 -0.55649959091E+02 -0.13820185828E+02  0.33224935843E+03  0.33716101741E+03  0.00000000000E+00 0. -1.
</event>
<event>
 7    1  0.2822618E-009  0.1374167E+03  0.7561462E-02  0.1216848E+00
         -2   -1    0    0    0  501 -0.00000000000E+00  0.00000000000E+00  0.22810376332E+02  0.22810376332E+02  0.00000000000E+00 0.  1.
          2   -1    0    0  501    0  0.00000000000E+00 -0.00000000000E+00 -0.11448042716E+04  0.11448042716E+04  0.00000000000E+00 0. -1.
         25    2    1    2    0    0  0.88481844872E+02 -0.41877170367E+01 -0.88798912810E+03  0.90112110185E+03  0.12509186523E+03 0.  0.
          5    1    3    3  502    0 -0.25710872851E+02 -0.25303549344E+02 -0.17548141458E+03  0.17919965919E+03  0.41800000000E+01 0. -1.
         -5    1    3    3    0  502  0.11419271772E+03  0.21115832307E+02 -0.71250771352E+03  0.72192144266E+03  0.41800000000E+01 0. -1.
        -11    1    1    2    0    0 -0.30437924197E+02 -0.39356023463E+02 -0.13399323630E+03  0.14293198098E+03  0.00000000000E+00 0.  1.
         11    1    1    2    0    0 -0.58043920675E+02  0.43543740500E+02 -0.10001153091E+03  0.12356156513E+03  0.00000000000E+00 0. -1.
</event>
<event>
 7    1  0.2820496E-009  0.9940920E+02  0.7561462E-02  0.1281543E+00
          2   -1    0    0  501    0  0.00000000000E+00  0.00000000000E+00  0.18890353873E+03  0.18890353873E+03  0.00000000000E+00 0. -1.
         -2   -1    0    0    0  501 -0.00000000000E+00 -0.00000000000E+00 -0.95607377968E+02  0.95607377968E+02  0.00000000000E+00 0.  1.
         25    2    1    2    0    0 -0.72962554443E+02  0.18876845358E+02  0.75597089900E+02  0.16444658290E+03  0.12509152243E+03 0.  0.
          5    1    3    3  502    0 -0.67228621223E+02  0.65660562239E+01 -0.17796299402E+02  0.69978434381E+02  0.41800000000E+01 0. -1.
         -5    1    3    3    0  502 -0.57339332201E+01  0.12310789134E+02  0.93393389303E+02  0.94468148520E+02  0.41800000000E+01 0. -1.
        -11    1    1    2    0    0  0.93509223249E+02 -0.22223794987E+02  0.62755560173E+01  0.96318505488E+02  0.00000000000E+00 0.  1.
         11    1    1    2    0    0 -0.20546668805E+02  0.33469496289E+01  0.11423514848E+02  0.23745828314E+02  0.00000000000E+00 0. -1.
</event>
<event>
 7    1  0.2820496E-009  0.2101057E+03  0.7561462E-02  0.1141482E+00
         -2   -1    0    0    0  501 -0.00000000000E+00  0.00000000000E+00  0.13431734455E+03  0.13431734455E+03  0.00000000000E+00 0.  1.
          2   -1    0    0  501    0  0.00000000000E+00 -0.00000000000E+00 -0.38944442901E+03  0.38944442901E+03  0.00000000000E+00 0. -1.
         25    2    1    2    0    0  0.45702196473E+02  0.19540131255E+03 -0.13496200533E+03  0.27227185196E+03  0.12508738859E+03 0.  0.
          5    1    3    3  502    0 -0.22109687559E+02  0.40690441252E+02  0.12341350547E+02  0.48107500730E+02  0.41800000000E+01 0. -1.
         -5    1    3    3    0  502  0.67811884033E+02  0.15471087129E+03 -0.14730335587E+03  0.22416435123E+03  0.41800000000E+01 0. -1.
        -11    1    1    2    0    0  0.64216275270E+01 -0.47348752765E+02 -0.73632652691E+02  0.87777612355E+02  0.00000000000E+00 0.  1.
         11    1    1    2    0    0 -0.52123824000E+02 -0.14805255978E+03 -0.46532426442E+02  0.16371230924E+03  0.00000000000E+00 0. -1.
</event>
<event>
 7    1  0.2862257E-009  0.1479867E+03  0.7561462E-02  0.1202969E+00
         -3   -1    0    0    0  501 -0.00000000000E+00  0.00000000000E+00  0.26576205727E+03  0.26576205727E+03  0.00000000000E+00 0.  1.
          3   -1    0    0  501    0  0.00000000000E+00 -0.00000000000E+00 -0.13835567526E+03  0.13835567526E+03  0.00000000000E+00 0. -1.
         25    2    1    2    0    0  0.70193338305E+02 -0.12871906413E+03  0.59629760344E+01  0.19281774086E+03  0.12508965542E+03 0.  0.
          5    1    3    3  502    0  0.24178676016E+01 -0.98499553782E+01  0.48294712366E+02  0.49524936619E+02  0.41800000000E+01 0.  1.
         -5    1    3    3    0  502  0.67775470704E+02 -0.11886910875E+03 -0.42331736331E+02  0.14329280424E+03  0.41800000000E+01 0.  1.
        -11    1    1    2    0    0 -0.65881410007E+02  0.10469947575E+03  0.13522756501E+03  0.18327256953E+03  0.00000000000E+00 0.  1.
         11    1    1    2    0    0 -0.43119282978E+01  0.24019588387E+02 -0.13784159032E+02  0.28027422146E+02  0.00000000000E+00 0. -1.
</event>
<event>
 7    1  0.2820496E-009  0.3230892E+03  0.7561462E-02  0.1074236E+00
         -2   -1    0    0    0  501 -0.00000000000E+00  0.00000000000E+00  0.13664057863E+03  0.13664057863E+03  0.00000000000E+00 0.  1.
          2   -1    0    0  501    0  0.00000000000E+00 -0.00000000000E+00 -0.80259875796E+03  0.80259875796E+03  0.00000000000E+00 0. -1.
         25    2    1    2    0    0 -0.70985820967E+02  0.29717687673E+03 -0.43181886176E+03  0.54357042048E+03  0.12509272485E+03 0.  0.
          5    1    3    3  502    0  0.27748367009E+02  0.18412804415E+02 -0.33179142601E+02  0.47194609246E+02  0.41800000000E+01 0.  1.
         -5    1    3    3    0  502 -0.98734187977E+02  0.27876407232E+03 -0.39863971916E+03  0.49637581124E+03  0.41800000000E+01 0.  1.
        -11    1    1    2    0    0  0.34362960031E+02 -0.25682720494E+02 -0.17189543885E+02  0.46215750271E+02  0.00000000000E+00 0.  1.
         11    1    1    2    0    0  0.36622860936E+02 -0.27149415624E+03 -0.21694977368E+03  0.34945316584E+03  0.00000000000E+00 0. -1.
</event>
<event>
 7    1  0.2969041E-009  0.1147276E+03  0.7561462E-02  0.1252057E+00
         -2   -1    0    0    0  501 -0.00000000000E+00  0.00000000000E+00  0.16677674236E+03  0.16677674236E+03  0.00000000000E+00 0.  1.
          2   -1    0    0  501    0  0.00000000000E+00 -0.00000000000E+00 -0.14063673751E+03  0.14063673751E+03  0.00000000000E+00 0. -1.
         25    2    1    2    0    0 -0.53615230394E+02 -0.51469893061E+02 -0.64361638424E+02  0.15910218630E+03  0.12508933752E+03 0.  0.
          5    1    3    3  502    0 -0.94374430183E+02 -0.30678117001E+02 -0.48152611574E+02  0.11038037116E+03  0.41800000000E+01 0. -1.
         -5    1    3    3    0  502  0.40759199788E+02 -0.20791776060E+02 -0.16209026850E+02  0.48721815140E+02  0.41800000000E+01 0. -1.
        -11    1    1    2    0    0  0.42286527766E+02  0.57481655224E+02  0.16548028161E+02  0.73253862381E+02  0.00000000000E+00 0. -1.
         11    1    1    2    0    0  0.11328702628E+02 -0.60117621630E+01  0.73953615117E+02  0.75057431187E+02  0.00000000000E+00 0.  1.
</event>
<event>
 7    1  0.2820496E-009  0.1066046E+03  0.7561462E-02  0.1266990E+00
         -1   -1    0    0    0  501 -0.00000000000E+00  0.00000000000E+00  0.39308928796E+02  0.39308928796E+02  0.00000000000E+00 0.  1.
          1   -1    0    0  501    0  0.00000000000E+00 -0.00000000000E+00 -0.31563175409E+03  0.31563175409E+03  0.00000000000E+00 0. -1.
         25    2    1    2    0    0 -0.17426499324E+02 -0.21846873237E+02 -0.16874917292E+03  0.21190685552E+03  0.12508902152E+03 0.  0.
          5    1    3    3  502    0  0.43786936587E+02 -0.35001786450E+02 -0.11976581963E+03  0.13230171889E+03  0.41800000000E+01 0.  1.
         -5    1    3    3    0  502 -0.61213435911E+02  0.13154913214E+02 -0.48983353292E+02  0.79605136627E+02  0.41800000000E+01 0.  1.
        -11    1    1    2    0    0  0.42070797410E+02 -0.19297504058E+02 -0.54403718316E+02  0.71429057282E+02  0.00000000000E+00 0. -1.
         11    1    1    2    0    0 -0.24644298086E+02  0.41144377295E+02 -0.53169934056E+02  0.71604770083E+02  0.00000000000E+00 0.  1.
</event>
<event>
 7    1  0.2820496E-009  0.1508977E+03  0.7561462E-02  0.1199374E+00
          2   -1    0    0  501    0  0.00000000000E+00  0.00000000000E+00  0.14459275021E+03  0.14459275021E+03  0.00000000000E+00 0. -1.
         -2   -1    0    0    0  501 -0.00000000000E+00 -0.00000000000E+00 -0.20262402205E+03  0.20262402205E+03  0.00000000000E+00 0.  1.
         25    2    1    2    0    0  0.72683467271E+02 -0.10676904944E+03 -0.23058866400E+01  0.17982389779E+03  0.12509516685E+03 0.  0.
          5    1    3    3  502    0  0.31175914423E+02  0.15268881449E+02  0.30882726066E+02  0.46650740081E+02  0.41800000000E+01 0.  1.
         -5    1    3    3    0  502  0.41507552848E+02 -0.12203793089E+03 -0.33188612706E+02  0.13317315770E+03  0.41800000000E+01 0.  1.
        -11    1    1    2    0    0 -0.47577844754E+01  0.47420384775E+02  0.17950600846E+02  0.50926942536E+02  0.00000000000E+00 0. -1.
         11    1    1    2    0    0 -0.67925682796E+02  0.59348664667E+02 -0.73675986055E+02  0.11646593194E+03  0.00000000000E+00 0.  1.
</event>
<event>
 7    1  0.2820496E-009  0.7556553E+02  0.7561462E-02  0.1342129E+00
          1   -1    0    0  501    0  0.00000000000E+00  0.00000000000E+00  0.18804449608E+03  0.18804449608E+03  0.00000000000E+00 0. -1.
         -1   -1    0    0    0  501 -0.00000000000E+00 -0.00000000000E+00 -0.80496020791E+02  0.80496020791E+02  0.00000000000E+00 0.  1.
         25    2    1    2    0    0 -0.33280560951E+02 -0.24286824735E+02  0.10452835297E+03  0.16813373403E+03  0.12508129497E+03 0.  0.
          5    1    3    3  502    0 -0.61471815971E+02  0.76913551227E+01  0.80981669586E+01  0.62617839395E+02  0.41800000000E+01 0. -1.
         -5    1    3    3    0  502  0.28191255021E+02 -0.31978179857E+02  0.96430186010E+02  0.10551589463E+03  0.41800000000E+01 0. -1.
        -11    1    1    2    0    0  0.16408004265E+02  0.24313050624E+02 -0.42625566447E+02  0.51742496553E+02  0.00000000000E+00 0.  1.
         11    1    1    2    0    0  0.16872556686E+02 -0.26225889866E-01  0.45645688765E+02  0.48664286286E+02  0.00000000000E+00 0. -1.
</event>
<event>
 7    1  0.2820496E-009  0.8715001E+02  0.7561462E-02  0.1309904E+00
         -4   -1    0    0    0  501 -0.00000000000E+00  0.00000000000E+00  0.33786744991E+03  0.33786744991E+03  0.00000000000E+00 0.  1.
          4   -1    0    0  501    0  0.00000000000E+00 -0.00000000000E+00 -0.45800187400E+02  0.45800187400E+02  0.00000000000E+00 0. -1.
         25    2    1    2    0    0  0.22012613353E+02  0.50807004046E+02  0.21082358599E+03  0.25131702360E+03  0.12509098742E+03 0.  0.
          5    1    3    3  502    0  0.24459249673E+02 -0.40384709895E+01 -0.74382917124E+01  0.26217641505E+02  0.41800000000E+01 0. -1.
         -5    1    3    3    0  502 -0.24466363198E+01  0.54845475036E+02  0.21826187770E+03  0.22509938210E+03  0.41800000000E+01 0. -1.
        -11    1    1    2    0    0 -0.42087909458E+02 -0.29353624254E+01  0.85872053676E+01  0.43055180537E+02  0.00000000000E+00 0.  1.
         11    1    1    2    0    0  0.20075296105E+02 -0.47871641621E+02  0.72656471154E+02  0.89295433174E+02  0.00000000000E+00 0. -1.
</event>
<event>
 7    1  0.3221518E-009  0.7432321E+02  0.7561462E-02  0.1345980E+00
         -1   -1    0    0    0  501 -0.00000000000E+00  0.00000000000E+00  0.54668726261E+02  0.54668726261E+02  0.00000000000E+00 0.  1.
          1   -1    0    0  501    0  0.00000000000E+00 -0.00000000000E+00 -0.26034167744E+03  0.26034167744E+03  0.00000000000E+00 0. -1.
         25    2    1    2    0    0 -0.47029411752E+01  0.30007280190E+02 -0.16782123125E+03  0.21150378559E+03  0.12508929266E+03 0.  0.
          5    1    3    3  502    0 -0.17403057475E+02 -0.37678276602E+02 -0.15883278066E+02  0.44634850277E+02  0.41800000000E+01 0.  1.
         -5    1    3    3    0  502  0.12700116300E+02  0.67685556792E+02 -0.15193795319E+03  0.16686893531E+03  0.41800000000E+01 0.  1.
        -11    1    1    2    0    0 -0.90741402241E+01 -0.15292661797E+02  0.28814408524E+02  0.33859646546E+02  0.00000000000E+00 0.  1.
         11    1    1    2    0    0  0.13777081399E+02 -0.14714618393E+02 -0.66666128446E+02  0.69646971566E+02  0.00000000000E+00 0. -1.
</event>
<event>
 7    1  0.2820496E-009  0.1323975E+03  0.7561462E-02  0.1223941E+00
         -1   -1    0    0    0  501 -0.00000000000E+00  0.00000000000E+00  0.36957775784E+02  0.36957775784E+02  0.00000000000E+00 0.  1.
          1   -1    0    0  501    0  0.00000000000E+00 -0.00000000000E+00 -0.66947850901E+03  0.66947850901E+03  0.00000000000E+00 0. -1.
         25    2    1    2    0    0 -0.15200778784E+02  0.10312236832E+03 -0.24417153368E+03  0.29349464427E+03  0.12511627327E+03 0.  0.
          5    1    3    3  502    0  0.10359145018E+02 -0.23513073728E+02 -0.82469692612E+02  0.86480628589E+02  0.41800000000E+01 0. -1.
         -5    1    3    3    0  502 -0.25559923802E+02  0.12663544205E+03 -0.16170184106E+03  0.20701401569E+03  0.41800000000E+01 0. -1.
        -11    1    1    2    0    0  0.10766781900E+01 -0.90672019528E+02 -0.38268256052E+03  0.39327918390E+03  0.00000000000E+00 0. -1.
         11    1    1    2    0    0  0.14124100594E+02 -0.12450348790E+02 -0.56666390356E+01  0.19662456626E+02  0.00000000000E+00 0.  1.
</event>
<event>
 7    1  0.2820496E-009  0.1797910E+03  0.7561462E-02  0.1168005E+00
         -2   -1    0    0    0  501 -0.00000000000E+00  0.00000000000E+00  0.75763637406E+03  0.75763637406E+03  0.00000000000E+00 0. -1.
          2   -1    0    0  501    0  0.00000000000E+00 -0.00000000000E+00 -0.49954049461E+02  0.49954049461E+02  0.00000000000E+00 0.  1.
         25    2    1    2    0    0 -0.98404462985E+02  0.10470465044E+03  0.21875308802E+03  0.29008057716E+03  0.12508927042E+03 0.  0.
          5    1    3    3  502    0 -0.11568136957E+03  0.39010749915E+02  0.14818264827E+03  0.19204058822E+03  0.41800000000E+01 0.  1.
         -5    1    3    3    0  502  0.17276906586E+02  0.65693900521E+02  0.70570439748E+02  0.98039988948E+02  0.41800000000E+01 0.  1.
        -11    1    1    2    0    0  0.11376195979E+03 -0.10377939613E+03  0.45172668520E+03  0.47725144806E+03  0.00000000000E+00 0. -1.
         11    1    1    2    0    0 -0.15357496805E+02 -0.92525430339E+00  0.37202551383E+02  0.40258398292E+02  0.00000000000E+00 0.  1.
</event>
<event>
 7    1  0.2820496E-009  0.1080768E+03  0.7561462E-02  0.1264173E+00
          1   -1    0    0  501    0  0.00000000000E+00  0.00000000000E+00  0.15740660596E+03  0.15740660596E+03  0.00000000000E+00 0. -1.
         -1   -1    0    0    0  501 -0.00000000000E+00 -0.00000000000E+00 -0.16404084158E+03  0.16404084158E+03  0.00000000000E+00 0.  1.
         25    2    1    2    0    0  0.19951298448E+02 -0.94610517035E+02  0.67099907426E+02  0.17175219182E+03  0.12508882274E+03 0.  0.
          5    1    3    3  502    0  0.52585529033E+01 -0.18777479204E+02 -0.37014768177E+02  0.42045351314E+02  0.41800000000E+01 0.  1.
         -5    1    3    3    0  502  0.14692745545E+02 -0.75833037831E+02  0.10411467560E+03  0.12970684051E+03  0.41800000000E+01 0.  1.
        -11    1    1    2    0    0 -0.42622154403E+02  0.83181600451E+02 -0.80573501115E+02  0.12340144157E+03  0.00000000000E+00 0.  1.
         11    1    1    2    0    0  0.22670855955E+02  0.11428916584E+02  0.68393580670E+01  0.26293814155E+02  0.00000000000E+00 0. -1.
</event>
<event>
 7    1  0.2820496E-009  0.1593287E+03  0.7561462E-02  0.1189457E+00
          2   -1    0    0  501    0  0.00000000000E+00  0.00000000000E+00  0.10864115097E+04  0.10864115097E+04  0.00000000000E+00 0. -1.
         -2   -1    0    0    0  501 -0.00000000000E+00 -0.00000000000E+00 -0.59357334360E+02  0.59357334360E+02  0.00000000000E+00 0.  1.
         25    2    1    2    0    0 -0.73238023443E+02 -0.12765111760E+03  0.92125308684E+03  0.94128380888E+03  0.12509733395E+03 0.  0.
          5    1    3    3  502    0 -0.69425156601E+02 -0.80398762495E+02  0.30125276338E+03  0.31945972081E+03  0.41800000000E+01 0.  1.
         -5    1    3    3    0  502 -0.38128668415E+01 -0.47252355103E+02  0.62000032346E+03  0.62182408807E+03  0.41800000000E+01 0.  1.
        -11    1    1    2    0    0  0.19358160330E+02  0.10422540317E+03  0.99512438413E+02  0.14539738112E+03  0.00000000000E+00 0. -1.
         11    1    1    2    0    0  0.53879863113E+02  0.23425714425E+02  0.62886501262E+01  0.59087654089E+02  0.00000000000E+00 0.  1.
</event>
<event>
 7    1  0.2820496E-009  0.2730967E+03  0.7561462E-02  0.1099520E+00
         -2   -1    0    0    0  501 -0.00000000000E+00  0.00000000000E+00  0.20707972448E+03  0.20707972448E+03  0.00000000000E+00 0.  1.
          2   -1    0    0  501    0  0.00000000000E+00 -0.00000000000E+00 -0.40549537303E+03  0.40549537303E+03  0.00000000000E+00 0. -1.
         25    2    1    2    0    0  0.21014323633E+03 -0.16628537546E+03 -0.96991538369E+02  0.31123221451E+03  0.12508847656E+03 0.  0.
          5    1    3    3  502    0  0.11865479302E+03 -0.91720417631E+02 -0.11850741311E+03  0.19118858302E+03  0.41800000000E+01 0. -1.
         -5    1    3    3    0  502  0.91488443314E+02 -0.74564957828E+02  0.21515874738E+02  0.12004363149E+03  0.41800000000E+01 0. -1.
        -11    1    1    2    0    0  0.46482084248E+01  0.14035944832E+02  0.73112045397E+01  0.16494462728E+02  0.00000000000E+00 0.  1.
         11    1    1    2    0    0 -0.21479144476E+03  0.15224943063E+03 -0.10873531472E+03  0.28484842028E+03  0.00000000000E+00 0. -1.
</event>
<event>
 7    1  0.3579105E-009  0.1321106E+03  0.7561462E-02  0.1224357E+00
          1   -1    0    0  501    0  0.00000000000E+00  0.00000000000E+00  0.13261935899E+04  0.13261935899E+04  0.00000000000E+00 0. -1.
         -1   -1    0    0    0  501 -0.00000000000E+00 -0.00000000000E+00 -0.20453600696E+02  0.20453600696E+02  0.00000000000E+00 0.  1.
         25    2    1    2    0    0 -0.10701088665E+03 -0.61518898847E+02  0.66400712850E+03  0.68686815861E+03  0.12508595384E+03 0.  0.
          5    1    3    3  502    0 -0.37403606694E+02 -0.21891651545E+02  0.52170933803E+03  0.52352304628E+03  0.41800000000E+01 0. -1.
         -5    1    3    3    0  502 -0.69607279952E+02 -0.39627247302E+02  0.14229779047E+03  0.16334511233E+03  0.41800000000E+01 0. -1.
        -11    1    1    2    0    0  0.15041995894E+02 -0.14697069673E+02  0.30901214987E+02  0.37378477566E+02  0.00000000000E+00 0. -1.
         11    1    1    2    0    0  0.91968890751E+02  0.76215968520E+02  0.61083164571E+03  0.62240055440E+03  0.00000000000E+00 0.  1.
</event>
<event>
 7    1  0.2820496E-009  0.8043824E+02  0.7561462E-02  0.1327812E+00
          1   -1    0    0  501    0  0.00000000000E+00  0.00000000000E+00  0.44340208262E+02  0.44340208262E+02  0.00000000000E+00 0. -1.
         -1   -1    0    0    0  501 -0.00000000000E+00 -0.00000000000E+00 -0.31553409666E+03  0.31553409666E+03  0.00000000000E+00 0.  1.
         25    2    1    2    0    0  0.19379550408E+02 -0.29414975423E+02 -0.20454834529E+03  0.24233952507E+03  0.12509041569E+03 0.  0.
          5    1    3    3  502    0 -0.77625594454E+01 -0.47851932525E+02 -0.20351032533E+03  0.20924624177E+03  0.41800000000E+01 0. -1.
         -5    1    3    3    0  502  0.27142109853E+02  0.18436957102E+02 -0.10380199566E+01  0.33093283305E+02  0.41800000000E+01 0. -1.
        -11    1    1    2    0    0  0.13012130275E+02  0.42319342397E+02 -0.69657599586E+02  0.82537406400E+02  0.00000000000E+00 0.  1.
         11    1    1    2    0    0 -0.32391680682E+02 -0.12904366974E+02  0.30120564765E+01  0.34997373453E+02  0.00000000000E+00 0. -1.
</event>
<event>
 7    1  0.2820496E-009  0.1483058E+03  0.7561462E-02  0.1202570E+00
         -2   -1    0    0    0  501 -0.00000000000E+00  0.00000000000E+00  0.59433561267E+02  0.59433561267E+02  0.00000000000E+00 0.  1.
          2   -1    0    0  501    0  0.00000000000E+00 -0.00000000000E+00 -0.58237635702E+03  0.58237635702E+03  0.00000000000E+00 0. -1.
         25    2    1    2    0    0  0.11900973514E+03 -0.49894857434E+02 -0.39905541862E+03  0.43766053818E+03  0.12509478684E+03 0.  0.
          5    1    3    3  502    0  0.11631670339E+02  0.29327994860E+02 -0.16644353089E+03  0.16945898740E+03  0.41800000000E+01 0. -1.
         -5    1    3    3    0  502  0.10737806480E+03 -0.79222852294E+02 -0.23261188773E+03  0.26820155078E+03  0.41800000000E+01 0. -1.
        -11    1    1    2    0    0 -0.10650504049E+03  0.35622561157E+02 -0.13984433645E+03  0.17935642991E+03  0.00000000000E+00 0.  1.
         11    1    1    2    0    0 -0.12504694643E+02  0.14272296277E+02  0.15956959311E+02  0.24792950199E+02  0.00000000000E+00 0. -1.
</event>
<event>
 7    1  0.2820496E-009  0.1099990E+03  0.7561462E-02  0.1260572E+00
          2   -1    0    0  501    0  0.00000000000E+00  0.00000000000E+00  0.43821563215E+03  0.43821563215E+03  0.00000000000E+00 0. -1.
         -2   -1    0    0    0  501 -0.00000000000E+00 -0.00000000000E+00 -0.41768654196E+02  0.41768654196E+02  0.00000000000E+00 0.  1.
         25    2    1    2    0    0 -0.11662693427E+02  0.43585246497E+02  0.33508004661E+03  0.36050246833E+03  0.12509076668E+03 0.  0.
          5    1    3    3  502    0  0.32567990455E+02  0.61604409081E+02  0.27454936978E+03  0.28328537920E+03  0.41800000000E+01 0.  1.
         -5    1    3    3    0  502 -0.44230683882E+02 -0.18019162585E+02  0.60530676824E+02  0.77217089129E+02  0.41800000000E+01 0.  1.
        -11    1    1    2    0    0  0.48640051968E+02 -0.43522384299E+02  0.34949947591E+02  0.74037500141E+02  0.00000000000E+00 0. -1.
         11    1    1    2    0    0 -0.36977358541E+02 -0.62862197560E-01  0.26416983755E+02  0.45444317874E+02  0.00000000000E+00 0.  1.
</event>
<event>
 7    1  0.2820496E-009  0.2512102E+03  0.7561462E-02  0.1112542E+00
         -2   -1    0    0    0  501 -0.00000000000E+00  0.00000000000E+00  0.40880791812E+03  0.40880791812E+03  0.00000000000E+00 0.  1.
          2   -1    0    0  501    0  0.00000000000E+00 -0.00000000000E+00 -0.17508119345E+03  0.17508119345E+03  0.00000000000E+00 0. -1.
         25    2    1    2    0    0 -0.21499295945E+03  0.47441341125E+02  0.21729584747E+03  0.33367531189E+03  0.12509626284E+03 0.  0.
          5    1    3    3  502    0 -0.22417694002E+03  0.21360006018E+02  0.19478903292E+03  0.29777808858E+03  0.41800000000E+01 0.  1.
         -5    1    3    3    0  502  0.91839805701E+01  0.26081335107E+02  0.22506814553E+02  0.35897223311E+02  0.41800000000E+01 0.  1.
        -11    1    1    2    0    0  0.15088553569E+03 -0.86729272918E+02  0.45705877568E+01  0.17409566891E+03  0.00000000000E+00 0. -1.
         11    1    1    2    0    0  0.64107423760E+02  0.39287931793E+02  0.11860289450E+02  0.76118130767E+02  0.00000000000E+00 0.  1.
</event>
<event>
 7    1  0.2820496E-009  0.1452414E+03  0.7561462E-02  0.1206445E+00
         -1   -1    0    0    0  501 -0.00000000000E+00  0.00000000000E+00  0.14485901728E+03  0.14485901728E+03  0.00000000000E+00 0.  1.
          1   -1    0    0  501    0  0.00000000000E+00 -0.00000000000E+00 -0.23804447976E+03  0.23804447976E+03  0.00000000000E+00 0. -1.
         25    2    1    2    0    0  0.94256855911E+02  0.73362149237E+02  0.42125913843E+02  0.17800814274E+03  0.12508375769E+03 0.  0.
          5    1    3    3  502    0  0.34773143927E+02  0.81353135612E+02 -0.20765827209E+02  0.90973601622E+02  0.41800000000E+01 0.  1.
         -5    1    3    3    0  502  0.59483711984E+02 -0.79909863753E+01  0.62891741053E+02  0.87034541116E+02  0.41800000000E+01 0.  1.
        -11    1    1    2    0    0 -0.10971915235E+02  0.16122847416E+02 -0.55691731482E+02  0.59007610426E+02  0.00000000000E+00 0. -1.
         11    1    1    2    0    0 -0.83284940676E+02 -0.89484996653E+02 -0.79619644839E+02  0.14588774388E+03  0.00000000000E+00 0.  1.
</event>
<event>
 7    1  0.2820496E-009  0.9871124E+02  0.7561462E-02  0.1283030E+00
          3   -1    0    0  501    0  0.00000000000E+00  0.00000000000E+00  0.34464695985E+02  0.34464695985E+02  0.00000000000E+00 0. -1.
         -3   -1    0    0    0  501 -0.00000000000E+00 -0.00000000000E+00 -0.49917040723E+03  0.49917040723E+03  0.00000000000E+00 0.  1.
         25    2    1    2    0    0  0.12594480637E+02 -0.14319158214E+02 -0.40446468678E+03  0.42379491180E+03  0.12508711036E+03 0.  0.
          5    1    3    3  502    0  0.26649056671E+02 -0.56311707857E+02 -0.11431508816E+03  0.13025587297E+03  0.41800000000E+01 0. -1.
         -5    1    3    3    0  502 -0.14054576034E+02  0.41992549643E+02 -0.29014959862E+03  0.29353903882E+03  0.41800000000E+01 0. -1.
        -11    1    1    2    0    0  0.20883807021E+02  0.42103578061E+02 -0.21899190487E+02  0.51849968421E+02  0.00000000000E+00 0. -1.
         11    1    1    2    0    0 -0.33478287659E+02 -0.27784419847E+02 -0.38341833984E+02  0.57990223004E+02  0.00000000000E+00 0.  1.
</event>
<event>
 7    1  0.2820496E-009  0.2249180E+03  0.7561462E-02  0.1130269E+00
          2   -1    0    0  501    0  0.00000000000E+00  0.00000000000E+00  0.18850356758E+03  0.18850356758E+03  0.00000000000E+00 0. -1.
         -2   -1    0    0    0  501 -0.00000000000E+00 -0.00000000000E+00 -0.55810179800E+03  0.55810179800E+03  0.00000000000E+00 0.  1.
         25    2    1    2    0    0  0.13445517732E+03  0.17715675455E+03  0.52570389615E+02  0.26052580909E+03  0.12508933187E+03 0.  0.
          5    1    3    3  502    0  0.16320887314E+02  0.41916229843E+02  0.66470985532E+02  0.80369185666E+02  0.41800000000E+01 0.  1.
         -5    1    3    3    0  502  0.11813429001E+03  0.13524052470E+03 -0.13900595917E+02  0.18015662343E+03  0.41800000000E+01 0.  1.
        -11    1    1    2    0    0 -0.95446864153E+02 -0.98026812190E+02 -0.33586616206E+03  0.36266436081E+03  0.00000000000E+00 0.  1.
         11    1    1    2    0    0 -0.39008313168E+02 -0.79129942356E+02 -0.86302457970E+02  0.12341519568E+03  0.00000000000E+00 0. -1.
</event>
<event>
 7    1  0.2820496E-009  0.1743105E+03  0.7561462E-02  0.1173426E+00
         -1   -1    0    0    0  501 -0.00000000000E+00  0.00000000000E+00  0.82492265076E+02  0.82492265076E+02  0.00000000000E+00 0.  1.
          1   -1    0    0  501    0  0.00000000000E+00 -0.00000000000E+00 -0.46592919411E+03  0.46592919411E+03  0.00000000000E+00 0. -1.
         25    2    1    2    0    0  0.13697418251E+03 -0.65286579094E+02 -0.13617252802E+03  0.23919401750E+03  0.12508619642E+03 0.  0.
          5    1    3    3  502    0  0.17558880952E+02 -0.63177269411E+02 -0.11883579006E+02  0.66771053013E+02  0.41800000000E+01 0. -1.
         -5    1    3    3    0  502  0.11941530156E+03 -0.21093096836E+01 -0.12428894902E+03  0.17242296449E+03  0.41800000000E+01 0. -1.
        -11    1    1    2    0    0 -0.11145058186E+03  0.22668635640E+02 -0.92230938408E+02  0.14642965969E+03  0.00000000000E+00 0.  1.
         11    1    1    2    0    0 -0.25523600654E+02  0.42617943455E+02 -0.15503346260E+03  0.16279778199E+03  0.00000000000E+00 0. -1.
</event>
<event>
 7    1  0.2820496E-009  0.1074926E+03  0.7561462E-02  0.1265285E+00
         -2   -1    0    0    0  501 -0.00000000000E+00  0.00000000000E+00  0.46026565387E+02  0.46026565387E+02  0.00000000000E+00 0.  1.
          2   -1    0    0  501    0  0.00000000000E+00 -0.00000000000E+00 -0.63676524203E+03  0.63676524203E+03  0.00000000000E+00 0. -1.
         25    2    1    2    0    0 -0.51994291232E+02  0.50943861163E+02 -0.53318012252E+03  0.55247404417E+03  0.12509133912E+03 0.  0.
          5    1    3    3  502    0 -0.30368986145E+02 -0.30312516901E+02 -0.32605641132E+03  0.32889417715E+03  0.41800000000E+01 0. -1.
         -5    1    3    3    0  502 -0.21625305087E+02  0.81256378065E+02 -0.20712371120E+03  0.22357986702E+03  0.41800000000E+01 0. -1.
        -11    1    1    2    0    0  0.10886981641E+02  0.95930544933E+01  0.19332816926E+02  0.24172523122E+02  0.00000000000E+00 0.  1.
         11    1    1    2    0    0  0.41107309591E+02 -0.60536915656E+02 -0.76891371050E+02  0.10614524012E+03  0.00000000000E+00 0. -1.
</event>
<event>
 7    1  0.2820496E-009  0.1094317E+03  0.7561462E-02  0.1261626E+00
         -1   -1    0    0    0  501 -0.00000000000E+00  0.00000000000E+00  0.62386777236E+03  0.62386777236E+03  0.00000000000E+00 0.  1.
          1   -1    0    0  501    0  0.00000000000E+00 -0.00000000000E+00 -0.21643223726E+02  0.21643223726E+02  0.00000000000E+00 0. -1.
         25    2    1    2    0    0 -0.18235784115E+02  0.24022824647E+02  0.44274919275E+03  0.46106747175E+03  0.12508687340E+03 0.  0.
          5    1    3    3  502    0 -0.70213761399E+02  0.68210317624E+00  0.21265851631E+03  0.22399007682E+03  0.41800000000E+01 0. -1.
         -5    1    3    3    0  502  0.51977977283E+02  0.23340721471E+02  0.23009067645E+03  0.23707739493E+03  0.41800000000E+01 0. -1.
        -11    1    1    2    0    0 -0.27369903096E+02 -0.35050637085E+02  0.62417346373E+02  0.76639310303E+02  0.00000000000E+00 0.  1.
         11    1    1    2    0    0  0.45605687212E+02  0.11027812438E+02  0.97058009506E+02  0.10780421403E+03  0.00000000000E+00 0. -1.
</event>
<event>
 7    1  0.2820496E-009  0.1152698E+03  0.7561462E-02  0.1251111E+00
          2   -1    0    0  501    0  0.00000000000E+00  0.00000000000E+00  0.38492726013E+03  0.38492726013E+03  0.00000000000E+00 0.  1.
         -2   -1    0    0    0  501 -0.00000000000E+00 -0.00000000000E+00 -0.62989150154E+02  0.62989150154E+02  0.00000000000E+00 0. -1.
         25    2    1    2    0    0  0.49347883702E+02 -0.75014813302E+02  0.26737900786E+03  0.30854902910E+03  0.12509409929E+03 0.  0.
          5    1    3    3  502    0 -0.22586487045E+02 -0.60072679515E+02  0.57963077698E+02  0.86579830200E+02  0.41800000000E+01 0.  1.
         -5    1    3    3    0  502  0.71934370748E+02 -0.14942133787E+02  0.20941593016E+03  0.22196919890E+03  0.41800000000E+01 0.  1.
        -11    1    1    2    0    0 -0.48338983608E+02  0.57614881885E+02  0.79178283481E+02  0.10920317086E+03  0.00000000000E+00 0.  1.
         11    1    1    2    0    0 -0.10089000941E+01  0.17399931417E+02 -0.24619181368E+02  0.30164210315E+02  0.00000000000E+00 0. -1.
</event>
<event>
 7    1  0.2820496E-009  0.1175707E+03  0.7561462E-02  0.1247159E+00
          3   -1    0    0  501    0  0.00000000000E+00  0.00000000000E+00  0.23857122691E+02  0.23857122691E+02  0.00000000000E+00 0. -1.
         -3   -1    0    0    0  501 -0.00000000000E+00 -0.00000000000E+00 -0.96445492007E+03  0.96445492007E+03  0.00000000000E+00 0.  1.
         25    2    1    2    0    0 -0.14560432066E+02 -0.97934103511E+02 -0.38779860027E+03  0.41933055545E+03  0.12508903049E+03 0.  0.
          5    1    3    3  502    0 -0.26058857758E+02 -0.48587721394E+02 -0.41025800598E+02  0.68850704083E+02  0.41800000000E+01 0. -1.
         -5    1    3    3    0  502  0.11498425692E+02 -0.49346382116E+02 -0.34677279967E+03  0.35047985137E+03  0.41800000000E+01 0. -1.
        -11    1    1    2    0    0  0.45275344260E+02  0.29611513804E+02 -0.15445925545E+03  0.16365928064E+03  0.00000000000E+00 0. -1.
         11    1    1    2    0    0 -0.30714912194E+02  0.68322589707E+02 -0.39833994166E+03  0.40532220667E+03  0.00000000000E+00 0.  1.
</event>
<event>
 7    1  0.2820496E-009  0.1096131E+03  0.7561462E-02  0.1261288E+00
         -1   -1    0    0    0  501 -0.00000000000E+00  0.00000000000E+00  0.98006436775E+02  0.98006436775E+02  0.00000000000E+00 0.  1.
          1   -1    0    0  501    0  0.00000000000E+00 -0.00000000000E+00 -0.17195495988E+03  0.17195495988E+03  0.00000000000E+00 0. -1.
         25    2    1    2    0    0 -0.35591839657E+02  0.52901268477E+02 -0.53461674621E+02  0.15022340329E+03  0.12507436583E+03 0.  0.
          5    1    3    3  502    0 -0.73160636970E+02  0.13048316903E+02 -0.12553634974E+01  0.74443171032E+02  0.41800000000E+01 0. -1.
         -5    1    3    3    0  502  0.37568797313E+02  0.39852951574E+02 -0.52206311123E+02  0.75780232263E+02  0.41800000000E+01 0. -1.
        -11    1    1    2    0    0  0.35264295788E+02  0.16595214373E+01  0.29297643890E+02  0.45876753441E+02  0.00000000000E+00 0.  1.
         11    1    1    2    0    0  0.32754386915E+00 -0.54560789914E+02 -0.49784492371E+02  0.73861239914E+02  0.00000000000E+00 0. -1.
</event>
<event>
 7    1  0.2820496E-009  0.8285986E+02  0.7561462E-02  0.1321126E+00
         -2   -1    0    0    0  501 -0.00000000000E+00  0.00000000000E+00  0.27648558531E+03  0.27648558531E+03  0.00000000000E+00 0.  1.
          2   -1    0    0  501    0  0.00000000000E+00 -0.00000000000E+00 -0.51840896948E+02  0.51840896948E+02  0.00000000000E+00 0. -1.
         25    2    1    2    0    0 -0.23908844453E+02 -0.20898698671E+02  0.17941072876E+03  0.22100779785E+03  0.12509136128E+03 0.  0.
          5    1    3    3  502    0  0.50262298644E+02  0.38944264234E+01  0.65144776465E+02  0.82478964123E+02  0.41800000000E+01 0. -1.
         -5    1    3    3    0  502 -0.74171143097E+02 -0.24793125094E+02  0.11426595230E+03  0.13852883373E+03  0.41800000000E+01 0. -1.
        -11    1    1    2    0    0  0.10061526358E+02 -0.18063911631E+01 -0.27785870530E+02  0.29606620252E+02  0.00000000000E+00 0. -1.
         11    1    1    2    0    0  0.13847318095E+02  0.22705089834E+02  0.73019830132E+02  0.77712064156E+02  0.00000000000E+00 0.  1.
</event>
<event>
 7    1  0.2820496E-009  0.1038681E+03  0.7561462E-02  0.1272366E+00
          2   -1    0    0  501    0  0.00000000000E+00  0.00000000000E+00  0.18357754440E+04  0.18357754440E+04  0.00000000000E+00 0. -1.
         -2   -1    0    0    0  501 -0.00000000000E+00 -0.00000000000E+00 -0.11163893720E+02  0.11163893720E+02  0.00000000000E+00 0.  1.
         25    2    1    2    0    0 -0.29536185198E+02 -0.52503766953E+02  0.14238819642E+04  0.14306349492E+04  0.12508988032E+03 0.  0.
          5    1    3    3  502    0  0.87931024895E+01 -0.56341577002E+02  0.12897990366E+04  0.12910657300E+04  0.41800000000E+01 0.  1.
         -5    1    3    3    0  502 -0.38329287688E+02  0.38378100487E+01  0.13408292767E+03  0.13956921929E+03  0.41800000000E+01 0.  1.
        -11    1    1    2    0    0 -0.22991232040E+02  0.54600199761E+02  0.18460318653E+03  0.19387654588E+03  0.00000000000E+00 0. -1.
         11    1    1    2    0    0  0.52527417238E+02 -0.20964328080E+01  0.21612639948E+03  0.22242784255E+03  0.00000000000E+00 0.  1.
</event>
<event>
 7    1  0.2820496E-009  0.1143903E+03  0.7561462E-02  0.1252649E+00
          2   -1    0    0  501    0  0.00000000000E+00  0.00000000000E+00  0.78532769521E+03  0.78532769521E+03  0.00000000000E+00 0. -1.
         -2   -1    0    0    0  501 -0.00000000000E+00 -0.00000000000E+00 -0.17373882135E+02  0.17373882135E+02  0.00000000000E+00 0.  1.
         25    2    1    2    0    0  0.16276113416E+02 -0.39177580396E+02  0.42687674652E+03  0.44684464174E+03  0.12508630002E+03 0.  0.
          5    1    3    3  502    0  0.53380674230E+02 -0.63745041256E+02  0.32686100973E+03  0.33729589198E+03  0.41800000000E+01 0.  1.
         -5    1    3    3    0  502 -0.37104560814E+02  0.24567460860E+02  0.10001573680E+03  0.10954874976E+03  0.41800000000E+01 0.  1.
        -11    1    1    2    0    0  0.34492360970E+02  0.36166528324E+02  0.14886089945E+03  0.15702645676E+03  0.00000000000E+00 0.  1.
         11    1    1    2    0    0 -0.50768474386E+02  0.30110520716E+01  0.19221616710E+03  0.19883047885E+03  0.00000000000E+00 0. -1.
</event>
<event>
 7    1  0.2820496E-009  0.1221687E+03  0.7561462E-02  0.1239562E+00
          2   -1    0    0  501    0  0.00000000000E+00  0.00000000000E+00  0.13879944881E+03  0.13879944881E+03  0.00000000000E+00 0. -1.
         -2   -1    0    0    0  501 -0.00000000000E+00 -0.00000000000E+00 -0.14790273829E+03  0.14790273829E+03  0.00000000000E+00 0.  1.
         25    2    1    2    0    0  0.85100766618E+02 -0.20801863950E+02 -0.37666544868E+02  0.15729726062E+03  0.12509517007E+03 0.  0.
          5    1    3    3  502    0 -0.27674986578E+02 -0.27853843826E+02 -0.66079238526E+01  0.40035965776E+02  0.41800000000E+01 0.  1.
         -5    1    3    3    0  502  0.11277575320E+03  0.70519798761E+01 -0.31058621015E+02  0.11726129484E+03  0.41800000000E+01 0.  1.
        -11    1    1    2    0    0 -0.17626959516E+02  0.16535331801E+02  0.52409817277E+02  0.57714087072E+02  0.00000000000E+00 0. -1.
         11    1    1    2    0    0 -0.67473807101E+02  0.42665321491E+01 -0.23846561891E+02  0.71690839410E+02  0.00000000000E+00 0.  1.
</event>
<event>
 7    1  0.2820496E-009  0.1079926E+03  0.7561462E-02  0.1264333E+00
         -2   -1    0    0    0  501 -0.00000000000E+00  0.00000000000E+00  0.44575315280E+02  0.44575315280E+02  0.00000000000E+00 0.  1.
          2   -1    0    0  501    0  0.00000000000E+00 -0.00000000000E+00 -0.40842533186E+03  0.40842533186E+03  0.00000000000E+00 0. -1.
         25    2    1    2    0    0 -0.24301995519E+02  0.73161601840E+02 -0.16094513588E+03  0.21793964559E+03  0.12510453784E+03 0.  0.
          5    1    3    3  502    0  0.22612865134E+02 -0.22429411021E+02 -0.73058040726E+02  0.79808332040E+02  0.41800000000E+01 0.  1.
         -5    1    3    3    0  502 -0.46914860653E+02  0.95591012861E+02 -0.87887095150E+02  0.13813131355E+03  0.41800000000E+01 0.  1.
        -11    1    1    2    0    0  0.77518718992E+01 -0.15857586686E+02  0.53411838543E+01  0.18441334508E+02  0.00000000000E+00 0.  1.
         11    1    1    2    0    0  0.16550123619E+02 -0.57304015154E+02 -0.20824606456E+03  0.21661966704E+03  0.00000000000E+00 0. -1.
</event>
<event>
 7    1  0.2820496E-009  0.1143021E+03  0.7561462E-02  0.1252804E+00
          2   -1    0    0  501    0  0.00000000000E+00  0.00000000000E+00  0.67667407974E+02  0.67667407974E+02  0.00000000000E+00 0. -1.
         -2   -1    0    0    0  501 -0.00000000000E+00 -0.00000000000E+00 -0.31698579879E+03  0.31698579879E+03  0.00000000000E+00 0.  1.
         25    2    1    2    0    0  0.62778906166E+02 -0.74908106344E+02 -0.15074686396E+03  0.21891622934E+03  0.12508910031E+03 0.  0.
          5    1    3    3  502    0  0.55437239471E+02 -0.13190408646E+02 -0.14560079512E+03  0.15641079994E+03  0.41800000000E+01 0. -1.
         -5    1    3    3    0  502  0.73416666954E+01 -0.61717697699E+02 -0.51460688460E+01  0.62505429394E+02  0.41800000000E+01 0. -1.
        -11    1    1    2    0    0 -0.19736696373E+02  0.60728594218E+02 -0.78623133067E+01  0.64337510909E+02  0.00000000000E+00 0. -1.
         11    1    1    2    0    0 -0.43042209793E+02  0.14179512127E+02 -0.90709213549E+02  0.10139946652E+03  0.00000000000E+00 0.  1.
</event>
<event>
 7    1  0.2820496E-009  0.1391880E+03  0.7561462E-02  0.1214426E+00
          2   -1    0    0  501    0  0.00000000000E+00  0.00000000000E+00  0.80505908882E+03  0.80505908882E+03  0.00000000000E+00 0. -1.
         -2   -1    0    0    0  501 -0.00000000000E+00 -0.00000000000E+00 -0.24571134675E+02  0.24571134675E+02  0.00000000000E+00 0.  1.
         25    2    1    2    0    0 -0.87129837905E+02 -0.15503824142E+02  0.47060699678E+03  0.49492478978E+03  0.12509046686E+03 0.  0.
          5    1    3    3  502    0 -0.73714420188E+02 -0.67091789996E+02  0.30582954416E+03  0.32168976749E+03  0.41800000000E+01 0. -1.
         -5    1    3    3    0  502 -0.13415417717E+02  0.51587965854E+02  0.16477745262E+03  0.17323502228E+03  0.41800000000E+01 0. -1.
        -11    1    1    2    0    0  0.92521812177E+02 -0.15383073552E+02  0.25181712467E+03  0.26871693091E+03  0.00000000000E+00 0.  1.
         11    1    1    2    0    0 -0.53919742714E+01  0.30886897694E+02  0.58063832695E+02  0.65988502809E+02  0.00000000000E+00 0. -1.
</event>
<event>
 7    1  0.2820496E-009  0.1460450E+03  0.7561462E-02  0.1205419E+00
          1   -1    0    0  501    0  0.00000000000E+00  0.00000000000E+00  0.83513921588E+03  0.83513921588E+03  0.00000000000E+00 0. -1.
         -1   -1    0    0    0  501 -0.00000000000E+00 -0.00000000000E+00 -0.31647542877E+02  0.31647542877E+02  0.00000000000E+00 0.  1.
         25    2    1    2    0    0 -0.97246459917E+02  0.31496457166E+02  0.60893732279E+03  0.63000040808E+03  0.12508777042E+03 0.  0.
          5    1    3    3  502    0 -0.12151531036E+03  0.58551345954E+01  0.40180563494E+03  0.41983984318E+03  0.41800000000E+01 0.  1.
         -5    1    3    3    0  502  0.24268850443E+02  0.25641322570E+02  0.20713168785E+03  0.21016056490E+03  0.41800000000E+01 0.  1.
        -11    1    1    2    0    0  0.51906220769E+02  0.28806341905E+02  0.91382494246E+02  0.10897165385E+03  0.00000000000E+00 0.  1.
         11    1    1    2    0    0  0.45340239148E+02 -0.60302799071E+02  0.10317185596E+03  0.12781469682E+03  0.00000000000E+00 0. -1.
</event>
<event>
 7    1  0.2820496E-009  0.1829887E+03  0.7561462E-02  0.1164941E+00
          1   -1    0    0  501    0  0.00000000000E+00  0.00000000000E+00  0.14545781431E+03  0.14545781431E+03  0.00000000000E+00 0. -1.
         -1   -1    0    0    0  501 -0.00000000000E+00 -0.00000000000E+00 -0.29102801850E+03  0.29102801850E+03  0.00000000000E+00 0.  1.
         25    2    1    2    0    0  0.13079068331E+03  0.70829431680E+02  0.21612427191E+02  0.19554525322E+03  0.12509131790E+03 0.  0.
          5    1    3    3  502    0  0.15217175434E+03  0.42174851749E+02  0.22381457825E+02  0.15954110127E+03  0.41800000000E+01 0. -1.
         -5    1    3    3    0  502 -0.21381071033E+02  0.28654579931E+02 -0.76903063459E+00  0.36004151950E+02  0.41800000000E+01 0. -1.
        -11    1    1    2    0    0  0.99008401214E+01  0.61384214714E+01 -0.20643856469E+02  0.23703916621E+02  0.00000000000E+00 0.  1.
         11    1    1    2    0    0 -0.14069152343E+03 -0.76967853152E+02 -0.14653877491E+03  0.21723666297E+03  0.00000000000E+00 0. -1.
</event>
<event>
 7    1  0.2820496E-009  0.1602624E+03  0.7561462E-02  0.1188401E+00
          2   -1    0    0  501    0  0.00000000000E+00  0.00000000000E+00  0.58978141583E+03  0.58978141583E+03  0.00000000000E+00 0. -1.
         -2   -1    0    0    0  501 -0.00000000000E+00 -0.00000000000E+00 -0.45770364881E+02  0.45770364881E+02  0.00000000000E+00 0.  1.
         25    2    1    2    0    0 -0.71974478212E+02  0.94714999880E+02  0.31621290384E+03  0.36026652200E+03  0.12510039810E+03 0.  0.
          5    1    3    3  502    0 -0.85190217296E+02  0.11407727563E+03  0.22748414924E+03  0.26839804114E+03  0.41800000000E+01 0. -1.
         -5    1    3    3    0  502  0.13215739084E+02 -0.19362275746E+02  0.88728754605E+02  0.91868480859E+02  0.41800000000E+01 0. -1.
        -11    1    1    2    0    0  0.48696576880E+02  0.76523993661E+01  0.65092340057E+02  0.81651261778E+02  0.00000000000E+00 0. -1.
         11    1    1    2    0    0  0.23277901333E+02 -0.10236739925E+03  0.16270580706E+03  0.19363399693E+03  0.00000000000E+00 0.  1.
</event>
<event>
 6    1  0.2820496E-009  0.1389869E+03  0.7561462E-02  0.1214699E+00
         -1   -1    0    0    0  501 -0.00000000000E+00  0.00000000000E+00  0.23053542573E+04  0.23053542573E+04  0.00000000000E+00 0.  1.
          1   -1    0    0  501    0  0.00000000000E+00 -0.00000000000E+00 -0.15875949120E+02  0.15875949120E+02  0.00000000000E+00 0. -1.
          5    1    1    2  502    0  0.56202279310E+02 -0.11519314141E+02  0.11794538791E+04  0.11808557559E+04  0.41800000000E+01 0. -1.
         -5    1    1    2    0  502  0.14307652011E+02  0.90644167953E+02  0.76569685510E+03  0.77118753906E+03  0.41800000000E+01 0. -1.
        -11    1    1    2    0    0 -0.76528793433E+02 -0.35168052538E+02  0.17605304267E+03  0.19516178411E+03  0.00000000000E+00 0. -1.
         11    1    1    2    0    0  0.60188621124E+01 -0.43956801274E+02  0.16827453132E+03  0.17402512741E+03  0.00000000000E+00 0.  1.
</event>
<event>
 7    1  0.2820496E-009  0.5111940E+02  0.7561462E-02  0.1439396E+00
         -3   -1    0    0    0  501 -0.00000000000E+00  0.00000000000E+00  0.91272561466E+02  0.91272561466E+02  0.00000000000E+00 0.  1.
          3   -1    0    0  501    0  0.00000000000E+00 -0.00000000000E+00 -0.13502256390E+03  0.13502256390E+03  0.00000000000E+00 0. -1.
         25    2    1    2    0    0 -0.24584204399E+01 -0.15682442525E+02 -0.40440977351E+02  0.13241077489E+03  0.12508060530E+03 0.  0.
          5    1    3    3  502    0  0.14360802817E+02 -0.76029107064E+01  0.43340549056E+02  0.46474858808E+02  0.41800000000E+01 0. -1.
         -5    1    3    3    0  502 -0.16819223257E+02 -0.80795318185E+01 -0.83781526407E+02  0.85935916079E+02  0.41800000000E+01 0. -1.
        -11    1    1    2    0    0 -0.33961735605E+01  0.40600511217E+02  0.30917475287E+02  0.51145144286E+02  0.00000000000E+00 0.  1.
         11    1    1    2    0    0  0.58545940004E+01 -0.24918068692E+02 -0.34226500368E+02  0.42739206189E+02  0.00000000000E+00 0. -1.
</event>
<event>
 7    1  0.2820496E-009  0.1161128E+03  0.7561462E-02  0.1249651E+00
          1   -1    0    0  501    0  0.00000000000E+00  0.00000000000E+00  0.44050844920E+03  0.44050844920E+03  0.00000000000E+00 0. -1.
         -1   -1    0    0    0  501 -0.00000000000E+00 -0.00000000000E+00 -0.44386570461E+02  0.44386570461E+02  0.00000000000E+00 0.  1.
         25    2    1    2    0    0 -0.30601065704E+02  0.30620020811E+02  0.35037312008E+03  0.37454594498E+03  0.12509728506E+03 0.  0.
          5    1    3    3  502    0  0.34617823638E+02  0.52788012061E+02  0.17488916425E+03  0.18598026804E+03  0.41800000000E+01 0.  1.
         -5    1    3    3    0  502 -0.65218889342E+02 -0.22167991251E+02  0.17548395583E+03  0.18856567693E+03  0.41800000000E+01 0.  1.
        -11    1    1    2    0    0 -0.54596694458E+01 -0.55737674926E+02  0.30892015940E+02  0.63959464080E+02  0.00000000000E+00 0.  1.
         11    1    1    2    0    0  0.36060735150E+02  0.25117654115E+02  0.14856742723E+02  0.46389610606E+02  0.00000000000E+00 0. -1.
</event>
<event>
 7    1  0.2820496E-009  0.8844540E+02  0.7561462E-02  0.1306661E+00
         -1   -1    0    0    0  501 -0.00000000000E+00  0.00000000000E+00  0.36168384748E+02  0.36168384748E+02  0.00000000000E+00 0.  1.
          1   -1    0    0  501    0  0.00000000000E+00 -0.00000000000E+00 -0.37782823763E+03  0.37782823763E+03  0.00000000000E+00 0. -1.
         25    2    1    2    0    0  0.18027360253E+02 -0.32772895732E+02 -0.22854586776E+03  0.26321322117E+03  0.12509571421E+03 0.  0.
          5    1    3    3  502    0 -0.95097894262E+01  0.21175837732E+02  0.30576086797E+01  0.23783893067E+02  0.41800000000E+01 0.  1.
         -5    1    3    3    0  502  0.27537149679E+02 -0.53948733464E+02 -0.23160347644E+03  0.23942932810E+03  0.41800000000E+01 0.  1.
        -11    1    1    2    0    0 -0.45890687346E+02 -0.44362220153E+01 -0.84323483770E+02  0.96104553305E+02  0.00000000000E+00 0.  1.
         11    1    1    2    0    0  0.27863327093E+02  0.37209117747E+02 -0.28790501347E+02  0.54678847903E+02  0.00000000000E+00 0. -1.
</event>
<event>
 7    1  0.2820496E-009  0.8169268E+02  0.7561462E-02  0.1324315E+00
         -1   -1    0    0    0  501 -0.00000000000E+00  0.00000000000E+00  0.16419296231E+03  0.16419296231E+03  0.00000000000E+00 0.  1.
          1   -1    0    0  501    0  0.00000000000E+00 -0.00000000000E+00 -0.80040534483E+02  0.80040534483E+02  0.00000000000E+00 0. -1.
         25    2    1    2    0    0  0.31788161498E+02  0.12375315637E+02  0.33029537549E+02  0.13380018498E+03  0.12509158046E+03 0.  0.
          5    1    3    3  502    0  0.40799407896E+02  0.61693842913E+02  0.86392999799E+00  0.74087385654E+02  0.41800000000E+01 0. -1.
         -5    1    3    3    0  502 -0.90112463976E+01 -0.49318527276E+02  0.32165607551E+02  0.59712799327E+02  0.41800000000E+01 0. -1.
        -11    1    1    2    0    0 -0.19780723206E+02 -0.17044096810E+02 -0.23244450380E+02  0.34958299731E+02  0.00000000000E+00 0. -1.
         11    1    1    2    0    0 -0.12007438292E+02  0.46687811734E+01  0.74367340658E+02  0.75475012081E+02  0.00000000000E+00 0.  1.
</event>
<event>
 7    1  0.2820496E-009  0.1019920E+03  0.7561462E-02  0.1276162E+00
          2   -1    0    0  501    0  0.00000000000E+00  0.00000000000E+00  0.12846167570E+04  0.12846167570E+04  0.00000000000E+00 0.  1.
         -2   -1    0    0    0  501 -0.00000000000E+00 -0.00000000000E+00 -0.13562172490E+02  0.13562172490E+02  0.00000000000E+00 0. -1.
         25    2    1    2    0    0  0.44567634636E+01  0.27243938977E+02  0.10453332209E+04  0.10531531417E+04  0.12509157532E+03 0.  0.
          5    1    3    3  502    0 -0.17290514404E+02 -0.43230410258E+02  0.24514970201E+03  0.24956698310E+03  0.41800000000E+01 0.  1.
         -5    1    3    3    0  502  0.21747277867E+02  0.70474349235E+02  0.80018351891E+03  0.80358615863E+03  0.41800000000E+01 0.  1.
        -11    1    1    2    0    0  0.30526053363E+02  0.10139543412E+02  0.34930136339E+02  0.47484362681E+02  0.00000000000E+00 0. -1.
         11    1    1    2    0    0 -0.34982816827E+02 -0.37383482389E+02  0.19079122726E+03  0.19754142510E+03  0.00000000000E+00 0.  1.
</event>
<event>
 7    1  0.4101519E-009  0.8931172E+02  0.7561462E-02  0.1304527E+00
          1   -1    0    0  501    0  0.00000000000E+00  0.00000000000E+00  0.36100696331E+03  0.36100696331E+03  0.00000000000E+00 0. -1.
         -1   -1    0    0    0  501 -0.00000000000E+00 -0.00000000000E+00 -0.43731930270E+02  0.43731930270E+02  0.00000000000E+00 0.  1.
         25    2    1    2    0    0 -0.18954832342E+02  0.31900148210E+02  0.95307871811E+02  0.16158047746E+03  0.12509098745E+03 0.  0.
          5    1    3    3  502    0  0.11460120596E+02  0.44524719224E+02  0.11434577499E+03  0.12331347714E+03  0.41800000000E+01 0. -1.
         -5    1    3    3    0  502 -0.30414952938E+02 -0.12624571014E+02 -0.19037903183E+02  0.38267000315E+02  0.41800000000E+01 0. -1.
        -11    1    1    2    0    0 -0.24192580657E+02 -0.47561536790E+02  0.12160933359E+03  0.13280139592E+03  0.00000000000E+00 0. -1.
         11    1    1    2    0    0  0.43147412999E+02  0.15661388580E+02  0.10035782763E+03  0.11035702020E+03  0.00000000000E+00 0.  1.
</event>
<event>
 7    1  0.2820496E-009  0.1355336E+03  0.7561462E-02  0.1219468E+00
         -1   -1    0    0    0  501 -0.00000000000E+00  0.00000000000E+00  0.36573883571E+02  0.36573883571E+02  0.00000000000E+00 0.  1.
          1   -1    0    0  501    0  0.00000000000E+00 -0.00000000000E+00 -0.78612189015E+03  0.78612189015E+03  0.00000000000E+00 0. -1.
         25    2    1    2    0    0 -0.50006763583E+02  0.52102294005E+02 -0.15054803375E+03  0.20863219400E+03  0.12508939388E+03 0.  0.
          5    1    3    3  502    0 -0.88097400452E+02  0.30022981266E+02 -0.69252375165E+02  0.11608572366E+03  0.41800000000E+01 0.  1.
         -5    1    3    3    0  502  0.38090636869E+02  0.22079312739E+02 -0.81295658584E+02  0.92546470342E+02  0.41800000000E+01 0.  1.
        -11    1    1    2    0    0  0.66103421807E+02  0.12346906875E+02 -0.25564178208E+03  0.26433847474E+03  0.00000000000E+00 0. -1.
         11    1    1    2    0    0 -0.16096658224E+02 -0.64449200880E+02 -0.34335819076E+03  0.34972510499E+03  0.00000000000E+00 0.  1.
</event>
<event>
 7    1  0.2820496E-009  0.6465707E+02  0.7561462E-02  0.1379266E+00
         -1   -1    0    0    0  501 -0.00000000000E+00  0.00000000000E+00  0.28319479456E+03  0.28319479456E+03  0.00000000000E+00 0.  1.
          1   -1    0    0  501    0  0.00000000000E+00 -0.00000000000E+00 -0.49532229505E+02  0.49532229505E+02  0.00000000000E+00 0. -1.
         25    2    1    2    0    0 -0.35001456261E+02  0.31601767482E+02  0.14620285034E+03  0.19810761534E+03  0.12509028803E+03 0.  0.
          5    1    3    3  502    0 -0.27361241822E+02 -0.16758689163E+02  0.14540615343E+03  0.14896279089E+03  0.41800000000E+01 0.  1.
         -5    1    3    3    0  502 -0.76402144386E+01  0.48360456645E+02  0.79669690835E+00  0.49144824443E+02  0.41800000000E+01 0.  1.
        -11    1    1    2    0    0  0.14680740452E+02 -0.18596279331E+02  0.10315254679E+03  0.10583852632E+03  0.00000000000E+00 0.  1.
         11    1    1    2    0    0  0.20320715808E+02 -0.13005488151E+02 -0.15692832076E+02  0.28780882397E+02  0.00000000000E+00 0. -1.
</event>
<event>
 7    1  0.2820496E-009  0.1070925E+03  0.7561462E-02  0.1266051E+00
          1   -1    0    0  501    0  0.00000000000E+00  0.00000000000E+00  0.41450282077E+02  0.41450282077E+02  0.00000000000E+00 0. -1.
         -1   -1    0    0    0  501 -0.00000000000E+00 -0.00000000000E+00 -0.35007357413E+03  0.35007357413E+03  0.00000000000E+00 0.  1.
         25    2    1    2    0    0 -0.10373254255E+02  0.32918892471E+02 -0.10572803232E+03  0.16738110495E+03  0.12508700808E+03 0.  0.
          5    1    3    3  502    0 -0.55800540322E+02  0.55296848934E+02 -0.58826526859E+02  0.98231738580E+02  0.41800000000E+01 0.  1.
         -5    1    3    3    0  502  0.45427286066E+02 -0.22377956463E+02 -0.46901505464E+02  0.69149366372E+02  0.41800000000E+01 0.  1.
        -11    1    1    2    0    0  0.17887281857E+02  0.22518786701E+02 -0.12483809176E+03  0.12810776620E+03  0.00000000000E+00 0.  1.
         11    1    1    2    0    0 -0.75140276015E+01 -0.55437679172E+02 -0.78057167970E+02  0.96034985053E+02  0.00000000000E+00 0. -1.
</event>
<event>
 7    1  0.2820496E-009  0.1125404E+03  0.7561462E-02  0.1255937E+00
          2   -1    0    0  501    0  0.00000000000E+00  0.00000000000E+00  0.74498588765E+02  0.74498588765E+02  0.00000000000E+00 0.  1.
         -2   -1    0    0    0  501 -0.00000000000E+00 -0.00000000000E+00 -0.21796332406E+03  0.21796332406E+03  0.00000000000E+00 0. -1.
         25    2    1    2    0    0 -0.37405236562E+02 -0.11945219862E+02 -0.14425853877E+03  0.19493614647E+03  0.12509090772E+03 0.  0.
          5    1    3    3  502    0 -0.91609738096E+00 -0.64007539931E+02 -0.50812744575E+02  0.81836494388E+02  0.41800000000E+01 0.  1.
         -5    1    3    3    0  502 -0.36489139181E+02  0.52062320069E+02 -0.93445794193E+02  0.11309965208E+03  0.41800000000E+01 0.  1.
        -11    1    1    2    0    0 -0.29167383621E+02  0.92139898251E+01  0.38360033328E+01  0.30827727736E+02  0.00000000000E+00 0.  1.
         11    1    1    2    0    0  0.66572620183E+02  0.27312300368E+01 -0.30421998627E+01  0.66698038619E+02  0.00000000000E+00 0. -1.
</event>
<event>
 7    1  0.2820496E-009  0.8104832E+02  0.7561462E-02  0.1326103E+00
         -3   -1    0    0    0  501 -0.00000000000E+00  0.00000000000E+00  0.67432535418E+03  0.67432535418E+03  0.00000000000E+00 0.  1.
          3   -1    0    0  501    0  0.00000000000E+00 -0.00000000000E+00 -0.20772142823E+02  0.20772142823E+02  0.00000000000E+00 0. -1.
         25    2    1    2    0    0  0.12315130199E+02 -0.31965510342E+02  0.46900513719E+03  0.48660766035E+03  0.12509092740E+03 0.  0.
          5    1    3    3  502    0  0.25084924753E+02  0.20488894519E+02  0.38677051026E+03  0.38814681276E+03  0.41800000000E+01 0. -1.
         -5    1    3    3    0  502 -0.12769794554E+02 -0.52454404861E+02  0.82234626932E+02  0.98460847594E+02  0.41800000000E+01 0. -1.
        -11    1    1    2    0    0 -0.22050868150E+02  0.50083507497E+02  0.17901238535E+03  0.18718983043E+03  0.00000000000E+00 0.  1.
         11    1    1    2    0    0  0.97357379502E+01 -0.18117997155E+02  0.55356888211E+01  0.21300006222E+02  0.00000000000E+00 0. -1.
</event>
<event>
 7    1  0.2820496E-009  0.8855719E+02  0.7561462E-02  0.1306384E+00
         -3   -1    0    0    0  501 -0.00000000000E+00  0.00000000000E+00  0.10239447352E+03  0.10239447352E+03  0.00000000000E+00 0.  1.
          3   -1    0    0  501    0  0.00000000000E+00 -0.00000000000E+00 -0.14666333833E+03  0.14666333833E+03  0.00000000000E+00 0. -1.
         25    2    1    2    0    0 -0.22662800858E+02 -0.52123621708E+02 -0.15036431121E+02  0.13821785873E+03  0.12509039823E+03 0.  0.
          5    1    3    3  502    0  0.47991747110E+01 -0.75051785773E+02 -0.48063273039E+02  0.89349612427E+02  0.41800000000E+01 0. -1.
         -5    1    3    3    0  502 -0.27461975569E+02  0.22928164065E+02  0.33026841918E+02  0.48868246302E+02  0.41800000000E+01 0. -1.
        -11    1    1    2    0    0 -0.60259591605E+01  0.26923980229E+02  0.29751198676E+02  0.40575198309E+02  0.00000000000E+00 0.  1.
         11    1    1    2    0    0  0.28688760018E+02  0.25199641479E+02 -0.58983632366E+02  0.70264754814E+02  0.00000000000E+00 0. -1.
</event>
<event>
 7    1  0.2897625E-009  0.1089462E+03  0.7561462E-02  0.1262534E+00
          1   -1    0    0  501    0  0.00000000000E+00  0.00000000000E+00  0.82736248652E+03  0.82736248652E+03  0.00000000000E+00 0. -1.
         -1   -1    0    0    0  501 -0.00000000000E+00 -0.00000000000E+00 -0.19322218588E+02  0.19322218588E+02  0.00000000000E+00 0.  1.
         25    2    1    2    0    0  0.37311489014E+01 -0.64466559741E+02  0.42254967587E+03  0.44538029065E+03  0.12508203679E+03 0.  0.
          5    1    3    3  502    0 -0.48669480719E+02 -0.60861414035E+02  0.16538096027E+03  0.18286925519E+03  0.41800000000E+01 0.  1.
         -5    1    3    3    0  502  0.52400629620E+02 -0.36051457059E+01  0.25716871559E+03  0.26251103546E+03  0.41800000000E+01 0.  1.
        -11    1    1    2    0    0 -0.15803009324E+02 -0.50609831308E+01  0.10289745428E+02  0.19525048397E+02  0.00000000000E+00 0.  1.
         11    1    1    2    0    0  0.12071860422E+02  0.69527542872E+02  0.37520084664E+03  0.38177936606E+03  0.00000000000E+00 0. -1.
</event>
<event>
 7    1  0.2820496E-009  0.1794285E+03  0.7561462E-02  0.1168357E+00
         -1   -1    0    0    0  501 -0.00000000000E+00  0.00000000000E+00  0.86566083214E+02  0.86566083214E+02  0.00000000000E+00 0.  1.
          1   -1    0    0  501    0  0.00000000000E+00 -0.00000000000E+00 -0.46611617087E+03  0.46611617087E+03  0.00000000000E+00 0. -1.
         25    2    1    2    0    0  0.13220911219E+03 -0.67097841538E+02 -0.30649124230E+03  0.36271998199E+03  0.12509010372E+03 0.  0.
          5    1    3    3  502    0 -0.24681932274E+02 -0.10138457042E+02 -0.43976358843E+02  0.51607931843E+02  0.41800000000E+01 0. -1.
         -5    1    3    3    0  502  0.15689104446E+03 -0.56959384496E+02 -0.26251488345E+03  0.31111205015E+03  0.41800000000E+01 0. -1.
        -11    1    1    2    0    0 -0.26694878685E+02  0.51792007351E+02  0.40115476279E+01  0.58404803637E+02  0.00000000000E+00 0.  1.
         11    1    1    2    0    0 -0.10551423350E+03  0.15305834187E+02 -0.77070392990E+02  0.13155746846E+03  0.00000000000E+00 0. -1.
</event>
<event>
 7    1  0.2820496E-009  0.1490708E+03  0.7561462E-02  0.1201620E+00
         -3   -1    0    0    0  501 -0.00000000000E+00  0.00000000000E+00  0.18335478621E+03  0.18335478621E+03  0.00000000000E+00 0.  1.
          3   -1    0    0  501    0  0.00000000000E+00 -0.00000000000E+00 -0.15330075536E+03  0.15330075536E+03  0.00000000000E+00 0. -1.
         25    2    1    2    0    0  0.97060031344E+02 -0.82203936246E+02  0.28843716627E+02  0.18071469397E+03  0.12509078227E+03 0.  0.
          5    1    3    3  502    0  0.93527167094E+02 -0.20251370963E+02 -0.24398115321E+02  0.98844268634E+02  0.41800000000E+01 0.  1.
         -5    1    3    3    0  502  0.35328642506E+01 -0.61952565283E+02  0.53241831949E+02  0.81870425333E+02  0.41800000000E+01 0.  1.
        -11    1    1    2    0    0 -0.44089223382E+02  0.21145185873E+01  0.32649704512E+02  0.54902950850E+02  0.00000000000E+00 0.  1.
         11    1    1    2    0    0 -0.52970807962E+02  0.80089417659E+02 -0.31439390294E+02  0.10103789675E+03  0.00000000000E+00 0. -1.
</event>
<event>
 7    1  0.2820496E-009  0.7509601E+02  0.7561462E-02  0.1343574E+00
          2   -1    0    0  501    0  0.00000000000E+00  0.00000000000E+00  0.10399922765E+04  0.10399922765E+04  0.00000000000E+00 0. -1.
         -2   -1    0    0    0  501 -0.00000000000E+00 -0.00000000000E+00 -0.20607466153E+02  0.20607466153E+02  0.00000000000E+00 0.  1.
         25    2    1    2    0    0 -0.28974626851E+02  0.49576664165E+02  0.84200736811E+03  0.85318287701E+03  0.12508892453E+03 0.  0.
          5    1    3    3  502    0 -0.13606874685E+02  0.32685723260E+02  0.53240138569E+02  0.64074084454E+02  0.41800000000E+01 0.  1.
         -5    1    3    3    0  502 -0.15367752166E+02  0.16890940905E+02  0.78876722954E+03  0.78910879256E+03  0.41800000000E+01 0.  1.
        -11    1    1    2    0    0  0.52222431299E+02 -0.26467574004E+02  0.15987406853E+03  0.17025696048E+03  0.00000000000E+00 0. -1.
         11    1    1    2    0    0 -0.23247804448E+02 -0.23109090161E+02  0.17503373685E+02  0.37159905141E+02  0.00000000000E+00 0.  1.
</event>
<event>
 7    1  0.2820496E-009  0.1273932E+03  0.7561462E-02  0.1231376E+00
          1   -1    0    0  501    0  0.00000000000E+00  0.00000000000E+00  0.65867663739E+03  0.65867663739E+03  0.00000000000E+00 0. -1.
         -1   -1    0    0    0  501 -0.00000000000E+00 -0.00000000000E+00 -0.25621823987E+02  0.25621823987E+02  0.00000000000E+00 0.  1.
         25    2    1    2    0    0 -0.60166490154E+02 -0.34105772720E+02  0.35482168901E+03  0.38252932578E+03  0.12508814418E+03 0.  0.
          5    1    3    3  502    0 -0.44023336951E+02 -0.81417881168E+02  0.22269662426E+03  0.24120154317E+03  0.41800000000E+01 0.  1.
         -5    1    3    3    0  502 -0.16143153203E+02  0.47312108448E+02  0.13212506476E+03  0.14132778261E+03  0.41800000000E+01 0.  1.
        -11    1    1    2    0    0 -0.21681224150E+02  0.18812906810E+02  0.38749998466E+02  0.48224094853E+02  0.00000000000E+00 0.  1.
         11    1    1    2    0    0  0.81847714303E+02  0.15292865909E+02  0.23948312592E+03  0.25354504074E+03  0.00000000000E+00 0. -1.
</event>
<event>
 7    1  0.2820496E-009  0.7987817E+02  0.7561462E-02  0.1329398E+00
         -2   -1    0    0    0  501 -0.00000000000E+00  0.00000000000E+00  0.76291520159E+02  0.76291520159E+02  0.00000000000E+00 0.  1.
          2   -1    0    0  501    0  0.00000000000E+00 -0.00000000000E+00 -0.18642408251E+03  0.18642408251E+03  0.00000000000E+00 0. -1.
         25    2    1    2    0    0 -0.48821469560E+02 -0.19791260171E+02 -0.42450058504E+02  0.14221322833E+03  0.12508942791E+03 0.  0.
          5    1    3    3  502    0  0.23013590548E+02  0.54638708508E+01  0.29038144898E+02  0.37685083172E+02  0.41800000000E+01 0.  1.
         -5    1    3    3    0  502 -0.71835060108E+02 -0.25255131022E+02 -0.71488203402E+02  0.10452814515E+03  0.41800000000E+01 0.  1.
        -11    1    1    2    0    0  0.93077520210E+01  0.17591017849E+02  0.17547297232E+02  0.26532730670E+02  0.00000000000E+00 0.  1.
         11    1    1    2    0    0  0.39513717539E+02  0.22002423223E+01 -0.85229801078E+02  0.93969643672E+02  0.00000000000E+00 0. -1.
</event>
<event>
 7    1  0.2820496E-009  0.2310264E+03  0.7561462E-02  0.1125919E+00
         -2   -1    0    0    0  501 -0.00000000000E+00  0.00000000000E+00  0.46328316406E+03  0.46328316406E+03  0.00000000000E+00 0.  1.
          2   -1    0    0  501    0  0.00000000000E+00 -0.00000000000E+00 -0.20020292419E+03  0.20020292419E+03  0.00000000000E+00 0. -1.
         25    2    1    2    0    0 -0.98901435959E+02 -0.19073766490E+03 -0.69910677386E+02  0.25825901353E+03  0.12509142421E+03 0.  0.
          5    1    3    3  502    0  0.25074550960E+02 -0.11128893751E+02 -0.20376736582E+02  0.34427738464E+02  0.41800000000E+01 0.  1.
         -5    1    3    3    0  502 -0.12397598692E+03 -0.17960877115E+03 -0.49533940804E+02  0.22383127507E+03  0.41800000000E+01 0.  1.
        -11    1    1    2    0    0  0.76563962668E+02  0.16528377293E+03  0.21161945638E+03  0.27921955571E+03  0.00000000000E+00 0. -1.
         11    1    1    2    0    0  0.22337473291E+02  0.25453891975E+02  0.12137146088E+03  0.12600751901E+03  0.00000000000E+00 0.  1.
</event>
<event>
 7    1  0.2820496E-009  0.1501347E+03  0.7561462E-02  0.1200308E+00
          1   -1    0    0  501    0  0.00000000000E+00  0.00000000000E+00  0.34113280964E+03  0.34113280964E+03  0.00000000000E+00 0. -1.
         -1   -1    0    0    0  501 -0.00000000000E+00 -0.00000000000E+00 -0.89385678153E+02  0.89385678153E+02  0.00000000000E+00 0.  1.
         25    2    1    2    0    0 -0.12984677963E+03 -0.39849450297E+02  0.14200230980E+03  0.23296172878E+03  0.12513331377E+03 0.  0.
          5    1    3    3  502    0 -0.91408251197E+02 -0.18689606117E+02  0.16007225247E+03  0.18532503386E+03  0.41800000000E+01 0.  1.
         -5    1    3    3    0  502 -0.38438528437E+02 -0.21159844180E+02 -0.18069942676E+02  0.47636694915E+02  0.41800000000E+01 0.  1.
        -11    1    1    2    0    0  0.27229657892E+02  0.52761663086E+02  0.52992157593E+02  0.79582762750E+02  0.00000000000E+00 0. -1.
         11    1    1    2    0    0  0.10261712174E+03 -0.12912212789E+02  0.56752664100E+02  0.11797399627E+03  0.00000000000E+00 0.  1.
</event>
<event>
 7    1  0.2820496E-009  0.1047194E+03  0.7561462E-02  0.1270673E+00
         -4   -1    0    0    0  501 -0.00000000000E+00  0.00000000000E+00  0.11016712207E+02  0.11016712207E+02  0.00000000000E+00 0.  1.
          4   -1    0    0  501    0  0.00000000000E+00 -0.00000000000E+00 -0.14842986136E+04  0.14842986136E+04  0.00000000000E+00 0. -1.
         25    2    1    2    0    0  0.24071090064E+02 -0.44557072490E+02 -0.10937481000E+04  0.11020423984E+04  0.12509113289E+03 0.  0.
          5    1    3    3  502    0  0.32048650707E+01 -0.71710619651E+02 -0.34072073920E+03  0.34822518383E+03  0.41800000000E+01 0. -1.
         -5    1    3    3    0  502  0.20866224994E+02  0.27153547161E+02 -0.75302736079E+03  0.75381721456E+03  0.41800000000E+01 0. -1.
        -11    1    1    2    0    0  0.15271203918E+02  0.59138550259E+02 -0.22709313771E+03  0.23516349843E+03  0.00000000000E+00 0.  1.
         11    1    1    2    0    0 -0.39342293982E+02 -0.14581477769E+02 -0.15244066367E+03  0.15810942898E+03  0.00000000000E+00 0. -1.
</event>
<event>
 7    1  0.2820496E-009  0.1283934E+03  0.7561462E-02  0.1229859E+00
          2   -1    0    0  501    0  0.00000000000E+00  0.00000000000E+00  0.11482340292E+03  0.11482340292E+03  0.00000000000E+00 0. -1.
         -2   -1    0    0    0  501 -0.00000000000E+00 -0.00000000000E+00 -0.15496240781E+03  0.15496240781E+03  0.00000000000E+00 0.  1.
         25    2    1    2    0    0  0.51379116980E+01 -0.68265185065E+02 -0.57749774196E+02  0.15384845105E+03  0.12509107019E+03 0.  0.
          5    1    3    3  502    0 -0.48098752838E+02  0.85140835500E+01 -0.21798134883E+02  0.53652686118E+02  0.41800000000E+01 0.  1.
         -5    1    3    3    0  502  0.53236664536E+02 -0.76779268615E+02 -0.35951639313E+02  0.10019576493E+03  0.41800000000E+01 0.  1.
        -11    1    1    2    0    0 -0.47952990660E+02  0.28369550385E+02  0.13141256465E+02  0.57245203501E+02  0.00000000000E+00 0. -1.
         11    1    1    2    0    0  0.42815078962E+02  0.39895634680E+02  0.44695128377E+01  0.58692156189E+02  0.00000000000E+00 0.  1.
</event>
<event>
 7    1  0.2820496E-009  0.9979244E+02  0.7561462E-02  0.1280733E+00
         -2   -1    0    0    0  501 -0.00000000000E+00  0.00000000000E+00  0.21336812199E+03  0.21336812199E+03  0.00000000000E+00 0.  1.
          2   -1    0    0  501    0  0.00000000000E+00 -0.00000000000E+00 -0.71718714194E+02  0.71718714194E+02  0.00000000000E+00 0. -1.
         25    2    1    2    0    0 -0.52178068663E+02  0.30225844463E+02  0.77714873437E+02  0.15913248029E+03  0.12508953677E+03 0.  0.
          5    1    3    3  502    0 -0.87396395697E+02  0.47244784687E+02  0.58257266935E+02  0.11524574271E+03  0.41800000000E+01 0. -1.
         -5    1    3    3    0  502  0.35218327034E+02 -0.17018940224E+02  0.19457606502E+02  0.43886737589E+02  0.41800000000E+01 0. -1.
        -11    1    1    2    0    0  0.11744559163E+02 -0.31870139050E+01 -0.23179909531E+02  0.26180143877E+02  0.00000000000E+00 0. -1.
         11    1    1    2    0    0  0.40433509500E+02 -0.27038830558E+02  0.87114443890E+02  0.99774212012E+02  0.00000000000E+00 0.  1.
</event>
<event>
 7    1  0.2820496E-009  0.2082832E+03  0.7561462E-02  0.1142933E+00
         -1   -1    0    0    0  501 -0.00000000000E+00  0.00000000000E+00  0.52464261791E+03  0.52464261791E+03  0.00000000000E+00 0. -1.
          1   -1    0    0  501    0  0.00000000000E+00 -0.00000000000E+00 -0.10122022618E+03  0.10122022618E+03  0.00000000000E+00 0.  1.
         25    2    1    2    0    0  0.23369389094E+02 -0.19943822040E+03  0.23451153247E+03  0.33310951741E+03  0.12507821402E+03 0.  0.
          5    1    3    3  502    0 -0.62267007102E+01 -0.15884325620E+03  0.23372438251E+03  0.28269154784E+03  0.41800000000E+01 0.  1.
         -5    1    3    3    0  502  0.29596089804E+02 -0.40594964202E+02  0.78714996265E+00  0.50417969567E+02  0.41800000000E+01 0.  1.
        -11    1    1    2    0    0 -0.19696734727E+01  0.17348597875E+03  0.10609085370E+03  0.20336305878E+03  0.00000000000E+00 0.  1.
         11    1    1    2    0    0 -0.21399715621E+02  0.25952241653E+02  0.82820005557E+02  0.89390267905E+02  0.00000000000E+00 0. -1.
</event>
<event>
 7    1  0.2820496E-009  0.1215972E+03  0.7561462E-02  0.1240485E+00
          1   -1    0    0  501    0  0.00000000000E+00  0.00000000000E+00  0.36245478580E+03  0.36245478580E+03  0.00000000000E+00 0. -1.
         -1   -1    0    0    0  501 -0.00000000000E+00 -0.00000000000E+00 -0.55465769363E+02  0.55465769363E+02  0.00000000000E+00 0.  1.
         25    2    1    2    0    0 -0.94984888123E+01 -0.80806269405E+02  0.23263441131E+03  0.27637994888E+03  0.12508889781E+03 0.  0.
          5    1    3    3  502    0  0.25805694922E+02  0.95903621753E+01  0.13794653444E+03  0.14072891566E+03  0.41800000000E+01 0. -1.
         -5    1    3    3    0  502 -0.35304183735E+02 -0.90396631580E+02  0.94687876865E+02  0.13565103323E+03  0.41800000000E+01 0. -1.
        -11    1    1    2    0    0  0.47889173790E+02  0.44444060587E+02  0.27484782645E+02  0.70880609230E+02  0.00000000000E+00 0.  1.
         11    1    1    2    0    0 -0.38390684978E+02  0.36362208818E+02  0.46869822482E+02  0.70659997047E+02  0.00000000000E+00 0. -1.
</event>
<event>
 7    1  0.2820496E-009  0.1325263E+03  0.7561462E-02  0.1223755E+00
          1   -1    0    0  501    0  0.00000000000E+00  0.00000000000E+00  0.29755186193E+03  0.29755186193E+03  0.00000000000E+00 0. -1.
         -1   -1    0    0    0  501 -0.00000000000E+00 -0.00000000000E+00 -0.10806011783E+03  0.10806011783E+03  0.00000000000E+00 0.  1.
         25    2    1    2    0    0 -0.60705684857E+02  0.86190269465E+02 -0.72746932780E+01  0.16375082851E+03  0.12508984751E+03 0.  0.
          5    1    3    3  502    0  0.31197850214E+02  0.50384818780E+01 -0.24051855731E+02  0.39933148157E+02  0.41800000000E+01 0. -1.
         -5    1    3    3    0  502 -0.91903535071E+02  0.81151787587E+02  0.16777162453E+02  0.12381768035E+03  0.41800000000E+01 0. -1.
        -11    1    1    2    0    0  0.49499844789E+02 -0.42020517643E+02  0.18312289575E+03  0.19429347258E+03  0.00000000000E+00 0. -1.
         11    1    1    2    0    0  0.11205840067E+02 -0.44169751822E+02  0.13643541626E+02  0.47567678687E+02  0.00000000000E+00 0.  1.
</event>
<event>
 7    1  0.2820496E-009  0.1170992E+03  0.7561462E-02  0.1247961E+00
         -2   -1    0    0    0  501 -0.00000000000E+00  0.00000000000E+00  0.13397804255E+02  0.13397804255E+02  0.00000000000E+00 0.  1.
          2   -1    0    0  501    0  0.00000000000E+00 -0.00000000000E+00 -0.10605301228E+04  0.10605301228E+04  0.00000000000E+00 0. -1.
         25    2    1    2    0    0  0.32276471756E+02  0.39664914785E+02 -0.64695792362E+03  0.66092136351E+03  0.12508963874E+03 0.  0.
          5    1    3    3  502    0 -0.19109010555E+02 -0.37314882883E+02 -0.18055731491E+03  0.18540758112E+03  0.41800000000E+01 0.  1.
         -5    1    3    3    0  502  0.51385482311E+02  0.76979797668E+02 -0.46640060871E+03  0.47551378239E+03  0.41800000000E+01 0.  1.
        -11    1    1    2    0    0 -0.50142834156E+02 -0.56029312593E+02 -0.33835809968E+03  0.34661187416E+03  0.00000000000E+00 0. -1.
         11    1    1    2    0    0  0.17866362400E+02  0.16364397808E+02 -0.61816295267E+02  0.66394689408E+02  0.00000000000E+00 0.  1.
</event>
<event>
 7    1  0.2820496E-009  0.1774102E+03  0.7561462E-02  0.1170333E+00
          1   -1    0    0  501    0  0.00000000000E+00  0.00000000000E+00  0.56078329939E+03  0.56078329939E+03  0.00000000000E+00 0. -1.
         -1   -1    0    0    0  501 -0.00000000000E+00 -0.00000000000E+00 -0.12090934908E+03  0.12090934908E+03  0.00000000000E+00 0.  1.
         25    2    1    2    0    0  0.99849117527E+02  0.11456535306E+03 -0.11382249155E+02  0.19716217103E+03  0.12509316408E+03 0.  0.
          5    1    3    3  502    0  0.10960766227E+03  0.12774288587E+03 -0.31054620099E+02  0.17121316055E+03  0.41800000000E+01 0.  1.
         -5    1    3    3    0  502 -0.97585447401E+01 -0.13177532808E+02  0.19672370944E+02  0.25949010480E+02  0.41800000000E+01 0.  1.
        -11    1    1    2    0    0 -0.10408021113E+03 -0.71548129219E+02  0.38700315935E+03  0.40709123116E+03  0.00000000000E+00 0. -1.
         11    1    1    2    0    0  0.42310936011E+01 -0.43017223841E+02  0.64253040113E+02  0.77439246276E+02  0.00000000000E+00 0.  1.
</event>
<event>
 7    1  0.2820496E-009  0.2196541E+03  0.7561462E-02  0.1134141E+00
         -2   -1    0    0    0  501 -0.00000000000E+00  0.00000000000E+00  0.22672733707E+03  0.22672733707E+03  0.00000000000E+00 0.  1.
          2   -1    0    0  501    0  0.00000000000E+00 -0.00000000000E+00 -0.23430025048E+03  0.23430025048E+03  0.00000000000E+00 0. -1.
         25    2    1    2    0    0 -0.14008944947E+03  0.14656010953E+03 -0.10503663283E+02  0.23845870691E+03  0.12508920176E+03 0.  0.
          5    1    3    3  502    0 -0.59923181545E+02  0.12485415769E+03  0.36037656536E+02  0.14316261198E+03  0.41800000000E+01 0. -1.
         -5    1    3    3    0  502 -0.80166267926E+02  0.21705951843E+02 -0.46541319819E+02  0.95296094932E+02  0.41800000000E+01 0. -1.
        -11    1    1    2    0    0  0.10743128709E+03 -0.55628697796E+02  0.24826869208E+02  0.12350063522E+03  0.00000000000E+00 0.  1.
         11    1    1    2    0    0  0.32658162382E+02 -0.90931411737E+02 -0.21896119328E+02  0.99068245428E+02  0.00000000000E+00 0. -1.
</event>
<event>
 7    1  0.2820496E-009  0.2140446E+03  0.7561462E-02  0.1138403E+00
          2   -1    0    0  501    0  0.00000000000E+00  0.00000000000E+00  0.12815962722E+04  0.12815962722E+04  0.00000000000E+00 0. -1.
         -2   -1    0    0    0  501 -0.00000000000E+00 -0.00000000000E+00 -0.91423111054E+02  0.91423111054E+02  0.00000000000E+00 0.  1.
         25    2    1    2    0    0  0.16425474438E+03 -0.12206284902E+03  0.11100399102E+04  0.11356566329E+04  0.12509366722E+03 0.  0.
          5    1    3    3  502    0  0.50128531387E+02 -0.35102110984E+02  0.11518312145E+03  0.13049770773E+03  0.41800000000E+01 0.  1.
         -5    1    3    3    0  502  0.11412621300E+03 -0.86960738035E+02  0.99485678873E+03  0.10051589252E+04  0.41800000000E+01 0.  1.
        -11    1    1    2    0    0 -0.70613815755E+02  0.10724006945E+03  0.51286919299E+02  0.13826457089E+03  0.00000000000E+00 0. -1.
         11    1    1    2    0    0 -0.93640928630E+02  0.14822779568E+02  0.28846331617E+02  0.99098179380E+02  0.00000000000E+00 0.  1.
</event>
<event>
 7    1  0.2820496E-009  0.1670426E+03  0.7561462E-02  0.1180968E+00
         -1   -1    0    0    0  501 -0.00000000000E+00  0.00000000000E+00  0.84846391204E+02  0.84846391204E+02  0.00000000000E+00 0.  1.
          1   -1    0    0  501    0  0.00000000000E+00 -0.00000000000E+00 -0.39620047163E+03  0.39620047163E+03  0.00000000000E+00 0. -1.
         25    2    1    2    0    0  0.10490218381E+03  0.83240261705E+02 -0.24183610754E+03  0.30342499129E+03  0.12509441673E+03 0.  0.
          5    1    3    3  502    0  0.12808039342E+03  0.64107298035E+02 -0.22973223539E+03  0.27075580366E+03  0.41800000000E+01 0. -1.
         -5    1    3    3    0  502 -0.23178209608E+02  0.19132963670E+02 -0.12103872144E+02  0.32669187628E+02  0.41800000000E+01 0. -1.
        -11    1    1    2    0    0 -0.33110749567E+02 -0.82237906910E+02 -0.55127291499E+02  0.10439546608E+03  0.00000000000E+00 0. -1.
         11    1    1    2    0    0 -0.71791434242E+02 -0.10023547950E+01 -0.14390681387E+02  0.73226405459E+02  0.00000000000E+00 0.  1.
</event>
<event>
 7    1  0.4239466E-009  0.1165357E+03  0.7561462E-02  0.1248924E+00
          2   -1    0    0  501    0  0.00000000000E+00  0.00000000000E+00  0.80164838852E+03  0.80164838852E+03  0.00000000000E+00 0. -1.
         -2   -1    0    0    0  501 -0.00000000000E+00 -0.00000000000E+00 -0.19740261397E+02  0.19740261397E+02  0.00000000000E+00 0.  1.
         25    2    1    2    0    0 -0.44519373663E+02  0.36291825066E+02  0.52679678729E+03  0.54448171827E+03  0.12508563160E+03 0.  0.
          5    1    3    3  502    0  0.39771892627E+02 -0.69004545443E+01  0.20644571411E+03  0.21039658978E+03  0.41800000000E+01 0.  1.
         -5    1    3    3    0  502 -0.84291266290E+02  0.43192279610E+02  0.32035107318E+03  0.33408512849E+03  0.41800000000E+01 0.  1.
        -11    1    1    2    0    0  0.46384932408E+02 -0.58915322082E+02  0.13280178580E+03  0.15250866022E+03  0.00000000000E+00 0.  1.
         11    1    1    2    0    0 -0.18655587450E+01  0.22623497016E+02  0.12230955403E+03  0.12439827143E+03  0.00000000000E+00 0. -1.
</event>
<event>
 7    1  0.2820496E-009  0.1547302E+03  0.7561462E-02  0.1194778E+00
         -2   -1    0    0    0  501 -0.00000000000E+00  0.00000000000E+00  0.39833342261E+02  0.39833342261E+02  0.00000000000E+00 0.  1.
          2   -1    0    0  501    0  0.00000000000E+00 -0.00000000000E+00 -0.81210968939E+03  0.81210968939E+03  0.00000000000E+00 0. -1.
         25    2    1    2    0    0 -0.12233229815E+03 -0.71993980035E+02 -0.40396859086E+03  0.44607913447E+03  0.12509055709E+03 0.  0.
          5    1    3    3  502    0 -0.79190508091E+02 -0.80376357860E+02 -0.37878203803E+03  0.39525283074E+03  0.41800000000E+01 0.  1.
         -5    1    3    3    0  502 -0.43141790055E+02  0.83823778255E+01 -0.25186552836E+02  0.50826303730E+02  0.41800000000E+01 0.  1.
        -11    1    1    2    0    0  0.93548232139E+02  0.24229687976E+02 -0.31196551902E+03  0.32658970371E+03  0.00000000000E+00 0. -1.
         11    1    1    2    0    0  0.28784066007E+02  0.47764292059E+02 -0.56342237246E+02  0.79274193466E+02  0.00000000000E+00 0.  1.
</event>
<event>
 7    1  0.2820496E-009  0.1661899E+03  0.7561462E-02  0.1181880E+00
          1   -1    0    0  501    0  0.00000000000E+00  0.00000000000E+00  0.41296722146E+03  0.41296722146E+03  0.00000000000E+00 0. -1.
         -1   -1    0    0    0  501 -0.00000000000E+00 -0.00000000000E+00 -0.93668084119E+02  0.93668084119E+02  0.00000000000E+00 0.  1.
         25    2    1    2    0    0 -0.51447798751E+02  0.13703966834E+03  0.72585860911E+02  0.20577394562E+03  0.12508981892E+03 0.  0.
          5    1    3    3  502    0 -0.80746369822E+02  0.13257156886E+03  0.37672221337E+02  0.15978693867E+03  0.41800000000E+01 0. -1.
         -5    1    3    3    0  502  0.29298571071E+02  0.44680994789E+01  0.34913639574E+02  0.45987006948E+02  0.41800000000E+01 0. -1.
        -11    1    1    2    0    0  0.14080710931E+02 -0.58789232317E+02  0.30089940744E+02  0.67526622829E+02  0.00000000000E+00 0.  1.
         11    1    1    2    0    0  0.37367087820E+02 -0.78250436019E+02  0.21662333569E+03  0.23333473713E+03  0.00000000000E+00 0. -1.
</event>
<event>
 7    1  0.2820496E-009  0.1288209E+03  0.7561462E-02  0.1229216E+00
         -3   -1    0    0    0  501 -0.00000000000E+00  0.00000000000E+00  0.49450370469E+02  0.49450370469E+02  0.00000000000E+00 0.  1.
          3   -1    0    0  501    0  0.00000000000E+00 -0.00000000000E+00 -0.37800193184E+03  0.37800193184E+03  0.00000000000E+00 0. -1.
         25    2    1    2    0    0 -0.45914948401E+02  0.55920506677E+02 -0.24474738129E+03  0.28422504015E+03  0.12508919716E+03 0.  0.
          5    1    3    3  502    0  0.35983971514E+02 -0.95409130836E+01 -0.44640745699E+02  0.58276442968E+02  0.41800000000E+01 0.  1.
         -5    1    3    3    0  502 -0.81898919915E+02  0.65461419761E+02 -0.20010663559E+03  0.22594859718E+03  0.41800000000E+01 0.  1.
        -11    1    1    2    0    0 -0.31762042264E+01 -0.65211602869E+02 -0.38574219813E+02  0.75832788794E+02  0.00000000000E+00 0.  1.
         11    1    1    2    0    0  0.49091152627E+02  0.92910961921E+01 -0.45229960269E+02  0.67394473369E+02  0.00000000000E+00 0. -1.
</event>
<event>
 7    1  0.2820496E-009  0.1515037E+03  0.7561462E-02  0.1198637E+00
          2   -1    0    0  501    0  0.00000000000E+00  0.00000000000E+00  0.11919190927E+04  0.11919190927E+04  0.00000000000E+00 0. -1.
         -2   -1    0    0    0  501 -0.00000000000E+00 -0.00000000000E+00 -0.25241345700E+02  0.25241345700E+02  0.00000000000E+00 0.  1.
         25    2    1    2    0    0 -0.12246957612E+03 -0.51320675017E+02  0.70804549155E+03  0.73116977216E+03  0.12509280100E+03 0.  0.
          5    1    3    3  502    0  0.10201812610E+02  0.17328717660E+02  0.27012385733E+02  0.33933800543E+02  0.41800000000E+01 0.  1.
         -5    1    3    3    0  502 -0.13267138873E+03 -0.68649392677E+02  0.68103310581E+03  0.69723597162E+03  0.41800000000E+01 0.  1.
        -11    1    1    2    0    0  0.10199802872E+03  0.45920608598E+02  0.44901245660E+03  0.46273587103E+03  0.00000000000E+00 0. -1.
         11    1    1    2    0    0  0.20471547396E+02  0.54000664190E+01  0.96197988487E+01  0.23254795205E+02  0.00000000000E+00 0.  1.
</event>
<event>
 7    1  0.2820496E-009  0.3964209E+03  0.7561462E-02  0.1045026E+00
         -1   -1    0    0    0  501 -0.00000000000E+00  0.00000000000E+00  0.26544987103E+03  0.26544987103E+03  0.00000000000E+00 0.  1.
          1   -1    0    0  501    0  0.00000000000E+00 -0.00000000000E+00 -0.78307713497E+03  0.78307713497E+03  0.00000000000E+00 0. -1.
         25    2    1    2    0    0  0.17880726404E+03 -0.34650286862E+03 -0.50126003790E+03  0.64726513628E+03  0.12511696696E+03 0.  0.
          5    1    3    3  502    0  0.81242373843E+02 -0.25874757134E+03 -0.27892588601E+03  0.38906008696E+03  0.41800000000E+01 0.  1.
         -5    1    3    3    0  502  0.97564890194E+02 -0.87755297280E+02 -0.22233415188E+03  0.25820504932E+03  0.41800000000E+01 0.  1.
        -11    1    1    2    0    0 -0.57397167987E+02  0.12970770964E+03 -0.50267098101E+02  0.15048357381E+03  0.00000000000E+00 0.  1.
         11    1    1    2    0    0 -0.12141009605E+03  0.21679515897E+03  0.33899872051E+02  0.25077829591E+03  0.00000000000E+00 0. -1.
</event>
<event>
 7    1  0.2820496E-009  0.3273555E+03  0.7561462E-02  0.1072313E+00
         -1   -1    0    0    0  501 -0.00000000000E+00  0.00000000000E+00  0.79457770649E+03  0.79457770649E+03  0.00000000000E+00 0.  1.
          1   -1    0    0  501    0  0.00000000000E+00 -0.00000000000E+00 -0.14327183313E+03  0.14327183313E+03  0.00000000000E+00 0. -1.
         25    2    1    2    0    0  0.22328108407E+03  0.21811869098E+03  0.23834486324E+03  0.41217274541E+03  0.12509153596E+03 0.  0.
          5    1    3    3  502    0  0.69027301680E+02  0.15239950818E+03  0.10169673825E+03  0.19583175800E+03  0.41800000000E+01 0. -1.
         -5    1    3    3    0  502  0.15425378239E+03  0.65719182798E+02  0.13664812499E+03  0.21634098741E+03  0.41800000000E+01 0. -1.
        -11    1    1    2    0    0 -0.19145115622E+03 -0.14588929683E+03  0.26513352958E+03  0.35809638459E+03  0.00000000000E+00 0. -1.
         11    1    1    2    0    0 -0.31829927857E+02 -0.72229394146E+02  0.14782748054E+03  0.16758040962E+03  0.00000000000E+00 0.  1.
</event>
<event>
 7    1  0.2820496E-009  0.1716094E+03  0.7561462E-02  0.1176180E+00
          1   -1    0    0  501    0  0.00000000000E+00  0.00000000000E+00  0.21600233128E+03  0.21600233128E+03  0.00000000000E+00 0. -1.
         -1   -1    0    0    0  501 -0.00000000000E+00 -0.00000000000E+00 -0.24176091765E+03  0.24176091765E+03  0.00000000000E+00 0.  1.
         25    2    1    2    0    0  0.12433882949E+03  0.44794156536E+02 -0.16364950187E+03  0.24473473578E+03  0.12508905009E+03 0.  0.
          5    1    3    3  502    0 -0.22102141577E+02  0.24073746510E+02 -0.20161191381E+02  0.38626363682E+02  0.41800000000E+01 0.  1.
         -5    1    3    3    0  502  0.14644097107E+03  0.20720410025E+02 -0.14348831049E+03  0.20610837209E+03  0.41800000000E+01 0.  1.
        -11    1    1    2    0    0  0.76632611918E+01 -0.28258353640E+02  0.27266292790E+02  0.40008884576E+02  0.00000000000E+00 0.  1.
         11    1    1    2    0    0 -0.13200209069E+03 -0.16535802896E+02  0.11062462271E+03  0.17301962858E+03  0.00000000000E+00 0. -1.
</event>
<event>
 7    1  0.2820496E-009  0.6956416E+02  0.7561462E-02  0.1361581E+00
          2   -1    0    0  501    0  0.00000000000E+00  0.00000000000E+00  0.41270992108E+03  0.41270992108E+03  0.00000000000E+00 0. -1.
         -2   -1    0    0    0  501 -0.00000000000E+00 -0.00000000000E+00 -0.46416306612E+02  0.46416306612E+02  0.00000000000E+00 0.  1.
         25    2    1    2    0    0  0.54512998946E+00 -0.47662246890E+01  0.34220259304E+03  0.36437753425E+03  0.12508140835E+03 0.  0.
          5    1    3    3  502    0  0.18934848758E+02  0.37099917194E+02  0.29702825951E+03  0.29996365063E+03  0.41800000000E+01 0. -1.
         -5    1    3    3    0  502 -0.18389718768E+02 -0.41866141883E+02  0.45174333536E+02  0.64413883619E+02  0.41800000000E+01 0. -1.
        -11    1    1    2    0    0  0.48683495546E+01  0.27526530946E+02  0.51570304323E+02  0.58659244977E+02  0.00000000000E+00 0. -1.
         11    1    1    2    0    0 -0.54134795441E+01 -0.22760306257E+02 -0.27479282900E+02  0.36089448463E+02  0.00000000000E+00 0.  1.
</event>
<event>
 7    1  0.2820496E-009  0.1005429E+03  0.7561462E-02  0.1279158E+00
         -2   -1    0    0    0  501 -0.00000000000E+00  0.00000000000E+00  0.26246608286E+03  0.26246608286E+03  0.00000000000E+00 0.  1.
          2   -1    0    0  501    0  0.00000000000E+00 -0.00000000000E+00 -0.57462190089E+02  0.57462190089E+02  0.00000000000E+00 0. -1.
         25    2    1    2    0    0 -0.30169052495E+02  0.49073933464E+02  0.14807982172E+03  0.20222106246E+03  0.12508917550E+03 0.  0.
          5    1    3    3  502    0 -0.72059348499E+02  0.19622795557E+02  0.45654350726E+02  0.87632162770E+02  0.41800000000E+01 0.  1.
         -5    1    3    3    0  502  0.41890296005E+02  0.29451137907E+02  0.10242547100E+03  0.11458889969E+03  0.41800000000E+01 0.  1.
        -11    1    1    2    0    0  0.42227808353E+02 -0.28125240720E+02  0.72838223997E+02  0.88767245304E+02  0.00000000000E+00 0.  1.
         11    1    1    2    0    0 -0.12058755859E+02 -0.20948692744E+02 -0.15914152951E+02  0.28939965181E+02  0.00000000000E+00 0. -1.
</event>
<event>
 7    1  0.2820496E-009  0.1084947E+03  0.7561462E-02  0.1263383E+00
          4   -1    0    0  501    0  0.00000000000E+00  0.00000000000E+00  0.33491358686E+03  0.33491358686E+03  0.00000000000E+00 0. -1.
         -4   -1    0    0    0  501 -0.00000000000E+00 -0.00000000000E+00 -0.36276645811E+02  0.36276645811E+02  0.00000000000E+00 0.  1.
         25    2    1    2    0    0  0.25903607835E+02 -0.15761266546E+00  0.15987040933E+03  0.20463802908E+03  0.12508858233E+03 0.  0.
          5    1    3    3  502    0  0.76278502197E+02  0.68123978298E+01  0.97778727862E+02  0.12426974967E+03  0.41800000000E+01 0.  1.
         -5    1    3    3    0  502 -0.50374894362E+02 -0.69700104953E+01  0.62091681465E+02  0.80368279411E+02  0.41800000000E+01 0.  1.
        -11    1    1    2    0    0  0.34758714691E+01  0.39785043153E+02  0.82934000953E+02  0.92048790624E+02  0.00000000000E+00 0. -1.
         11    1    1    2    0    0 -0.29379479304E+02 -0.39627430488E+02  0.55832530770E+02  0.74503412965E+02  0.00000000000E+00 0.  1.
</event>
<event>
 7    1  0.2820496E-009  0.3782819E+03  0.7561462E-02  0.1051571E+00
         -2   -1    0    0    0  501 -0.00000000000E+00  0.00000000000E+00  0.15058408387E+03  0.15058408387E+03  0.00000000000E+00 0.  1.
          2   -1    0    0  501    0  0.00000000000E+00 -0.00000000000E+00 -0.18897369026E+04  0.18897369026E+04  0.00000000000E+00 0. -1.
         25    2    1    2    0    0 -0.73460474351E+02 -0.36099056907E+03 -0.15837259276E+04  0.16308116133E+04  0.12509225492E+03 0.  0.
          5    1    3    3  502    0  0.13164883819E+02 -0.23323981179E+03 -0.10097239921E+04  0.10364044272E+04  0.41800000000E+01 0.  1.
         -5    1    3    3    0  502 -0.86625358170E+02 -0.12775075727E+03 -0.57400193542E+03  0.59440718613E+03  0.41800000000E+01 0.  1.
        -11    1    1    2    0    0  0.43486649031E+02  0.23602845036E+03 -0.54509776192E+02  0.24611345702E+03  0.00000000000E+00 0.  1.
         11    1    1    2    0    0  0.29973825320E+02  0.12496211870E+03 -0.10091711497E+03  0.16339591613E+03  0.00000000000E+00 0. -1.
</event>
<event>
 7    1  0.2820496E-009  0.1158261E+03  0.7561462E-02  0.1250146E+00
          2   -1    0    0  501    0  0.00000000000E+00  0.00000000000E+00  0.18375164912E+04  0.18375164912E+04  0.00000000000E+00 0. -1.
         -2   -1    0    0    0  501 -0.00000000000E+00 -0.00000000000E+00 -0.23916770650E+02  0.23916770650E+02  0.00000000000E+00 0.  1.
         25    2    1    2    0    0 -0.75597888391E+00  0.82418587784E+02  0.16537628394E+04  0.16605337768E+04  0.12508996591E+03 0.  0.
          5    1    3    3  502    0  0.30549557521E+01 -0.22217351380E+02  0.80550292815E+03  0.80582590125E+03  0.41800000000E+01 0. -1.
         -5    1    3    3    0  502 -0.38109346360E+01  0.10463593916E+03  0.84825991127E+03  0.85470787551E+03  0.41800000000E+01 0. -1.
        -11    1    1    2    0    0  0.22150681960E+02 -0.79414941230E+02  0.68943189964E+02  0.10747348066E+03  0.00000000000E+00 0.  1.
         11    1    1    2    0    0 -0.21394703076E+02 -0.30036465536E+01  0.90893691160E+02  0.93426004437E+02  0.00000000000E+00 0. -1.
</event>
<event>
 7    1  0.2820496E-009  0.1200755E+03  0.7561462E-02  0.1242973E+00
         -2   -1    0    0    0  501 -0.00000000000E+00  0.00000000000E+00  0.37520743797E+02  0.37520743797E+02  0.00000000000E+00 0.  1.
          2   -1    0    0  501    0  0.00000000000E+00 -0.00000000000E+00 -0.51756618651E+03  0.51756618651E+03  0.00000000000E+00 0. -1.
         25    2    1    2    0    0 -0.77149286738E+01  0.61481024077E+02 -0.38407080232E+03  0.40865053502E+03  0.12508174181E+03 0.  0.
          5    1    3    3  502    0  0.44890126411E+02 -0.61010035197E+01 -0.20662208200E+03  0.21157150769E+03  0.41800000000E+01 0. -1.
         -5    1    3    3    0  502 -0.52605055085E+02  0.67582027596E+02 -0.17744872031E+03  0.19707902734E+03  0.41800000000E+01 0. -1.
        -11    1    1    2    0    0 -0.70023515232E+01 -0.82750657016E+02 -0.83330092501E+02  0.11764611545E+03  0.00000000000E+00 0. -1.
         11    1    1    2    0    0  0.14717280197E+02  0.21269632939E+02 -0.12644547896E+02  0.28790279840E+02  0.00000000000E+00 0.  1.
</event>
<event>
 7    1  0.2820496E-009  0.1003454E+03  0.7561462E-02  0.1279571E+00
         -1   -1    0    0    0  501 -0.00000000000E+00  0.00000000000E+00  0.27063056624E+02  0.27063056624E+02  0.00000000000E+00 0.  1.
          1   -1    0    0  501    0  0.00000000000E+00 -0.00000000000E+00 -0.44681282063E+03  0.44681282063E+03  0.00000000000E+00 0. -1.
         25    2    1    2    0    0  0.16936637009E+01 -0.14011034881E+02 -0.21867151131E+03  0.25231691816E+03  0.12508964678E+03 0.  0.
          5    1    3    3  502    0  0.42623566277E+02 -0.43250078326E+02 -0.58658245437E+02  0.84531649902E+02  0.41800000000E+01 0. -1.
         -5    1    3    3    0  502 -0.40929902576E+02  0.29239043445E+02 -0.16001326588E+03  0.16778526825E+03  0.41800000000E+01 0. -1.
        -11    1    1    2    0    0  0.36768221123E+02  0.30237631198E+02 -0.75802268943E+02  0.89510895437E+02  0.00000000000E+00 0. -1.
         11    1    1    2    0    0 -0.38461884824E+02 -0.16226596317E+02 -0.12527598375E+03  0.13204806366E+03  0.00000000000E+00 0.  1.
</event>
<event>
 7    1  0.2820496E-009  0.1409955E+03  0.7561462E-02  0.1211996E+00
          2   -1    0    0  501    0  0.00000000000E+00  0.00000000000E+00  0.92398761314E+03  0.92398761314E+03  0.00000000000E+00 0. -1.
         -2   -1    0    0    0  501 -0.00000000000E+00 -0.00000000000E+00 -0.24453001134E+02  0.24453001134E+02  0.00000000000E+00 0.  1.
         25    2    1    2    0    0  0.98619285363E+02  0.29563839730E+02  0.43713709233E+03  0.46619162921E+03  0.12508402612E+03 0.  0.
          5    1    3    3  502    0  0.64961204429E+02  0.70414463262E+02  0.35996168735E+03  0.37251582983E+03  0.41800000000E+01 0. -1.
         -5    1    3    3    0  502  0.33658080933E+02 -0.40850623532E+02  0.77175404981E+02  0.93675799378E+02  0.41800000000E+01 0. -1.
        -11    1    1    2    0    0 -0.24664713466E+02 -0.50448316054E+02  0.14051601960E+03  0.15132128881E+03  0.00000000000E+00 0.  1.
         11    1    1    2    0    0 -0.73954571896E+02  0.20884476325E+02  0.32188150008E+03  0.33092769626E+03  0.00000000000E+00 0. -1.
</event>
<event>
 7    1  0.2820496E-009  0.9706851E+02  0.7561462E-02  0.1286584E+00
         -2   -1    0    0    0  501 -0.00000000000E+00  0.00000000000E+00  0.13844182506E+02  0.13844182506E+02  0.00000000000E+00 0.  1.
          2   -1    0    0  501    0  0.00000000000E+00 -0.00000000000E+00 -0.98899952196E+03  0.98899952196E+03  0.00000000000E+00 0. -1.
         25    2    1    2    0    0  0.15497265965E+02 -0.22937775280E+02 -0.72255466184E+03  0.73382509882E+03  0.12509088505E+03 0.  0.
          5    1    3    3  502    0  0.31073824323E+02  0.41897069096E+02 -0.18924489151E+03  0.19634675530E+03  0.41800000000E+01 0.  1.
         -5    1    3    3    0  502 -0.15576558358E+02 -0.64834844375E+02 -0.53330977034E+03  0.53747834352E+03  0.41800000000E+01 0.  1.
        -11    1    1    2    0    0 -0.28111166972E+02  0.42955323112E+02 -0.23210841370E+03  0.23771771748E+03  0.00000000000E+00 0. -1.
         11    1    1    2    0    0  0.12613901007E+02 -0.20017547833E+02 -0.20492263910E+02  0.31300888167E+02  0.00000000000E+00 0.  1.
</event>
<event>
 7    1  0.2820496E-009  0.2212258E+03  0.7561462E-02  0.1132972E+00
         -1   -1    0    0    0  501 -0.00000000000E+00  0.00000000000E+00  0.46067860132E+02  0.46067860132E+02  0.00000000000E+00 0.  1.
          1   -1    0    0  501    0  0.00000000000E+00 -0.00000000000E+00 -0.11141346571E+04  0.11141346571E+04  0.00000000000E+00 0. -1.
         25    2    1    2    0    0  0.97447363000E+02  0.16912584384E+03 -0.63146379630E+03  0.67266594371E+03  0.12503362020E+03 0.  0.
          5    1    3    3  502    0  0.12174867264E+03  0.10128516163E+03 -0.40094511845E+03  0.43111005981E+03  0.41800000000E+01 0. -1.
         -5    1    3    3    0  502 -0.24301309635E+02  0.67840682212E+02 -0.23051867784E+03  0.24155588390E+03  0.41800000000E+01 0. -1.
        -11    1    1    2    0    0 -0.78768705412E+02 -0.54692484628E+02 -0.14621334401E+03  0.17485456469E+03  0.00000000000E+00 0. -1.
         11    1    1    2    0    0 -0.18678657588E+02 -0.11443335922E+03 -0.29038965667E+03  0.31268200884E+03  0.00000000000E+00 0.  1.
</event>
<event>
 7    1  0.2820496E-009  0.1200343E+03  0.7561462E-02  0.1243040E+00
         -1   -1    0    0    0  501 -0.00000000000E+00  0.00000000000E+00  0.14912556855E+02  0.14912556855E+02  0.00000000000E+00 0.  1.
          1   -1    0    0  501    0  0.00000000000E+00 -0.00000000000E+00 -0.13162733138E+04  0.13162733138E+04  0.00000000000E+00 0. -1.
         25    2    1    2    0    0 -0.10364245598E+02  0.85873947935E+02 -0.79388875769E+03  0.80832459178E+03  0.12509010179E+03 0.  0.
          5    1    3    3  502    0 -0.35687498381E+02  0.15297238757E+02 -0.58577874443E+03  0.58707905165E+03  0.41800000000E+01 0.  1.
         -5    1    3    3    0  502  0.25323252783E+02  0.70576709178E+02 -0.20811001326E+03  0.22124554014E+03  0.41800000000E+01 0.  1.
        -11    1    1    2    0    0 -0.97717076746E+00 -0.10428727713E+03 -0.41889549706E+03  0.43168301854E+03  0.00000000000E+00 0. -1.
         11    1    1    2    0    0  0.11341416365E+02  0.18413329200E+02 -0.88576502148E+02  0.91178260294E+02  0.00000000000E+00 0.  1.
</event>
<event>
 7    1  0.2820496E-009  0.1137023E+03  0.7561462E-02  0.1253863E+00
          2   -1    0    0  501    0  0.00000000000E+00  0.00000000000E+00  0.77849246932E+02  0.77849246932E+02  0.00000000000E+00 0. -1.
         -2   -1    0    0    0  501 -0.00000000000E+00 -0.00000000000E+00 -0.18331438396E+03  0.18331438396E+03  0.00000000000E+00 0.  1.
         25    2    1    2    0    0 -0.29226687154E+02  0.29163627075E+02 -0.41418097876E+02  0.13809340350E+03  0.12509841275E+03 0.  0.
          5    1    3    3  502    0 -0.63422103303E+01 -0.44890037272E+02  0.77878566371E+01  0.46189416419E+02  0.41800000000E+01 0. -1.
         -5    1    3    3    0  502 -0.22884476823E+02  0.74053664347E+02 -0.49205954513E+02  0.91903987086E+02  0.41800000000E+01 0. -1.
        -11    1    1    2    0    0 -0.35412228131E+02 -0.11763168781E+02 -0.30503662587E+02  0.48196176945E+02  0.00000000000E+00 0.  1.
         11    1    1    2    0    0  0.64638915284E+02 -0.17400458295E+02 -0.33543376564E+02  0.74874050440E+02  0.00000000000E+00 0. -1.
</event>
<event>
 7    1  0.2820496E-009  0.3978904E+03  0.7561462E-02  0.1044513E+00
          2   -1    0    0  501    0  0.00000000000E+00  0.00000000000E+00  0.93602966686E+03  0.93602966686E+03  0.00000000000E+00 0. -1.
         -2   -1    0    0    0  501 -0.00000000000E+00 -0.00000000000E+00 -0.22989981938E+03  0.22989981938E+03  0.00000000000E+00 0.  1.
         25    2    1    2    0    0 -0.36290789905E+03  0.12394431274E+03  0.65375262570E+03  0.76818233885E+03  0.12508906530E+03 0.  0.
          5    1    3    3  502    0 -0.57052688299E+02  0.73818501283E+02  0.14801507493E+03  0.17501461419E+03  0.41800000000E+01 0.  1.
         -5    1    3    3    0  502 -0.30585521075E+03  0.50125811453E+02  0.50573755077E+03  0.59316772466E+03  0.41800000000E+01 0.  1.
        -11    1    1    2    0    0  0.12241032188E+03 -0.84434338717E+02  0.12010061474E+01  0.14871074902E+03  0.00000000000E+00 0. -1.
         11    1    1    2    0    0  0.24049757717E+03 -0.39509974018E+02  0.51176215633E+02  0.24903639838E+03  0.00000000000E+00 0.  1.
</event>
<event>
 7    1  0.2820496E-009  0.1132670E+03  0.7561462E-02  0.1254637E+00
         -1   -1    0    0    0  501 -0.00000000000E+00  0.00000000000E+00  0.40269083320E+02  0.40269083320E+02  0.00000000000E+00 0.  1.
          1   -1    0    0  501    0  0.00000000000E+00 -0.00000000000E+00 -0.65156174924E+03  0.65156174924E+03  0.00000000000E+00 0. -1.
         25    2    1    2    0    0  0.26327893518E+02 -0.33135846624E+02 -0.57141433595E+03  0.58646914416E+03  0.12506227015E+03 0.  0.
          5    1    3    3  502    0 -0.91959185351E+01 -0.74040789264E+02 -0.38988526778E+03  0.39698186082E+03  0.41800000000E+01 0. -1.
         -5    1    3    3    0  502  0.35523812053E+02  0.40904942640E+02 -0.18152906817E+03  0.18948728334E+03  0.41800000000E+01 0. -1.
        -11    1    1    2    0    0 -0.40621902994E+02 -0.17957464114E+02 -0.19922148186E+02  0.48677525704E+02  0.00000000000E+00 0.  1.
         11    1    1    2    0    0  0.14294009476E+02  0.51093310738E+02 -0.19956181783E+02  0.56684162695E+02  0.00000000000E+00 0. -1.
</event>
<event>
 7    1  0.2820496E-009  0.9919139E+02  0.7561462E-02  0.1282006E+00
          1   -1    0    0  501    0  0.00000000000E+00  0.00000000000E+00  0.12194275428E+03  0.12194275428E+03  0.00000000000E+00 0. -1.
         -1   -1    0    0    0  501 -0.00000000000E+00 -0.00000000000E+00 -0.14737415038E+03  0.14737415038E+03  0.00000000000E+00 0.  1.
         25    2    1    2    0    0  0.56914669529E+02 -0.19512499128E+02 -0.68890451812E+02  0.15496269502E+03  0.12509006862E+03 0.  0.
          5    1    3    3  502    0  0.24859990473E+02  0.52629050892E+02 -0.40213011767E+02  0.70868856626E+02  0.41800000000E+01 0. -1.
         -5    1    3    3    0  502  0.32054679056E+02 -0.72141550020E+02 -0.28677440045E+02  0.84093838396E+02  0.41800000000E+01 0. -1.
        -11    1    1    2    0    0 -0.19013845317E+02  0.11548595625E+02  0.65927742194E+02  0.69579907771E+02  0.00000000000E+00 0. -1.
         11    1    1    2    0    0 -0.37900824212E+02  0.79639035026E+01 -0.22468686484E+02  0.44774301862E+02  0.00000000000E+00 0.  1.
</event>
<event>
 7    1  0.2820496E-009  0.1064833E+03  0.7561462E-02  0.1267224E+00
          1   -1    0    0  501    0  0.00000000000E+00  0.00000000000E+00  0.20113141394E+03  0.20113141394E+03  0.00000000000E+00 0. -1.
         -1   -1    0    0    0  501 -0.00000000000E+00 -0.00000000000E+00 -0.69489422200E+02  0.69489422200E+02  0.00000000000E+00 0.  1.
         25    2    1    2    0    0  0.13692384006E+02 -0.39206583162E+02  0.94327307032E+02  0.16207111664E+03  0.12507904881E+03 0.  0.
          5    1    3    3  502    0  0.37009743073E+02  0.23578623040E+02  0.83051288309E+02  0.94024791606E+02  0.41800000000E+01 0.  1.
         -5    1    3    3    0  502 -0.23317359067E+02 -0.62785206202E+02  0.11276018723E+02  0.68046325029E+02  0.41800000000E+01 0.  1.
        -11    1    1    2    0    0  0.27745193948E+02  0.51550536560E+02  0.24409929801E+02  0.63427898276E+02  0.00000000000E+00 0. -1.
         11    1    1    2    0    0 -0.41437577954E+02 -0.12343953398E+02  0.12904754912E+02  0.45121821234E+02  0.00000000000E+00 0.  1.
</event>
<event>
 7    1  0.2820496E-009  0.1023380E+03  0.7561462E-02  0.1275455E+00
          2   -1    0    0  501    0  0.00000000000E+00  0.00000000000E+00  0.71937033264E+03  0.71937033264E+03  0.00000000000E+00 0. -1.
         -2   -1    0    0    0  501 -0.00000000000E+00 -0.00000000000E+00 -0.20985612470E+02  0.20985612470E+02  0.00000000000E+00 0.  1.
         25    2    1    2    0    0 -0.32038503591E+02  0.16338915220E+02  0.52387681798E+03  0.53980282326E+03  0.12508693664E+03 0.  0.
          5    1    3    3  502    0 -0.27503836149E+02 -0.40687588780E+02  0.94213628654E+02  0.10632789431E+03  0.41800000000E+01 0.  1.
         -5    1    3    3    0  502 -0.45346674421E+01  0.57026504000E+02  0.42966318933E+03  0.43347492895E+03  0.41800000000E+01 0.  1.
        -11    1    1    2    0    0  0.10147450834E+01  0.36629066591E+02  0.53200633411E+02  0.64598959916E+02  0.00000000000E+00 0.  1.
         11    1    1    2    0    0  0.31023758507E+02 -0.52967981811E+02  0.12130726877E+03  0.13595416193E+03  0.00000000000E+00 0. -1.
</event>
<event>
 7    1  0.2820496E-009  0.1168403E+03  0.7561462E-02  0.1248402E+00
          1   -1    0    0  501    0  0.00000000000E+00  0.00000000000E+00  0.19687375273E+03  0.19687375273E+03  0.00000000000E+00 0. -1.
         -1   -1    0    0    0  501 -0.00000000000E+00 -0.00000000000E+00 -0.14041343009E+03  0.14041343009E+03  0.00000000000E+00 0.  1.
         25    2    1    2    0    0 -0.39689862830E+02 -0.77021479384E+02  0.12212517327E+03  0.19511587976E+03  0.12509218638E+03 0.  0.
          5    1    3    3  502    0  0.34855698610E+02  0.31854539558E+01  0.65536975510E+01  0.35853733335E+02  0.41800000000E+01 0. -1.
         -5    1    3    3    0  502 -0.74545561440E+02 -0.80206933339E+02  0.11557147572E+03  0.15926214643E+03  0.41800000000E+01 0. -1.
        -11    1    1    2    0    0 -0.10432292090E+01  0.12531097513E+02 -0.64676793090E+02  0.65887815994E+02  0.00000000000E+00 0.  1.
         11    1    1    2    0    0  0.40733092039E+02  0.64490381870E+02 -0.98805753806E+00  0.76283487063E+02  0.00000000000E+00 0. -1.
</event>
<event>
 7    1  0.2820496E-009  0.4183070E+03  0.7561462E-02  0.1037619E+00
          2   -1    0    0  501    0  0.00000000000E+00  0.00000000000E+00  0.12380660033E+04  0.12380660033E+04  0.00000000000E+00 0.  1.
         -2   -1    0    0    0  501 -0.00000000000E+00 -0.00000000000E+00 -0.18102163390E+03  0.18102163390E+03  0.00000000000E+00 0. -1.
         25    2    1    2    0    0 -0.33060554213E+03 -0.23673610597E+03  0.85700397051E+03  0.95679072945E+03  0.12509470865E+03 0.  0.
          5    1    3    3  502    0 -0.53371720886E+02  0.29315757757E+01  0.66185875093E+02  0.85177327904E+02  0.41800000000E+01 0.  1.
         -5    1    3    3    0  502 -0.27723382124E+03 -0.23966768175E+03  0.79081809542E+03  0.87161340154E+03  0.41800000000E+01 0.  1.
        -11    1    1    2    0    0  0.20424245140E+03  0.90947860976E+02  0.11566385851E+03  0.25172330154E+03  0.00000000000E+00 0. -1.
         11    1    1    2    0    0  0.12636309072E+03  0.14578824500E+03  0.84376540403E+02  0.21057360624E+03  0.00000000000E+00 0.  1.
</event>
<event>
 7    1  0.2820496E-009  0.1210846E+03  0.7561462E-02  0.1241318E+00
         -1   -1    0    0    0  501 -0.00000000000E+00  0.00000000000E+00  0.36622562588E+03  0.36622562588E+03  0.00000000000E+00 0.  1.
          1   -1    0    0  501    0  0.00000000000E+00 -0.00000000000E+00 -0.43903363683E+02  0.43903363683E+02  0.00000000000E+00 0. -1.
         25    2    1    2    0    0  0.44587013335E+02  0.38337025046E+02  0.21396045368E+03  0.25472417642E+03  0.12509037161E+03 0.  0.
          5    1    3    3  502    0  0.83536028347E+02  0.37935134120E+02  0.10809298742E+03  0.14184113917E+03  0.41800000000E+01 0.  1.
         -5    1    3    3    0  502 -0.38949015013E+02  0.40189092583E+00  0.10586746626E+03  0.11288303725E+03  0.41800000000E+01 0.  1.
        -11    1    1    2    0    0  0.28281230844E+02 -0.23543590714E+02  0.31157012806E+02  0.48217093740E+02  0.00000000000E+00 0.  1.
         11    1    1    2    0    0 -0.72868244179E+02 -0.14793434332E+02  0.77204795711E+02  0.10718771940E+03  0.00000000000E+00 0. -1.
</event>
<event>
 7    1  0.2907713E-009  0.1444664E+03  0.7561462E-02  0.1207442E+00
         -2   -1    0    0    0  501 -0.00000000000E+00  0.00000000000E+00  0.24657535221E+02  0.24657535221E+02  0.00000000000E+00 0.  1.
          2   -1    0    0  501    0  0.00000000000E+00 -0.00000000000E+00 -0.10276190555E+04  0.10276190555E+04  0.00000000000E+00 0. -1.
         25    2    1    2    0    0 -0.11573163515E+03 -0.47878905273E+01 -0.54878313212E+03  0.57465172640E+03  0.12507975570E+03 0.  0.
          5    1    3    3  502    0 -0.35642960975E+02 -0.40259122359E+02 -0.38601476423E+03  0.38976414433E+03  0.41800000000E+01 0.  1.
         -5    1    3    3    0  502 -0.80088674179E+02  0.35471231832E+02 -0.16276836788E+03  0.18488758207E+03  0.41800000000E+01 0.  1.
        -11    1    1    2    0    0  0.48809387425E+02  0.47346378444E+02 -0.22935141211E+03  0.23921978616E+03  0.00000000000E+00 0. -1.
         11    1    1    2    0    0  0.66922247730E+02 -0.42558487916E+02 -0.22482697609E+03  0.23840507821E+03  0.00000000000E+00 0.  1.
</event>
<event>
 7    1  0.2820496E-009  0.7126635E+02  0.7561462E-02  0.1355839E+00
          2   -1    0    0  501    0  0.00000000000E+00  0.00000000000E+00  0.92010315267E+03  0.92010315267E+03  0.00000000000E+00 0. -1.
         -2   -1    0    0    0  501 -0.00000000000E+00 -0.00000000000E+00 -0.16294915449E+02  0.16294915449E+02  0.00000000000E+00 0.  1.
         25    2    1    2    0    0 -0.29122123965E+02 -0.17275339897E+02  0.34060999073E+03  0.36442978535E+03  0.12508943677E+03 0.  0.
          5    1    3    3  502    0  0.40435072501E+00 -0.11689237983E+02  0.33289237917E+03  0.33312401639E+03  0.41800000000E+01 0.  1.
         -5    1    3    3    0  502 -0.29526474690E+02 -0.55861019135E+01  0.77176115610E+01  0.31305768964E+02  0.41800000000E+01 0.  1.
        -11    1    1    2    0    0  0.15420591007E+02  0.56320265512E+02  0.32690953313E+03  0.33208373911E+03  0.00000000000E+00 0. -1.
         11    1    1    2    0    0  0.13701532957E+02 -0.39044925615E+02  0.23628871336E+03  0.23988454365E+03  0.00000000000E+00 0.  1.
</event>
<event>
 7    1  0.2820496E-009  0.2072414E+03  0.7561462E-02  0.1143769E+00
          1   -1    0    0  501    0  0.00000000000E+00  0.00000000000E+00  0.21251523098E+03  0.21251523098E+03  0.00000000000E+00 0. -1.
         -1   -1    0    0    0  501 -0.00000000000E+00 -0.00000000000E+00 -0.30883527598E+03  0.30883527598E+03  0.00000000000E+00 0.  1.
         25    2    1    2    0    0  0.76028429249E+02  0.18452360481E+03  0.70309072031E+02  0.24580860454E+03  0.12509684917E+03 0.  0.
          5    1    3    3  502    0  0.75646126048E+02  0.16375029808E+03  0.86783228157E+01  0.18063577219E+03  0.41800000000E+01 0.  1.
         -5    1    3    3    0  502  0.38230320028E+00  0.20773306723E+02  0.61630749215E+02  0.65172832352E+02  0.41800000000E+01 0.  1.
        -11    1    1    2    0    0 -0.12788398600E+02 -0.12616053467E+03 -0.65402816243E+02  0.14267989354E+03  0.00000000000E+00 0. -1.
         11    1    1    2    0    0 -0.63240030649E+02 -0.58363070136E+02 -0.10122630079E+03  0.13286200888E+03  0.00000000000E+00 0.  1.
</event>
<event>
 7    1  0.2927001E-009  0.1064231E+03  0.7561462E-02  0.1267341E+00
          1   -1    0    0  501    0  0.00000000000E+00  0.00000000000E+00  0.40262031056E+03  0.40262031056E+03  0.00000000000E+00 0. -1.
         -1   -1    0    0    0  501 -0.00000000000E+00 -0.00000000000E+00 -0.39684176376E+02  0.39684176376E+02  0.00000000000E+00 0.  1.
         25    2    1    2    0    0  0.40165317443E+02 -0.34495634798E+02  0.13867220328E+03  0.19411504044E+03  0.12508983738E+03 0.  0.
          5    1    3    3  502    0  0.61498574934E+02  0.22943308869E+02  0.10547562513E+03  0.12430225275E+03  0.41800000000E+01 0. -1.
         -5    1    3    3    0  502 -0.21333257491E+02 -0.57438943667E+02  0.33196578150E+02  0.69812787694E+02  0.41800000000E+01 0. -1.
        -11    1    1    2    0    0 -0.59763511961E+01 -0.20250761063E+02  0.81328617524E+01  0.22626390290E+02  0.00000000000E+00 0.  1.
         11    1    1    2    0    0 -0.34188966247E+02  0.54746395861E+02  0.21613106915E+03  0.22556305621E+03  0.00000000000E+00 0. -1.
</event>
<event>
 7    1  0.2820496E-009  0.2982572E+03  0.7561462E-02  0.1086115E+00
         -2   -1    0    0    0  501 -0.00000000000E+00  0.00000000000E+00  0.10013224139E+03  0.10013224139E+03  0.00000000000E+00 0. -1.
          2   -1    0    0  501    0  0.00000000000E+00 -0.00000000000E+00 -0.93197468362E+03  0.93197468362E+03  0.00000000000E+00 0.  1.
         25    2    1    2    0    0  0.27951320976E+03  0.22435817982E+02 -0.49949326075E+03  0.58632062932E+03  0.12508941792E+03 0.  0.
          5    1    3    3  502    0  0.23996738206E+03  0.63658716861E+02 -0.38196408660E+03  0.45557744955E+03  0.41800000000E+01 0.  1.
         -5    1    3    3    0  502  0.39545827695E+02 -0.41222898879E+02 -0.11752917416E+03  0.13074317978E+03  0.41800000000E+01 0.  1.
        -11    1    1    2    0    0 -0.19467257798E+03  0.20677893907E+02 -0.26378488615E+03  0.32849270018E+03  0.00000000000E+00 0.  1.
         11    1    1    2    0    0 -0.84840631780E+02 -0.43113711889E+02 -0.68564295321E+02  0.11729359551E+03  0.00000000000E+00 0. -1.
</event>
<event>
 7    1  0.2834120E-009  0.1301480E+03  0.7561462E-02  0.1227236E+00
         -1   -1    0    0    0  501 -0.00000000000E+00  0.00000000000E+00  0.67304050341E+02  0.67304050341E+02  0.00000000000E+00 0.  1.
          1   -1    0    0  501    0  0.00000000000E+00 -0.00000000000E+00 -0.30047288549E+03  0.30047288549E+03  0.00000000000E+00 0. -1.
         25    2    1    2    0    0 -0.84877178250E+02  0.24936514125E+01 -0.82560860716E+02  0.17226141714E+03  0.12508935377E+03 0.  0.
          5    1    3    3  502    0 -0.33370482542E+02 -0.56112285855E+02 -0.64910737122E+02  0.92157766480E+02  0.41800000000E+01 0. -1.
         -5    1    3    3    0  502 -0.51506695708E+02  0.58605937268E+02 -0.17650123594E+02  0.80103650658E+02  0.41800000000E+01 0. -1.
        -11    1    1    2    0    0  0.49239845007E+02 -0.41145848330E+02 -0.47698153917E+02  0.79954093443E+02  0.00000000000E+00 0.  1.
         11    1    1    2    0    0  0.35637333242E+02  0.38652196917E+02 -0.10290982052E+03  0.11556142525E+03  0.00000000000E+00 0. -1.
</event>
<event>
 7    1  0.2820496E-009  0.3049179E+03  0.7561462E-02  0.1082808E+00
         -2   -1    0    0    0  501 -0.00000000000E+00  0.00000000000E+00  0.36844657453E+02  0.36844657453E+02  0.00000000000E+00 0.  1.
          2   -1    0    0  501    0  0.00000000000E+00 -0.00000000000E+00 -0.27859895760E+04  0.27859895760E+04  0.00000000000E+00 0. -1.
         25    2    1    2    0    0  0.57679270412E+02  0.29208004323E+03 -0.11971356515E+04  0.12399267911E+04  0.12508808670E+03 0.  0.
          5    1    3    3  502    0  0.76947862040E+01  0.92782550716E+01 -0.50370231375E+01  0.13716404558E+02  0.41800000000E+01 0.  1.
         -5    1    3    3    0  502  0.49984484208E+02  0.28280178816E+03 -0.11920986283E+04  0.12262103866E+04  0.41800000000E+01 0.  1.
        -11    1    1    2    0    0 -0.52358510186E+02 -0.68498955575E+02 -0.36838926975E+03  0.37834398974E+03  0.00000000000E+00 0.  1.
         11    1    1    2    0    0 -0.53207602262E+01 -0.22358108766E+03 -0.11836199973E+04  0.12045634526E+04  0.00000000000E+00 0. -1.
</event>
<event>
 7    1  0.2820496E-009  0.1270558E+03  0.7561462E-02  0.1231891E+00
         -1   -1    0    0    0  501 -0.00000000000E+00  0.00000000000E+00  0.77927657697E+02  0.77927657697E+02  0.00000000000E+00 0.  1.
          1   -1    0    0  501    0  0.00000000000E+00 -0.00000000000E+00 -0.30337448515E+03  0.30337448515E+03  0.00000000000E+00 0. -1.
         25    2    1    2    0    0 -0.51297863246E+02 -0.95449394461E+02 -0.12103094320E+03  0.20503350002E+03  0.12509272258E+03 0.  0.
          5    1    3    3  502    0 -0.47299943637E+02 -0.25899862152E+02  0.11456707753E+02  0.55288480537E+02  0.41800000000E+01 0.  1.
         -5    1    3    3    0  502 -0.39979196095E+01 -0.69549532309E+02 -0.13248765095E+03  0.14974501948E+03  0.41800000000E+01 0.  1.
        -11    1    1    2    0    0  0.66359385599E+02  0.52179321317E+02 -0.99044126282E+02  0.13013834401E+03  0.00000000000E+00 0. -1.
         11    1    1    2    0    0 -0.15061522352E+02  0.43270073144E+02 -0.53717579738E+01  0.46130298819E+02  0.00000000000E+00 0.  1.
</event>
<event>
 7    1  0.2820496E-009  0.1020737E+03  0.7561462E-02  0.1275995E+00
         -2   -1    0    0    0  501 -0.00000000000E+00  0.00000000000E+00  0.56699848477E+02  0.56699848477E+02  0.00000000000E+00 0.  1.
          2   -1    0    0  501    0  0.00000000000E+00 -0.00000000000E+00 -0.25019650555E+03  0.25019650555E+03  0.00000000000E+00 0. -1.
         25    2    1    2    0    0  0.59741886103E+02  0.14463636722E+02 -0.11355403619E+03  0.17978131781E+03  0.12509401808E+03 0.  0.
          5    1    3    3  502    0  0.78713659007E+02  0.53593063755E+02 -0.83877429802E+02  0.12696831190E+03  0.41800000000E+01 0.  1.
         -5    1    3    3    0  502 -0.18971772904E+02 -0.39129427033E+02 -0.29676606385E+02  0.52813005913E+02  0.41800000000E+01 0.  1.
        -11    1    1    2    0    0 -0.36285261322E+02  0.22280086223E+01 -0.89644195061E+02  0.96735029435E+02  0.00000000000E+00 0. -1.
         11    1    1    2    0    0 -0.23456624781E+02 -0.16691645345E+02  0.97015741734E+01  0.30380006779E+02  0.00000000000E+00 0.  1.
</event>
<event>
 7    1  0.2820496E-009  0.1385043E+03  0.7561462E-02  0.1215356E+00
         -2   -1    0    0    0  501 -0.00000000000E+00  0.00000000000E+00  0.36824514832E+02  0.36824514832E+02  0.00000000000E+00 0. -1.
          2   -1    0    0  501    0  0.00000000000E+00 -0.00000000000E+00 -0.61856743065E+03  0.61856743065E+03  0.00000000000E+00 0.  1.
         25    2    1    2    0    0 -0.10911292997E+02 -0.96045117994E+02 -0.44461835995E+03  0.47188562962E+03  0.12508733120E+03 0.  0.
          5    1    3    3  502    0 -0.67980350572E+02 -0.47472527875E+02 -0.23150868969E+03  0.24594453596E+03  0.41800000000E+01 0. -1.
         -5    1    3    3    0  502  0.57069057575E+02 -0.48572590119E+02 -0.21310967027E+03  0.22594109366E+03  0.41800000000E+01 0. -1.
        -11    1    1    2    0    0  0.40509895872E+02  0.57269769833E+02 -0.10025182748E+03  0.12235729285E+03  0.00000000000E+00 0. -1.
         11    1    1    2    0    0 -0.29598602875E+02  0.38775348162E+02 -0.36872728388E+02  0.61149023017E+02  0.00000000000E+00 0.  1.
</event>
<event>
 7    1  0.2820496E-009  0.2024182E+03  0.7561462E-02  0.1147715E+00
         -1   -1    0    0    0  501 -0.00000000000E+00  0.00000000000E+00  0.11590023626E+03  0.11590023626E+03  0.00000000000E+00 0.  1.
          1   -1    0    0  501    0  0.00000000000E+00 -0.00000000000E+00 -0.42569429652E+03  0.42569429652E+03  0.00000000000E+00 0. -1.
         25    2    1    2    0    0  0.17241281367E+03 -0.83069707155E+02 -0.13003085286E+03  0.26302430498E+03  0.12508800003E+03 0.  0.
          5    1    3    3  502    0  0.14770543520E+03 -0.44232448342E+02 -0.36209630560E+02  0.15843615376E+03  0.41800000000E+01 0. -1.
         -5    1    3    3    0  502  0.24707378478E+02 -0.38837258813E+02 -0.93821222295E+02  0.10458815122E+03  0.41800000000E+01 0. -1.
        -11    1    1    2    0    0 -0.16124328304E+03  0.95706932340E+02 -0.18229412598E+03  0.26151550927E+03  0.00000000000E+00 0. -1.
         11    1    1    2    0    0 -0.11169530637E+02 -0.12637225185E+02  0.25309185801E+01  0.17054718523E+02  0.00000000000E+00 0.  1.
</event>
<event>
 7    1  0.2820496E-009  0.8185001E+02  0.7561462E-02  0.1323882E+00
         -1   -1    0    0    0  501 -0.00000000000E+00  0.00000000000E+00  0.10925570086E+03  0.10925570086E+03  0.00000000000E+00 0.  1.
          1   -1    0    0  501    0  0.00000000000E+00 -0.00000000000E+00 -0.11542762418E+03  0.11542762418E+03  0.00000000000E+00 0. -1.
         25    2    1    2    0    0 -0.24558704179E+02 -0.14455060693E+02  0.10225215764E+02  0.12869037852E+03  0.12507829451E+03 0.  0.
          5    1    3    3  502    0  0.57647138461E+01 -0.54413721206E+02  0.42051861951E+02  0.69136940016E+02  0.41800000000E+01 0. -1.
         -5    1    3    3    0  502 -0.30323418025E+02  0.39958660513E+02 -0.31826646187E+02  0.59553438509E+02  0.41800000000E+01 0. -1.
        -11    1    1    2    0    0 -0.14893158221E+02  0.11699083215E+02 -0.43907351185E+02  0.47817676627E+02  0.00000000000E+00 0. -1.
         11    1    1    2    0    0  0.39451862400E+02  0.27559774781E+01  0.27510212097E+02  0.48175269883E+02  0.00000000000E+00 0.  1.
</event>
<event>
 7    1  0.2820496E-009  0.1060498E+03  0.7561462E-02  0.1268065E+00
         -2   -1    0    0    0  501 -0.00000000000E+00  0.00000000000E+00  0.13964122609E+03  0.13964122609E+03  0.00000000000E+00 0.  1.
          2   -1    0    0  501    0  0.00000000000E+00 -0.00000000000E+00 -0.11857433435E+03  0.11857433435E+03  0.00000000000E+00 0. -1.
         25    2    1    2    0    0 -0.14060238856E+02 -0.52423685271E+02  0.49825473852E+02  0.14517647614E+03  0.12509076019E+03 0.  0.
          5    1    3    3  502    0 -0.69431113989E+02 -0.36626227783E+02  0.29825111859E+02  0.84078355412E+02  0.41800000000E+01 0.  1.
         -5    1    3    3    0  502  0.55370875133E+02 -0.15797457488E+02  0.20000361994E+02  0.61098120723E+02  0.41800000000E+01 0.  1.
        -11    1    1    2    0    0  0.28645247210E+02  0.91179628447E+01 -0.53283012958E+02  0.61178157082E+02  0.00000000000E+00 0. -1.
         11    1    1    2    0    0 -0.14585008354E+02  0.43305722426E+02  0.24524430844E+02  0.51860927217E+02  0.00000000000E+00 0.  1.
</event>
<event>
 7    1  0.3601111E-009  0.1486514E+03  0.7561462E-02  0.1202140E+00
         -4   -1    0    0    0  501 -0.00000000000E+00  0.00000000000E+00  0.35307441804E+02  0.35307441804E+02  0.00000000000E+00 0.  1.
          4   -1    0    0  501    0  0.00000000000E+00 -0.00000000000E+00 -0.81713913595E+03  0.81713913595E+03  0.00000000000E+00 0. -1.
         25    2    1    2    0    0 -0.88222103965E+02 -0.92792959468E+02 -0.35857211842E+03  0.40076873196E+03  0.12509172417E+03 0.  0.
          5    1    3    3  502    0  0.98150258654E+01 -0.13560176253E+02 -0.18717957978E+03  0.18797308477E+03  0.41800000000E+01 0.  1.
         -5    1    3    3    0  502 -0.98037129830E+02 -0.79232783216E+02 -0.17139253864E+03  0.21279564719E+03  0.41800000000E+01 0.  1.
        -11    1    1    2    0    0  0.79344869920E+02  0.21666888317E+02 -0.27436865505E+03  0.28643187900E+03  0.00000000000E+00 0.  1.
         11    1    1    2    0    0  0.88772340447E+01  0.71126071152E+02 -0.14889092067E+03  0.16524596679E+03  0.00000000000E+00 0. -1.
</event>
<event>
 7    1  0.3952091E-009  0.9874338E+02  0.7561462E-02  0.1282961E+00
          1   -1    0    0  501    0  0.00000000000E+00  0.00000000000E+00  0.99394083569E+03  0.99394083569E+03  0.00000000000E+00 0. -1.
         -1   -1    0    0    0  501 -0.00000000000E+00 -0.00000000000E+00 -0.19425870722E+02  0.19425870722E+02  0.00000000000E+00 0.  1.
         25    2    1    2    0    0  0.39149047421E+02  0.39761385795E+02  0.77222591771E+03  0.78427912738E+03  0.12508903208E+03 0.  0.
          5    1    3    3  502    0  0.59956357805E+02  0.66428278827E+02  0.37322484894E+03  0.38382514422E+03  0.41800000000E+01 0. -1.
         -5    1    3    3    0  502 -0.20807310384E+02 -0.26666893032E+02  0.39900106878E+03  0.40045398317E+03  0.41800000000E+01 0. -1.
        -11    1    1    2    0    0 -0.23649794107E+02  0.69156899051E+01  0.42143740692E+01  0.24998009460E+02  0.00000000000E+00 0.  1.
         11    1    1    2    0    0 -0.15499253314E+02 -0.46677075700E+02  0.19807467319E+03  0.20408956957E+03  0.00000000000E+00 0. -1.
</event>
<event>
 7    1  0.2820496E-009  0.1127805E+03  0.7561462E-02  0.1255506E+00
         -2   -1    0    0    0  501 -0.00000000000E+00  0.00000000000E+00  0.90871534471E+02  0.90871534471E+02  0.00000000000E+00 0.  1.
          2   -1    0    0  501    0  0.00000000000E+00 -0.00000000000E+00 -0.18300582147E+03  0.18300582147E+03  0.00000000000E+00 0. -1.
         25    2    1    2    0    0  0.65924138516E+02  0.92710818282E+01 -0.38958424411E+02  0.14696821578E+03  0.12509977066E+03 0.  0.
          5    1    3    3  502    0  0.21010435193E+02  0.64747890461E+02 -0.67026790826E+01  0.68528286225E+02  0.41800000000E+01 0.  1.
         -5    1    3    3    0  502  0.44913703323E+02 -0.55476808632E+02 -0.32255745328E+02  0.78439929557E+02  0.41800000000E+01 0.  1.
        -11    1    1    2    0    0 -0.85189216902E+01 -0.24940235581E+02  0.19642603797E+02  0.32869731692E+02  0.00000000000E+00 0.  1.
         11    1    1    2    0    0 -0.57405216826E+02  0.15669153753E+02 -0.72818466389E+02  0.94039408470E+02  0.00000000000E+00 0. -1.
</event>
<event>
 7    1  0.2820496E-009  0.1786237E+03  0.7561462E-02  0.1169142E+00
          4   -1    0    0  501    0  0.00000000000E+00  0.00000000000E+00  0.57425894778E+02  0.57425894778E+02  0.00000000000E+00 0. -1.
         -4   -1    0    0    0  501 -0.00000000000E+00 -0.00000000000E+00 -0.89396897908E+03  0.89396897908E+03  0.00000000000E+00 0.  1.
         25    2    1    2    0    0 -0.39942576595E+02  0.16289218897E+03 -0.65542909216E+03  0.68801484920E+03  0.12509141945E+03 0.  0.
          5    1    3    3  502    0  0.22768008740E+02  0.74672044995E+02 -0.43995503202E+03  0.44684695269E+03  0.41800000000E+01 0.  1.
         -5    1    3    3    0  502 -0.62710585336E+02  0.88220143972E+02 -0.21547406014E+03  0.24116789651E+03  0.41800000000E+01 0.  1.
        -11    1    1    2    0    0  0.45291754685E+02 -0.13635617356E+03 -0.18685327976E+03  0.23570850063E+03  0.00000000000E+00 0.  1.
         11    1    1    2    0    0 -0.53491780897E+01 -0.26536015404E+02  0.57392876186E+01  0.27671524029E+02  0.00000000000E+00 0. -1.
</event>
<event>
 7    1  0.2820496E-009  0.1036173E+03  0.7561462E-02  0.1272868E+00
         -1   -1    0    0    0  501 -0.00000000000E+00  0.00000000000E+00  0.25609886495E+02  0.25609886495E+02  0.00000000000E+00 0.  1.
          1   -1    0    0  501    0  0.00000000000E+00 -0.00000000000E+00 -0.68390215643E+03  0.68390215643E+03  0.00000000000E+00 0. -1.
         25    2    1    2    0    0  0.74458098041E+01  0.30765067853E+02 -0.55415945196E+03  0.56898374626E+03  0.12509146983E+03 0.  0.
          5    1    3    3  502    0 -0.55668484954E+02  0.10643314100E+02 -0.17321022322E+03  0.18229512934E+03  0.41800000000E+01 0. -1.
         -5    1    3    3    0  502  0.63114294758E+02  0.20121753753E+02 -0.38094922874E+03  0.38668861692E+03  0.41800000000E+01 0. -1.
        -11    1    1    2    0    0 -0.35641450439E+02  0.75738948019E+01 -0.14836993624E+02  0.39342257837E+02  0.00000000000E+00 0.  1.
         11    1    1    2    0    0  0.28195640635E+02 -0.38338962655E+02 -0.89295824349E+02  0.10118603883E+03  0.00000000000E+00 0. -1.
</event>
<event>
 7    1  0.2820496E-009  0.1462073E+03  0.7561462E-02  0.1205212E+00
         -2   -1    0    0    0  501 -0.00000000000E+00  0.00000000000E+00  0.70940674413E+02  0.70940674413E+02  0.00000000000E+00 0.  1.
          2   -1    0    0  501    0  0.00000000000E+00 -0.00000000000E+00 -0.30857198342E+03  0.30857198342E+03  0.00000000000E+00 0. -1.
         25    2    1    2    0    0  0.88811667771E+02  0.46483434442E+02 -0.13684111762E+03  0.21076014948E+03  0.12508447997E+03 0.  0.
          5    1    3    3  502    0 -0.11058966861E+02  0.56111100612E+02 -0.32357697067E+02  0.65842610211E+02  0.41800000000E+01 0. -1.
         -5    1    3    3    0  502  0.99870634632E+02 -0.96276661705E+01 -0.10448342055E+03  0.14491753927E+03  0.41800000000E+01 0. -1.
        -11    1    1    2    0    0 -0.59715654495E+02  0.19269782074E+02 -0.38478434213E+02  0.73606207567E+02  0.00000000000E+00 0.  1.
         11    1    1    2    0    0 -0.29096013276E+02 -0.65753216516E+02 -0.62311757177E+02  0.95146300786E+02  0.00000000000E+00 0. -1.
</event>
<event>
 7    1  0.2820496E-009  0.1172543E+03  0.7561462E-02  0.1247697E+00
         -1   -1    0    0    0  501 -0.00000000000E+00  0.00000000000E+00  0.88773288130E+02  0.88773288130E+02  0.00000000000E+00 0.  1.
          1   -1    0    0  501    0  0.00000000000E+00 -0.00000000000E+00 -0.28108420494E+03  0.28108420494E+03  0.00000000000E+00 0. -1.
         25    2    1    2    0    0 -0.35265985766E+02 -0.10187728544E+03 -0.58901894584E+02  0.17532726987E+03  0.12509015682E+03 0.  0.
          5    1    3    3  502    0 -0.24011085074E+02 -0.98106108270E+02  0.13369505463E+02  0.10196841061E+03  0.41800000000E+01 0. -1.
         -5    1    3    3    0  502 -0.11254900691E+02 -0.37711771674E+01 -0.72271400047E+02  0.73358859257E+02  0.41800000000E+01 0. -1.
        -11    1    1    2    0    0  0.47684783650E+02  0.57223095089E+02 -0.28346687311E+02  0.79698531259E+02  0.00000000000E+00 0.  1.
         11    1    1    2    0    0 -0.12418797884E+02  0.44654190348E+02 -0.10506233492E+03  0.11483169194E+03  0.00000000000E+00 0. -1.
</event>
<event>
 7    1  0.2820496E-009  0.8856057E+02  0.7561462E-02  0.1306375E+00
         -1   -1    0    0    0  501 -0.00000000000E+00  0.00000000000E+00  0.20430203345E+02  0.20430203345E+02  0.00000000000E+00 0.  1.
          1   -1    0    0  501    0  0.00000000000E+00 -0.00000000000E+00 -0.64192749933E+03  0.64192749933E+03  0.00000000000E+00 0. -1.
         25    2    1    2    0    0  0.96190064413E+01  0.29246041494E+01 -0.48108993769E+03  0.49718829993E+03  0.12509036274E+03 0.  0.
          5    1    3    3  502    0  0.17732772887E+02 -0.41538343935E+02 -0.41220780071E+03  0.41469582662E+03  0.41800000000E+01 0.  1.
         -5    1    3    3    0  502 -0.81137664455E+01  0.44462948084E+02 -0.68882136976E+02  0.82492473309E+02  0.41800000000E+01 0.  1.
        -11    1    1    2    0    0  0.62319027009E+01 -0.42910100846E+02 -0.60688496085E+02  0.74586908522E+02  0.00000000000E+00 0. -1.
         11    1    1    2    0    0 -0.15850909142E+02  0.39985496696E+02 -0.79718862218E+02  0.90582494225E+02  0.00000000000E+00 0.  1.
</event>
<event>
 7    1  0.2820496E-009  0.1933231E+03  0.7561462E-02  0.1155498E+00
         -1   -1    0    0    0  501 -0.00000000000E+00  0.00000000000E+00  0.84983548738E+02  0.84983548738E+02  0.00000000000E+00 0.  1.
          1   -1    0    0  501    0  0.00000000000E+00 -0.00000000000E+00 -0.50348284446E+03  0.50348284446E+03  0.00000000000E+00 0. -1.
         25    2    1    2    0    0  0.99907758561E+02  0.14419265814E+03 -0.23500816884E+03  0.31882374894E+03  0.12508661234E+03 0.  0.
          5    1    3    3  502    0  0.35441564428E+02  0.55438208409E+01 -0.12579317854E+03  0.13087488149E+03  0.41800000000E+01 0.  1.
         -5    1    3    3    0  502  0.64466194133E+02  0.13864883730E+03 -0.10921499030E+03  0.18794886745E+03  0.41800000000E+01 0.  1.
        -11    1    1    2    0    0 -0.67749930886E+02 -0.22022910739E+02 -0.67474570211E+02  0.98121757820E+02  0.00000000000E+00 0.  1.
         11    1    1    2    0    0 -0.32157827675E+02 -0.12216974740E+03 -0.11601655667E+03  0.17152088643E+03  0.00000000000E+00 0. -1.
</event>
<event>
 7    1  0.2820496E-009  0.3127597E+03  0.7561462E-02  0.1079031E+00
         -2   -1    0    0    0  501 -0.00000000000E+00  0.00000000000E+00  0.57146912475E+02  0.57146912475E+02  0.00000000000E+00 0.  1.
          2   -1    0    0  501    0  0.00000000000E+00 -0.00000000000E+00 -0.17250373870E+04  0.17250373870E+04  0.00000000000E+00 0. -1.
         25    2    1    2    0    0  0.29341218619E+03 -0.14672708981E+02 -0.91207760217E+03  0.96635402419E+03  0.12509415772E+03 0.  0.
          5    1    3    3  502    0  0.11138985168E+02 -0.33906781683E+02 -0.11921392603E+03  0.12451176407E+03  0.41800000000E+01 0.  1.
         -5    1    3    3    0  502  0.28227320102E+03  0.19234072702E+02 -0.79286367614E+03  0.84184226011E+03  0.41800000000E+01 0.  1.
        -11    1    1    2    0    0 -0.40085842173E+02  0.34002129007E+02 -0.11284579062E+03  0.12448771819E+03  0.00000000000E+00 0.  1.
         11    1    1    2    0    0 -0.25332634402E+03 -0.19329420026E+02 -0.64296708174E+03  0.69134255710E+03  0.00000000000E+00 0. -1.
</event>
<event>
 7    1  0.2820496E-009  0.1214726E+03  0.7561462E-02  0.1240687E+00
          1   -1    0    0  501    0  0.00000000000E+00  0.00000000000E+00  0.29831968575E+03  0.29831968575E+03  0.00000000000E+00 0. -1.
         -1   -1    0    0    0  501 -0.00000000000E+00 -0.00000000000E+00 -0.87462573014E+02  0.87462573014E+02  0.00000000000E+00 0.  1.
         25    2    1    2    0    0  0.70562223233E+02 -0.47810544086E+02  0.12396848866E+02  0.15187582257E+03  0.12509079960E+03 0.  0.
          5    1    3    3  502    0  0.85908470373E+02  0.94699747738E+01 -0.12494453904E+02  0.87427281110E+02  0.41800000000E+01 0.  1.
         -5    1    3    3    0  502 -0.15346247140E+02 -0.57280518860E+02  0.24891302770E+02  0.64448541455E+02  0.41800000000E+01 0.  1.
        -11    1    1    2    0    0 -0.17815300634E+02  0.39813701977E+02  0.16560173052E+03  0.17124966848E+03  0.00000000000E+00 0. -1.
         11    1    1    2    0    0 -0.52746922599E+02  0.79968421096E+01  0.32858533348E+02  0.62656767720E+02  0.00000000000E+00 0.  1.
</event>
<event>
 7    1  0.2820496E-009  0.1225949E+03  0.7561462E-02  0.1238877E+00
          2   -1    0    0  501    0  0.00000000000E+00  0.00000000000E+00  0.88417317397E+03  0.88417317397E+03  0.00000000000E+00 0. -1.
         -2   -1    0    0    0  501 -0.00000000000E+00 -0.00000000000E+00 -0.17277655740E+02  0.17277655740E+02  0.00000000000E+00 0.  1.
         25    2    1    2    0    0 -0.27658236104E+02  0.52090791070E+02  0.47421059889E+03  0.49396506397E+03  0.12508942317E+03 0.  0.
          5    1    3    3  502    0  0.27998987098E+02 -0.28404136927E+02  0.15134382309E+03  0.15656680191E+03  0.41800000000E+01 0. -1.
         -5    1    3    3    0  502 -0.55657223202E+02  0.80494927997E+02  0.32286677580E+03  0.33739826206E+03  0.41800000000E+01 0. -1.
        -11    1    1    2    0    0  0.21738033685E+02  0.23095222670E+02  0.15149000000E+03  0.15477451831E+03  0.00000000000E+00 0. -1.
         11    1    1    2    0    0  0.59202024194E+01 -0.75186013741E+02  0.24119491935E+03  0.25271124743E+03  0.00000000000E+00 0.  1.
</event>
<event>
 7    1  0.2820496E-009  0.1088999E+03  0.7561462E-02  0.1262621E+00
          2   -1    0    0  501    0  0.00000000000E+00  0.00000000000E+00  0.70004199677E+02  0.70004199677E+02  0.00000000000E+00 0. -1.
         -2   -1    0    0    0  501 -0.00000000000E+00 -0.00000000000E+00 -0.22904193118E+03  0.22904193118E+03  0.00000000000E+00 0.  1.
         25    2    1    2    0    0 -0.60765675854E+02  0.95175100380E+01 -0.61812675754E+02  0.15248459887E+03  0.12509074966E+03 0.  0.
          5    1    3    3  502    0 -0.79922264437E+02  0.35529095877E+02 -0.58831460446E+01  0.87760861515E+02  0.41800000000E+01 0.  1.
         -5    1    3    3    0  502  0.19156588583E+02 -0.26011585839E+02 -0.55929529709E+02  0.64723737357E+02  0.41800000000E+01 0.  1.
        -11    1    1    2    0    0 -0.94103383499E+01 -0.24201599362E+02 -0.25858467640E+00  0.25968033148E+02  0.00000000000E+00 0. -1.
         11    1    1    2    0    0  0.70176014204E+02  0.14684089324E+02 -0.96966471069E+02  0.12059349883E+03  0.00000000000E+00 0.  1.
</event>
<event>
 7    1  0.2820496E-009  0.1896708E+03  0.7561462E-02  0.1158759E+00
         -2   -1    0    0    0  501 -0.00000000000E+00  0.00000000000E+00  0.12446520400E+03  0.12446520400E+03  0.00000000000E+00 0. -1.
          2   -1    0    0  501    0  0.00000000000E+00 -0.00000000000E+00 -0.50068434039E+03  0.50068434039E+03  0.00000000000E+00 0.  1.
         25    2    1    2    0    0  0.90279718074E+02 -0.14781116702E+03 -0.15042589189E+02  0.21417775277E+03  0.12508901512E+03 0.  0.
          5    1    3    3  502    0  0.11659528822E+03 -0.11918790923E+03 -0.34778615746E+02  0.17037383442E+03  0.41800000000E+01 0. -1.
         -5    1    3    3    0  502 -0.26315570149E+02 -0.28623257793E+02  0.19736026557E+02  0.43803918355E+02  0.41800000000E+01 0. -1.
        -11    1    1    2    0    0 -0.61822087063E+02  0.10917908486E+03 -0.33175473537E+03  0.35468753496E+03  0.00000000000E+00 0.  1.
         11    1    1    2    0    0 -0.28457631011E+02  0.38632082160E+02 -0.29421811830E+02  0.56284256646E+02  0.00000000000E+00 0. -1.
</event>
<event>
 7    1  0.2820496E-009  0.1701854E+03  0.7561462E-02  0.1177655E+00
          1   -1    0    0  501    0  0.00000000000E+00  0.00000000000E+00  0.30718707096E+03  0.30718707096E+03  0.00000000000E+00 0. -1.
         -1   -1    0    0    0  501 -0.00000000000E+00 -0.00000000000E+00 -0.14615318668E+03  0.14615318668E+03  0.00000000000E+00 0.  1.
         25    2    1    2    0    0 -0.58179434132E+02  0.11969928344E+03  0.21626351395E+03  0.28307407346E+03  0.12509299975E+03 0.  0.
          5    1    3    3  502    0 -0.90763208694E+02  0.47783707567E+02  0.13616184265E+03  0.17052496168E+03  0.41800000000E+01 0. -1.
         -5    1    3    3    0  502  0.32583774562E+02  0.71915575874E+02  0.80101671297E+02  0.11254911178E+03  0.41800000000E+01 0. -1.
        -11    1    1    2    0    0  0.60338220554E+02 -0.27303831668E+02 -0.37670373795E+02  0.76192238090E+02  0.00000000000E+00 0.  1.
         11    1    1    2    0    0 -0.21587864221E+01 -0.92395451773E+02 -0.17559255870E+02  0.94073946095E+02  0.00000000000E+00 0. -1.
</event>
<event>
 7    1  0.2820496E-009  0.1333482E+03  0.7561462E-02  0.1222571E+00
          2   -1    0    0  501    0  0.00000000000E+00  0.00000000000E+00  0.88328539762E+02  0.88328539762E+02  0.00000000000E+00 0. -1.
         -2   -1    0    0    0  501 -0.00000000000E+00 -0.00000000000E+00 -0.26423305170E+03  0.26423305170E+03  0.00000000000E+00 0.  1.
         25    2    1    2    0    0 -0.14397137717E+02 -0.10554694469E+03 -0.99401961346E+02  0.19202527469E+03  0.12508205743E+03 0.  0.
          5    1    3    3  502    0  0.38735726854E+02 -0.46185819042E+02 -0.94412506884E+02  0.11209273068E+03  0.41800000000E+01 0. -1.
         -5    1    3    3    0  502 -0.53132864571E+02 -0.59361125650E+02 -0.49894544622E+01  0.79932544009E+02  0.41800000000E+01 0. -1.
        -11    1    1    2    0    0  0.41281189895E+02  0.50428126610E+02 -0.35987429663E+01  0.65269315481E+02  0.00000000000E+00 0. -1.
         11    1    1    2    0    0 -0.26884052178E+02  0.55118818083E+02 -0.72903807623E+02  0.95267001288E+02  0.00000000000E+00 0.  1.
</event>
<event>
 7    1  0.2820496E-009  0.1001732E+03  0.7561462E-02  0.1279932E+00
          1   -1    0    0  501    0  0.00000000000E+00  0.00000000000E+00  0.11879022133E+03  0.11879022133E+03  0.00000000000E+00 0. -1.
         -1   -1    0    0    0  501 -0.00000000000E+00 -0.00000000000E+00 -0.26888352045E+03  0.26888352045E+03  0.00000000000E+00 0.  1.
         25    2    1    2    0    0  0.51324520596E+02  0.43084445541E+02 -0.21504814249E+03  0.25765130368E+03  0.12509202547E+03 0.  0.
          5    1    3    3  502    0  0.13795630769E+02  0.49880349199E+02 -0.21299139938E+03  0.21922859593E+03  0.41800000000E+01 0.  1.
         -5    1    3    3    0  502  0.37528889827E+02 -0.67959036571E+01 -0.20567431117E+01  0.38422707744E+02  0.41800000000E+01 0.  1.
        -11    1    1    2    0    0 -0.54070126067E+02 -0.66936970338E+02  0.38413204076E+02  0.94232217305E+02  0.00000000000E+00 0.  1.
         11    1    1    2    0    0  0.27456054708E+01  0.23852524796E+02  0.26541639293E+02  0.35790220800E+02  0.00000000000E+00 0. -1.
</event>
<event>
 7    1  0.2820496E-009  0.9865363E+02  0.7561462E-02  0.1283153E+00
         -1   -1    0    0    0  501 -0.00000000000E+00  0.00000000000E+00  0.13596748559E+03  0.13596748559E+03  0.00000000000E+00 0.  1.
          1   -1    0    0  501    0  0.00000000000E+00 -0.00000000000E+00 -0.89666491888E+02  0.89666491888E+02  0.00000000000E+00 0. -1.
         25    2    1    2    0    0 -0.67715519538E+01  0.14507509445E+02  0.44966518596E+02  0.13388608633E+03  0.12508866684E+03 0.  0.
          5    1    3    3  502    0 -0.25839997107E+02  0.56247957642E+02  0.59103185824E+02  0.85686621849E+02  0.41800000000E+01 0.  1.
         -5    1    3    3    0  502  0.19068445153E+02 -0.41740448197E+02 -0.14136667228E+02  0.48199464484E+02  0.41800000000E+01 0.  1.
        -11    1    1    2    0    0 -0.19845003578E+02  0.30800134805E+02  0.11135045282E+02  0.38294408266E+02  0.00000000000E+00 0.  1.
         11    1    1    2    0    0  0.26616555532E+02 -0.45307644250E+02 -0.98005701771E+01  0.53453482876E+02  0.00000000000E+00 0. -1.
</event>
<event>
 7    1  0.2820496E-009  0.1038315E+03  0.7561462E-02  0.1272439E+00
          1   -1    0    0  501    0  0.00000000000E+00  0.00000000000E+00  0.21252258862E+03  0.21252258862E+03  0.00000000000E+00 0. -1.
         -1   -1    0    0    0  501 -0.00000000000E+00 -0.00000000000E+00 -0.91830047680E+02  0.91830047680E+02  0.00000000000E+00 0.  1.
         25    2    1    2    0    0  0.62707216146E+02  0.46695118915E+02  0.11077621028E+03  0.18447632766E+03  0.12509003803E+03 0.  0.
          5    1    3    3  502    0 -0.20568078919E+02  0.53832401870E+01  0.85285193683E+02  0.87994669195E+02  0.41800000000E+01 0.  1.
         -5    1    3    3    0  502  0.83275295064E+02  0.41311878727E+02  0.25491016602E+02  0.96481658461E+02  0.41800000000E+01 0.  1.
        -11    1    1    2    0    0  0.69253269655E+01 -0.14824425642E+02  0.35538315915E+02  0.39124105706E+02  0.00000000000E+00 0. -1.
         11    1    1    2    0    0 -0.69632543111E+02 -0.31870693273E+02 -0.25621985263E+02  0.80752202934E+02  0.00000000000E+00 0.  1.
</event>
<event>
 7    1  0.2820496E-009  0.1388259E+03  0.7561462E-02  0.1214918E+00
          2   -1    0    0  501    0  0.00000000000E+00  0.00000000000E+00  0.10287545151E+04  0.10287545151E+04  0.00000000000E+00 0.  1.
         -2   -1    0    0    0  501 -0.00000000000E+00 -0.00000000000E+00 -0.23670920772E+02  0.23670920772E+02  0.00000000000E+00 0. -1.
         25    2    1    2    0    0  0.95992472033E+02  0.56894818537E+02  0.53683146845E+03  0.56239393792E+03  0.12508933137E+03 0.  0.
          5    1    3    3  502    0  0.10070674977E+03  0.22848527432E+02  0.21334828550E+03  0.23706300425E+03  0.41800000000E+01 0. -1.
         -5    1    3    3    0  502 -0.47142777386E+01  0.34046291105E+02  0.32348318295E+03  0.32533093367E+03  0.41800000000E+01 0. -1.
        -11    1    1    2    0    0 -0.10220912471E+03 -0.70873841502E+02  0.44606683350E+03  0.46308252670E+03  0.00000000000E+00 0.  1.
         11    1    1    2    0    0  0.62166526785E+01  0.13979022965E+02  0.22185292335E+02  0.26948971216E+02  0.00000000000E+00 0. -1.
</event>
<event>
 7    1  0.3903382E-009  0.8851419E+02  0.7561462E-02  0.1306490E+00
          1   -1    0    0  501    0  0.00000000000E+00  0.00000000000E+00  0.34825000336E+03  0.34825000336E+03  0.00000000000E+00 0. -1.
         -1   -1    0    0    0  501 -0.00000000000E+00 -0.00000000000E+00 -0.63355877439E+02  0.63355877439E+02  0.00000000000E+00 0.  1.
         25    2    1    2    0    0  0.36282830175E+02 -0.45444299095E+00  0.23519984354E+02  0.13234634632E+03  0.12508283429E+03 0.  0.
          5    1    3    3  502    0  0.59070757376E+02 -0.15134028539E+02 -0.33044974166E+02  0.69482630307E+02  0.41800000000E+01 0.  1.
         -5    1    3    3    0  502 -0.22787927201E+02  0.14679585548E+02  0.56564958520E+02  0.62863716008E+02  0.41800000000E+01 0.  1.
        -11    1    1    2    0    0 -0.57241164278E+02  0.19185334090E+02  0.11171620561E+03  0.12698479644E+03  0.00000000000E+00 0.  1.
         11    1    1    2    0    0  0.20958334103E+02 -0.18730891099E+02  0.14965793596E+03  0.15227473804E+03  0.00000000000E+00 0. -1.
</event>
<event>
 7    1  0.2820496E-009  0.1527046E+03  0.7561462E-02  0.1197188E+00
          1   -1    0    0  501    0  0.00000000000E+00  0.00000000000E+00  0.24261634143E+03  0.24261634143E+03  0.00000000000E+00 0. -1.
         -1   -1    0    0    0  501 -0.00000000000E+00 -0.00000000000E+00 -0.11456899402E+03  0.11456899402E+03  0.00000000000E+00 0.  1.
         25    2    1    2    0    0  0.48605669226E+02 -0.11372511785E+03  0.41225588798E+02  0.18067110142E+03  0.12508630703E+03 0.  0.
          5    1    3    3  502    0  0.48474115533E+02 -0.92691960360E+01 -0.26438873711E+02  0.56143960627E+02  0.41800000000E+01 0.  1.
         -5    1    3    3    0  502  0.13155369320E+00 -0.10445592181E+03  0.67664462509E+02  0.12452714079E+03  0.41800000000E+01 0.  1.
        -11    1    1    2    0    0  0.25387399686E+02  0.22893831903E+02  0.33260942760E+02  0.47696309242E+02  0.00000000000E+00 0. -1.
         11    1    1    2    0    0 -0.73993068911E+02  0.90831285943E+02  0.53560815851E+02  0.12881792479E+03  0.00000000000E+00 0.  1.
</event>
<event>
 7    1  0.2820496E-009  0.1080925E+03  0.7561462E-02  0.1264144E+00
         -2   -1    0    0    0  501 -0.00000000000E+00  0.00000000000E+00  0.19294212697E+03  0.19294212697E+03  0.00000000000E+00 0.  1.
          2   -1    0    0  501    0  0.00000000000E+00 -0.00000000000E+00 -0.95188390367E+02  0.95188390367E+02  0.00000000000E+00 0. -1.
         25    2    1    2    0    0  0.58840379546E+01  0.74858128357E+02  0.86356991744E+02  0.16949974715E+03  0.12503708641E+03 0.  0.
          5    1    3    3  502    0 -0.18739734023E+02 -0.18427834293E+02 -0.14129608443E+02  0.30131062755E+02  0.41800000000E+01 0. -1.
         -5    1    3    3    0  502  0.24623771978E+02  0.93285962650E+02  0.10048660019E+03  0.13936868440E+03  0.41800000000E+01 0. -1.
        -11    1    1    2    0    0 -0.27862810159E+02 -0.60881512696E+02 -0.27033180540E+02  0.72205869763E+02  0.00000000000E+00 0. -1.
         11    1    1    2    0    0  0.21978772205E+02 -0.13976615661E+02  0.38429925399E+02  0.46424900422E+02  0.00000000000E+00 0.  1.
</event>
<event>
 7    1  0.2820496E-009  0.8410796E+02  0.7561462E-02  0.1317782E+00
          2   -1    0    0  501    0  0.00000000000E+00  0.00000000000E+00  0.19302420078E+03  0.19302420078E+03  0.00000000000E+00 0. -1.
         -2   -1    0    0    0  501 -0.00000000000E+00 -0.00000000000E+00 -0.77424027247E+02  0.77424027247E+02  0.00000000000E+00 0.  1.
         25    2    1    2    0    0 -0.16992190488E+02  0.42175653703E+02  0.25321498519E+02  0.13547558046E+03  0.12507971182E+03 0.  0.
          5    1    3    3  502    0 -0.48835175844E+02  0.43069258864E+02 -0.29755467468E+02  0.71712590966E+02  0.41800000000E+01 0. -1.
         -5    1    3    3    0  502  0.31842985356E+02 -0.89360516088E+00  0.55076965987E+02  0.63762989491E+02  0.41800000000E+01 0. -1.
        -11    1    1    2    0    0 -0.90924641445E+01 -0.43771459916E+02  0.40709054338E+01  0.44890821762E+02  0.00000000000E+00 0.  1.
         11    1    1    2    0    0  0.26084654632E+02  0.15958062129E+01  0.86207769580E+02  0.90081825806E+02  0.00000000000E+00 0. -1.
</event>
<event>
 7    1  0.2820496E-009  0.1058102E+03  0.7561462E-02  0.1268531E+00
          2   -1    0    0  501    0  0.00000000000E+00  0.00000000000E+00  0.98226498372E+02  0.98226498372E+02  0.00000000000E+00 0.  1.
         -2   -1    0    0    0  501 -0.00000000000E+00 -0.00000000000E+00 -0.16847342251E+03  0.16847342251E+03  0.00000000000E+00 0. -1.
         25    2    1    2    0    0  0.45410409124E+01 -0.53590917498E+02 -0.81033784576E+02  0.15844981213E+03  0.12508901323E+03 0.  0.
          5    1    3    3  502    0  0.28130282367E+02  0.14525049557E+02 -0.80107453904E+02  0.86237847965E+02  0.41800000000E+01 0.  1.
         -5    1    3    3    0  502 -0.23589241455E+02 -0.68115967055E+02 -0.92633067160E+00  0.72211964167E+02  0.41800000000E+01 0.  1.
        -11    1    1    2    0    0  0.35665616293E+02 -0.54192804685E+01  0.69720920453E+01  0.36742548277E+02  0.00000000000E+00 0.  1.
         11    1    1    2    0    0 -0.40206657206E+02  0.59010197967E+02  0.38147683875E+01  0.71507560478E+02  0.00000000000E+00 0. -1.
</event>
<event>
 7    1  0.2820496E-009  0.1987359E+03  0.7561462E-02  0.1150810E+00
          1   -1    0    0  501    0  0.00000000000E+00  0.00000000000E+00  0.97816235257E+03  0.97816235257E+03  0.00000000000E+00 0. -1.
         -1   -1    0    0    0  501 -0.00000000000E+00 -0.00000000000E+00 -0.44314680936E+02  0.44314680936E+02  0.00000000000E+00 0.  1.
         25    2    1    2    0    0  0.12668737187E+03 -0.10341741858E+03  0.61766172264E+03  0.65107431245E+03  0.12508758555E+03 0.  0.
          5    1    3    3  502    0  0.12919008626E+02 -0.89752523900E+02  0.25156008839E+03  0.26743665942E+03  0.41800000000E+01 0. -1.
         -5    1    3    3    0  502  0.11376836325E+03 -0.13664894684E+02  0.36610163425E+03  0.38363765303E+03  0.41800000000E+01 0. -1.
        -11    1    1    2    0    0 -0.78853361490E+02  0.84482184792E+00  0.16160389635E+03  0.17981764557E+03  0.00000000000E+00 0. -1.
         11    1    1    2    0    0 -0.47834010384E+02  0.10257259674E+03  0.15458205265E+03  0.19158507549E+03  0.00000000000E+00 0.  1.
</event>
<event>
 7    1  0.2820496E-009  0.8090073E+02  0.7561462E-02  0.1326515E+00
         -2   -1    0    0    0  501 -0.00000000000E+00  0.00000000000E+00  0.22646907617E+02  0.22646907617E+02  0.00000000000E+00 0.  1.
          2   -1    0    0  501    0  0.00000000000E+00 -0.00000000000E+00 -0.67410928573E+03  0.67410928573E+03  0.00000000000E+00 0. -1.
         25    2    1    2    0    0 -0.31663851341E+02 -0.34681047188E+02 -0.48345767322E+03  0.50158318264E+03  0.12509593439E+03 0.  0.
          5    1    3    3  502    0 -0.50231100193E+02 -0.46810819360E+02 -0.47061598910E+03  0.47561675520E+03  0.41800000000E+01 0. -1.
         -5    1    3    3    0  502  0.18567248852E+02  0.12129772172E+02 -0.12841684119E+02  0.25966427438E+02  0.41800000000E+01 0. -1.
        -11    1    1    2    0    0  0.30309288808E+02  0.48156425445E+02 -0.17190654481E+03  0.18107886251E+03  0.00000000000E+00 0.  1.
         11    1    1    2    0    0  0.13545625328E+01 -0.13475378257E+02  0.39018399079E+01  0.14094148200E+02  0.00000000000E+00 0. -1.
</event>
<event>
 7    1  0.2820496E-009  0.1279897E+03  0.7561462E-02  0.1230469E+00
          1   -1    0    0  501    0  0.00000000000E+00  0.00000000000E+00  0.11264207301E+04  0.11264207301E+04  0.00000000000E+00 0. -1.
         -1   -1    0    0    0  501 -0.00000000000E+00 -0.00000000000E+00 -0.22901082049E+02  0.22901082049E+02  0.00000000000E+00 0.  1.
         25    2    1    2    0    0 -0.48505354093E+02 -0.99444435709E+02  0.73606438380E+03  0.75477223077E+03  0.12509347739E+03 0.  0.
          5    1    3    3  502    0  0.38423973289E+01 -0.68183399885E+01  0.44091023921E+03  0.44099950705E+03  0.41800000000E+01 0.  1.
         -5    1    3    3    0  502 -0.52347751422E+02 -0.92626095721E+02  0.29515414458E+03  0.31377272372E+03  0.41800000000E+01 0.  1.
        -11    1    1    2    0    0 -0.19957892631E+02  0.56234224012E+02  0.19711951529E+03  0.20595317122E+03  0.00000000000E+00 0. -1.
         11    1    1    2    0    0  0.68463246724E+02  0.43210211697E+02  0.17033574896E+03  0.18859641015E+03  0.00000000000E+00 0.  1.
</event>
<event>
 7    1  0.2820496E-009  0.1351727E+03  0.7561462E-02  0.1219976E+00
          2   -1    0    0  501    0  0.00000000000E+00  0.00000000000E+00  0.43194425317E+03  0.43194425317E+03  0.00000000000E+00 0. -1.
         -2   -1    0    0    0  501 -0.00000000000E+00 -0.00000000000E+00 -0.61240466200E+02  0.61240466200E+02  0.00000000000E+00 0.  1.
         25    2    1    2    0    0  0.32253887831E+01 -0.11795047678E+03  0.23311886297E+03  0.28968081986E+03  0.12509138667E+03 0.  0.
          5    1    3    3  502    0 -0.14405040695E+02 -0.12311054738E+02  0.15706019256E+03  0.15825436409E+03  0.41800000000E+01 0.  1.
         -5    1    3    3    0  502  0.17630429478E+02 -0.10563942204E+03  0.76058670406E+02  0.13142645577E+03  0.41800000000E+01 0.  1.
        -11    1    1    2    0    0 -0.40846282307E+02  0.39828580158E+02  0.84106601109E+02  0.10162999029E+03  0.00000000000E+00 0. -1.
         11    1    1    2    0    0  0.37620893524E+02  0.78121896620E+02  0.53478322897E+02  0.10187390923E+03  0.00000000000E+00 0.  1.
</event>
<event>
 7    1  0.2820496E-009  0.1102659E+03  0.7561462E-02  0.1260078E+00
         -2   -1    0    0    0  501 -0.00000000000E+00  0.00000000000E+00  0.21023306817E+02  0.21023306817E+02  0.00000000000E+00 0.  1.
          2   -1    0    0  501    0  0.00000000000E+00 -0.00000000000E+00 -0.67246105024E+03  0.67246105024E+03  0.00000000000E+00 0. -1.
         25    2    1    2    0    0  0.48453649154E+02 -0.24133438964E+02 -0.34579074375E+03  0.37168352584E+03  0.12508887210E+03 0.  0.
          5    1    3    3  502    0  0.68082488411E+02  0.21082061517E+02 -0.11277248658E+03  0.13347203706E+03  0.41800000000E+01 0. -1.
         -5    1    3    3    0  502 -0.19628839258E+02 -0.45215500481E+02 -0.23301825717E+03  0.23821148879E+03  0.41800000000E+01 0. -1.
        -11    1    1    2    0    0 -0.62661743194E+02 -0.92933897438E+01 -0.17156066209E+03  0.18288226248E+03  0.00000000000E+00 0.  1.
         11    1    1    2    0    0  0.14208094040E+02  0.33426828708E+02 -0.13408633758E+03  0.13891856874E+03  0.00000000000E+00 0. -1.
</event>
<event>
 7    1  0.2820496E-009  0.1262903E+03  0.7561462E-02  0.1233066E+00
         -2   -1    0    0    0  501 -0.00000000000E+00  0.00000000000E+00  0.25386122836E+02  0.25386122836E+02  0.00000000000E+00 0.  1.
          2   -1    0    0  501    0  0.00000000000E+00 -0.00000000000E+00 -0.85443520135E+03  0.85443520135E+03  0.00000000000E+00 0. -1.
         25    2    1    2    0    0  0.51165883867E+02  0.43585778544E+02 -0.23140830997E+03  0.27149853113E+03  0.12507589185E+03 0.  0.
          5    1    3    3  502    0 -0.40361715900E+02  0.14962212309E+02 -0.98260709235E+02  0.10735723211E+03  0.41800000000E+01 0.  1.
         -5    1    3    3    0  502  0.91527599767E+02  0.28623566235E+02 -0.13314760073E+03  0.16414129902E+03  0.41800000000E+01 0.  1.
        -11    1    1    2    0    0 -0.26978356485E+01 -0.61582015437E+02 -0.30901338785E+03  0.31510140719E+03  0.00000000000E+00 0.  1.
         11    1    1    2    0    0 -0.48468048218E+02  0.17996236893E+02 -0.28862738070E+03  0.29322138587E+03  0.00000000000E+00 0. -1.
</event>
<event>
 7    1  0.2820496E-009  0.1446814E+03  0.7561462E-02  0.1207165E+00
         -2   -1    0    0    0  501 -0.00000000000E+00  0.00000000000E+00  0.85725779976E+03  0.85725779976E+03  0.00000000000E+00 0.  1.
          2   -1    0    0  501    0  0.00000000000E+00 -0.00000000000E+00 -0.36325803374E+02  0.36325803374E+02  0.00000000000E+00 0. -1.
         25    2    1    2    0    0  0.12858204634E+03  0.54787148234E+00  0.56717434255E+03  0.59486338879E+03  0.12506827606E+03 0.  0.
          5    1    3    3  502    0  0.36401019658E+02  0.13933470612E+02  0.41177855439E+03  0.41364021334E+03  0.41800000000E+01 0. -1.
         -5    1    3    3    0  502  0.92181026685E+02 -0.13385599129E+02  0.15539578816E+03  0.18122317546E+03  0.41800000000E+01 0. -1.
        -11    1    1    2    0    0 -0.12094201769E+03  0.30679561801E+02  0.18983290296E+03  0.22716676298E+03  0.00000000000E+00 0.  1.
         11    1    1    2    0    0 -0.76400286543E+01 -0.31227433283E+02  0.63924750883E+02  0.71553451368E+02  0.00000000000E+00 0. -1.
</event>
<event>
 7    1  0.2820496E-009  0.9957684E+02  0.7561462E-02  0.1281188E+00
          2   -1    0    0  501    0  0.00000000000E+00  0.00000000000E+00  0.37962555510E+03  0.37962555510E+03  0.00000000000E+00 0.  1.
         -2   -1    0    0    0  501 -0.00000000000E+00 -0.00000000000E+00 -0.34927413263E+02  0.34927413263E+02  0.00000000000E+00 0. -1.
         25    2    1    2    0    0 -0.58823782816E+01  0.95923093805E+00  0.27275567972E+03  0.30013300261E+03  0.12509450803E+03 0.  0.
          5    1    3    3  502    0 -0.30333681350E+02  0.49396423052E+02  0.74178891312E+02  0.94234384122E+02  0.41800000000E+01 0.  1.
         -5    1    3    3    0  502  0.24451303068E+02 -0.48437192114E+02  0.19857678841E+03  0.20589861849E+03  0.41800000000E+01 0.  1.
        -11    1    1    2    0    0 -0.36189196111E+02 -0.18961116423E+02  0.47099663234E+02  0.62350301747E+02  0.00000000000E+00 0.  1.
         11    1    1    2    0    0  0.42071574393E+02  0.18001885485E+02  0.24842798876E+02  0.52069663998E+02  0.00000000000E+00 0. -1.
</event>
<event>
 7    1  0.2820496E-009  0.9626370E+02  0.7561462E-02  0.1288355E+00
         -1   -1    0    0    0  501 -0.00000000000E+00  0.00000000000E+00  0.15210572062E+03  0.15210572062E+03  0.00000000000E+00 0.  1.
          1   -1    0    0  501    0  0.00000000000E+00 -0.00000000000E+00 -0.80597944126E+02  0.80597944126E+02  0.00000000000E+00 0. -1.
         25    2    1    2    0    0  0.10918253674E+02 -0.13067821366E+02  0.56710016615E+02  0.13840017498E+03  0.12509438929E+03 0.  0.
          5    1    3    3  502    0 -0.15891313836E+02  0.38355774121E+02 -0.16534172687E+02  0.44883744611E+02  0.41800000000E+01 0. -1.
         -5    1    3    3    0  502  0.26809567510E+02 -0.51423595487E+02  0.73244189303E+02  0.93516430372E+02  0.41800000000E+01 0. -1.
        -11    1    1    2    0    0 -0.48210883699E+02 -0.94006389264E+01  0.30763370512E+01  0.49215090866E+02  0.00000000000E+00 0.  1.
         11    1    1    2    0    0  0.37292630026E+02  0.22468460293E+02  0.11721422832E+02  0.45088398900E+02  0.00000000000E+00 0. -1.
</event>
<event>
 7    1  0.2820496E-009  0.1010132E+03  0.7561462E-02  0.1278180E+00
          1   -1    0    0  501    0  0.00000000000E+00  0.00000000000E+00  0.89178702479E+03  0.89178702479E+03  0.00000000000E+00 0. -1.
         -1   -1    0    0    0  501 -0.00000000000E+00 -0.00000000000E+00 -0.27765089135E+02  0.27765089135E+02  0.00000000000E+00 0.  1.
         25    2    1    2    0    0  0.42443245612E+01 -0.85912045200E+02  0.67242932173E+03  0.68935291269E+03  0.12508937485E+03 0.  0.
          5    1    3    3  502    0  0.21071471993E+02 -0.10630475148E+02  0.16996477637E+02  0.29383100345E+02  0.41800000000E+01 0.  1.
         -5    1    3    3    0  502 -0.16827147432E+02 -0.75281570052E+02  0.65543284410E+03  0.65996981234E+03  0.41800000000E+01 0.  1.
        -11    1    1    2    0    0 -0.27535885428E+02  0.32902170283E+02  0.15698825053E+03  0.16274547182E+03  0.00000000000E+00 0. -1.
         11    1    1    2    0    0  0.23291560867E+02  0.53009874917E+02  0.34604363394E+02  0.67453729417E+02  0.00000000000E+00 0.  1.
</event>
<event>
 7    1  0.2820496E-009  0.1084618E+03  0.7561462E-02  0.1263445E+00
          1   -1    0    0  501    0  0.00000000000E+00  0.00000000000E+00  0.21936312387E+02  0.21936312387E+02  0.00000000000E+00 0. -1.
         -1   -1    0    0    0  501 -0.00000000000E+00 -0.00000000000E+00 -0.59480868781E+03  0.59480868781E+03  0.00000000000E+00 0.  1.
         25    2    1    2    0    0 -0.11932239009E+02  0.17279324271E+02 -0.23845343962E+03  0.27009161550E+03  0.12509390283E+03 0.  0.
          5    1    3    3  502    0 -0.38628558242E+02  0.62135847463E+02 -0.12047191725E+03  0.14101058222E+03  0.41800000000E+01 0.  1.
         -5    1    3    3    0  502  0.26696319234E+02 -0.44856523192E+02 -0.11798152237E+03  0.12908103329E+03  0.41800000000E+01 0.  1.
        -11    1    1    2    0    0 -0.35194564574E+02  0.10298319564E+02 -0.13188971047E+03  0.13689268968E+03  0.00000000000E+00 0.  1.
         11    1    1    2    0    0  0.47126803583E+02 -0.27577643835E+02 -0.20252922535E+03  0.20976069502E+03  0.00000000000E+00 0. -1.
</event>
<event>
 7    1  0.2820496E-009  0.1449951E+03  0.7561462E-02  0.1206761E+00
          3   -1    0    0  501    0  0.00000000000E+00  0.00000000000E+00  0.58906384179E+03  0.58906384179E+03  0.00000000000E+00 0. -1.
         -3   -1    0    0    0  501 -0.00000000000E+00 -0.00000000000E+00 -0.53693393472E+02  0.53693393472E+02  0.00000000000E+00 0.  1.
         25    2    1    2    0    0  0.13971876919E+03 -0.14292365792E+02  0.28799636625E+03  0.34396995236E+03  0.12509122660E+03 0.  0.
          5    1    3    3  502    0  0.80200619989E+02 -0.31969177556E+02  0.26311858296E+03  0.27695311672E+03  0.41800000000E+01 0.  1.
         -5    1    3    3    0  502  0.59518149198E+02  0.17676811764E+02  0.24877783282E+02  0.67016835639E+02  0.41800000000E+01 0.  1.
        -11    1    1    2    0    0 -0.71292082341E+02 -0.60070281884E+00  0.44202195041E+02  0.83885373545E+02  0.00000000000E+00 0.  1.
         11    1    1    2    0    0 -0.68426686846E+02  0.14893068611E+02  0.20317188704E+03  0.21490190936E+03  0.00000000000E+00 0. -1.
</event>
<event>
 7    1  0.2820496E-009  0.1146837E+03  0.7561462E-02  0.1252134E+00
         -2   -1    0    0    0  501 -0.00000000000E+00  0.00000000000E+00  0.21489301767E+02  0.21489301767E+02  0.00000000000E+00 0.  1.
          2   -1    0    0  501    0  0.00000000000E+00 -0.00000000000E+00 -0.11586370557E+04  0.11586370557E+04  0.00000000000E+00 0. -1.
         25    2    1    2    0    0  0.21554386858E+02 -0.78119183276E+02 -0.91261281642E+03  0.92470610959E+03  0.12510810536E+03 0.  0.
          5    1    3    3  502    0 -0.29662706633E+02 -0.13539189719E+01 -0.53932057221E+03  0.54015355342E+03  0.41800000000E+01 0. -1.
         -5    1    3    3    0  502  0.51217093490E+02 -0.76765264304E+02 -0.37329224421E+03  0.38455255617E+03  0.41800000000E+01 0. -1.
        -11    1    1    2    0    0  0.25579423404E+02  0.22197206744E+02 -0.13811529617E+03  0.14220709520E+03  0.00000000000E+00 0. -1.
         11    1    1    2    0    0 -0.47133810261E+02  0.55921976532E+02 -0.86419641326E+02  0.11321315266E+03  0.00000000000E+00 0.  1.
</event>
<event>
 7    1  0.2820496E-009  0.1926898E+03  0.7561462E-02  0.1156057E+00
         -1   -1    0    0    0  501 -0.00000000000E+00  0.00000000000E+00  0.10616252144E+03  0.10616252144E+03  0.00000000000E+00 0.  1.
          1   -1    0    0  501    0  0.00000000000E+00 -0.00000000000E+00 -0.37562594896E+03  0.37562594896E+03  0.00000000000E+00 0. -1.
         25    2    1    2    0    0  0.15530359842E+03 -0.63368812088E+02 -0.17381504438E+03  0.27201857464E+03  0.12509045234E+03 0.  0.
          5    1    3    3  502    0  0.17624230061E+03 -0.47708091263E+02 -0.14853500420E+03  0.23540928268E+03  0.41800000000E+01 0.  1.
         -5    1    3    3    0  502 -0.20938702193E+02 -0.15660720825E+02 -0.25280040185E+02  0.36609291964E+02  0.41800000000E+01 0.  1.
        -11    1    1    2    0    0 -0.77390632895E+02  0.60618936483E+02 -0.18388142316E+02  0.10001044595E+03  0.00000000000E+00 0.  1.
         11    1    1    2    0    0 -0.77912965524E+02  0.27498756050E+01 -0.77260240822E+02  0.10975944982E+03  0.00000000000E+00 0. -1.
</event>
<event>
 7    1  0.2820496E-009  0.1356753E+03  0.7561462E-02  0.1219270E+00
         -4   -1    0    0    0  501 -0.00000000000E+00  0.00000000000E+00  0.37195064522E+02  0.37195064522E+02  0.00000000000E+00 0.  1.
          4   -1    0    0  501    0  0.00000000000E+00 -0.00000000000E+00 -0.79087501444E+03  0.79087501444E+03  0.00000000000E+00 0. -1.
         25    2    1    2    0    0  0.23907732916E+02  0.98552868099E+02 -0.61757359568E+03  0.63822306534E+03  0.12508911843E+03 0.  0.
          5    1    3    3  502    0  0.72075196064E+02  0.58696493447E+02 -0.44507166428E+03  0.45469371117E+03  0.41800000000E+01 0.  1.
         -5    1    3    3    0  502 -0.48167463148E+02  0.39856374652E+02 -0.17250193140E+03  0.18352935417E+03  0.41800000000E+01 0.  1.
        -11    1    1    2    0    0  0.16648704017E+02 -0.48180055248E+02 -0.15984205794E+02  0.53422765784E+02  0.00000000000E+00 0. -1.
         11    1    1    2    0    0 -0.40556436933E+02 -0.50372812851E+02 -0.12012214845E+03  0.13642424784E+03  0.00000000000E+00 0.  1.
</event>
<event>
 7    1  0.2820496E-009  0.1182955E+03  0.7561462E-02  0.1245936E+00
         -1   -1    0    0    0  501 -0.00000000000E+00  0.00000000000E+00  0.36993034744E+03  0.36993034744E+03  0.00000000000E+00 0.  1.
          1   -1    0    0  501    0  0.00000000000E+00 -0.00000000000E+00 -0.46742304856E+02  0.46742304856E+02  0.00000000000E+00 0. -1.
         25    2    1    2    0    0  0.45031334063E+02  0.52944133176E+02  0.21794005249E+03  0.26072138675E+03  0.12508746038E+03 0.  0.
          5    1    3    3  502    0  0.88027337506E+02  0.44603965470E+02  0.15879119390E+03  0.18700385435E+03  0.41800000000E+01 0. -1.
         -5    1    3    3    0  502 -0.42996003443E+02  0.83401677057E+01  0.59148858590E+02  0.73717532392E+02  0.41800000000E+01 0. -1.
        -11    1    1    2    0    0 -0.12881057983E+01 -0.49961663589E+02  0.98214216413E+01  0.50934147369E+02  0.00000000000E+00 0. -1.
         11    1    1    2    0    0 -0.43743228265E+02 -0.29824695873E+01  0.95426568453E+02  0.10501711818E+03  0.00000000000E+00 0.  1.
</event>
<event>
 7    1  0.2820496E-009  0.1368743E+03  0.7561462E-02  0.1217598E+00
          2   -1    0    0  501    0  0.00000000000E+00  0.00000000000E+00  0.59877084655E+03  0.59877084655E+03  0.00000000000E+00 0. -1.
         -2   -1    0    0    0  501 -0.00000000000E+00 -0.00000000000E+00 -0.35170093770E+02  0.35170093770E+02  0.00000000000E+00 0.  1.
         25    2    1    2    0    0 -0.73290519549E+02  0.59912950631E+02  0.26356545206E+03  0.30673630621E+03  0.12513733304E+03 0.  0.
          5    1    3    3  502    0 -0.78241593950E+02  0.93481024733E+02  0.21754373672E+03  0.24940569118E+03  0.41800000000E+01 0. -1.
         -5    1    3    3    0  502  0.49510744004E+01 -0.33568074102E+02  0.46021715345E+02  0.57330615031E+02  0.41800000000E+01 0. -1.
        -11    1    1    2    0    0  0.48615481177E+02 -0.74472173508E+02  0.14938848192E+03  0.17385766640E+03  0.00000000000E+00 0.  1.
         11    1    1    2    0    0  0.24675038372E+02  0.14559222877E+02  0.15064681881E+03  0.15334696771E+03  0.00000000000E+00 0. -1.
</event>
<event>
 7    1  0.2820496E-009  0.9775321E+02  0.7561462E-02  0.1285093E+00
         -1   -1    0    0    0  501 -0.00000000000E+00  0.00000000000E+00  0.65242375798E+02  0.65242375798E+02  0.00000000000E+00 0.  1.
          1   -1    0    0  501    0  0.00000000000E+00 -0.00000000000E+00 -0.28598486057E+03  0.28598486057E+03  0.00000000000E+00 0. -1.
         25    2    1    2    0    0 -0.80366666799E+02 -0.18333583190E+02 -0.12223699914E+03  0.19337537745E+03  0.12512885855E+03 0.  0.
          5    1    3    3  502    0 -0.52096373420E+02 -0.39503234481E+01  0.13332469535E+02  0.54082014781E+02  0.41800000000E+01 0. -1.
         -5    1    3    3    0  502 -0.28270293378E+02 -0.14383259742E+02 -0.13556946867E+03  0.13929336267E+03  0.41800000000E+01 0. -1.
        -11    1    1    2    0    0 -0.72355787390E+01  0.22263799365E+02  0.31268947522E+01  0.23617955725E+02  0.00000000000E+00 0.  1.
         11    1    1    2    0    0  0.87602245538E+02 -0.39302161752E+01 -0.10163238039E+03  0.13423390319E+03  0.00000000000E+00 0. -1.
</event>
<event>
 7    1  0.2820496E-009  0.1227996E+03  0.7561462E-02  0.1238549E+00
          2   -1    0    0  501    0  0.00000000000E+00  0.00000000000E+00  0.24332157557E+03  0.24332157557E+03  0.00000000000E+00 0. -1.
         -2   -1    0    0    0  501 -0.00000000000E+00 -0.00000000000E+00 -0.74416336383E+02  0.74416336383E+02  0.00000000000E+00 0.  1.
         25    2    1    2    0    0 -0.48613886754E+02  0.50621602329E+02  0.63967690038E+02  0.15705047717E+03  0.12508849028E+03 0.  0.
          5    1    3    3  502    0  0.40457172978E+02  0.61427642234E+01  0.54539762703E+01  0.41493790558E+02  0.41800000000E+01 0.  1.
         -5    1    3    3    0  502 -0.89071059732E+02  0.44478838105E+02  0.58513713768E+02  0.11555668661E+03  0.41800000000E+01 0.  1.
        -11    1    1    2    0    0  0.55675888054E+02 -0.66922246832E+02  0.44649254988E+02  0.97836330689E+02  0.00000000000E+00 0.  1.
         11    1    1    2    0    0 -0.70620012997E+01  0.16300644504E+02  0.60288294158E+02  0.62851104096E+02  0.00000000000E+00 0. -1.
</event>
<event>
 7    1  0.2820496E-009  0.1000593E+03  0.7561462E-02  0.1280171E+00
          1   -1    0    0  501    0  0.00000000000E+00  0.00000000000E+00  0.71149625158E+03  0.71149625158E+03  0.00000000000E+00 0. -1.
         -1   -1    0    0    0  501 -0.00000000000E+00 -0.00000000000E+00 -0.25061086319E+02  0.25061086319E+02  0.00000000000E+00 0.  1.
         25    2    1    2    0    0  0.11052724150E+02  0.74859237286E+02  0.43256921818E+03  0.45660303287E+03  0.12507650856E+03 0.  0.
          5    1    3    3  502    0 -0.83000185694E+01  0.25171776797E+01  0.32679022120E+03  0.32693202285E+03  0.41800000000E+01 0.  1.
         -5    1    3    3    0  502  0.19352742719E+02  0.72342059606E+02  0.10577899697E+03  0.12967101002E+03  0.41800000000E+01 0.  1.
        -11    1    1    2    0    0  0.38256047046E+02 -0.38036370586E+02  0.14766735461E+03  0.15721303458E+03  0.00000000000E+00 0. -1.
         11    1    1    2    0    0 -0.49308771196E+02 -0.36822866700E+02  0.10619859247E+03  0.12274127045E+03  0.00000000000E+00 0.  1.
</event>
<event>
 7    1  0.2820496E-009  0.1190978E+03  0.7561462E-02  0.1244593E+00
          1   -1    0    0  501    0  0.00000000000E+00  0.00000000000E+00  0.24379841714E+03  0.24379841714E+03  0.00000000000E+00 0. -1.
         -1   -1    0    0    0  501 -0.00000000000E+00 -0.00000000000E+00 -0.68261242498E+02  0.68261242498E+02  0.00000000000E+00 0.  1.
         25    2    1    2    0    0 -0.61981933807E+02 -0.24845820546E+02  0.11694937366E+03  0.18380401761E+03  0.12509071098E+03 0.  0.
          5    1    3    3  502    0  0.27838649333E+02  0.25512765567E+02  0.23410410308E+02  0.44625231813E+02  0.41800000000E+01 0. -1.
         -5    1    3    3    0  502 -0.89820583140E+02 -0.50358586112E+02  0.93538963357E+02  0.13917878580E+03  0.41800000000E+01 0. -1.
        -11    1    1    2    0    0  0.55255444117E+01  0.38635504344E+02  0.58276985982E+02  0.70138726336E+02  0.00000000000E+00 0. -1.
         11    1    1    2    0    0  0.56456389395E+02 -0.13789683798E+02  0.31081499003E+00  0.58116915685E+02  0.00000000000E+00 0.  1.
</event>
<event>
 6    1  0.2820496E-009  0.1061656E+03  0.7561462E-02  0.1267840E+00
          2   -1    0    0  501    0  0.00000000000E+00  0.00000000000E+00  0.11503574027E+04  0.11503574027E+04  0.00000000000E+00 0. -1.
         -2   -1    0    0    0  501 -0.00000000000E+00 -0.00000000000E+00 -0.56018788758E+02  0.56018788758E+02  0.00000000000E+00 0.  1.
          5    1    1    2  502    0 -0.60216955648E+02  0.30990810072E+02  0.77873118583E+03  0.78168167705E+03  0.41800000000E+01 0.  1.
         -5    1    1    2    0  502  0.54145250037E+02  0.22332572315E+01  0.32225735997E+03  0.32680877283E+03  0.41800000000E+01 0.  1.
        -11    1    1    2    0    0 -0.26396501949E+02  0.16214993452E+02 -0.20488180887E+02  0.37141175046E+02  0.00000000000E+00 0.  1.
         11    1    1    2    0    0  0.32468207560E+02 -0.49439060756E+02  0.13838249063E+02  0.60744566569E+02  0.00000000000E+00 0. -1.
</event>
<event>
 7    1  0.2820496E-009  0.9342178E+02  0.7561462E-02  0.1294771E+00
          3   -1    0    0  501    0  0.00000000000E+00  0.00000000000E+00  0.34775331082E+03  0.34775331082E+03  0.00000000000E+00 0. -1.
         -3   -1    0    0    0  501 -0.00000000000E+00 -0.00000000000E+00 -0.35186248115E+02  0.35186248115E+02  0.00000000000E+00 0.  1.
         25    2    1    2    0    0  0.25602413193E+02 -0.77203089271E+01  0.15300384660E+03  0.19943121753E+03  0.12509015438E+03 0.  0.
          5    1    3    3  502    0  0.75094002283E+02  0.80081357556E+01  0.85325500666E+02  0.11402259812E+03  0.41800000000E+01 0. -1.
         -5    1    3    3    0  502 -0.49491589091E+02 -0.15728444683E+02  0.67678345933E+02  0.85408619419E+02  0.41800000000E+01 0. -1.
        -11    1    1    2    0    0  0.15723661987E+02 -0.38620452256E+01 -0.20253993403E+01  0.16317205095E+02  0.00000000000E+00 0.  1.
         11    1    1    2    0    0 -0.41326075180E+02  0.11582354153E+02  0.16158861544E+03  0.16719113630E+03  0.00000000000E+00 0. -1.
</event>
<event>
 7    1  0.2820496E-009  0.2366661E+03  0.7561462E-02  0.1122034E+00
         -2   -1    0    0    0  501 -0.00000000000E+00  0.00000000000E+00  0.20286348985E+03  0.20286348985E+03  0.00000000000E+00 0. -1.
          2   -1    0    0  501    0  0.00000000000E+00 -0.00000000000E+00 -0.42499585653E+03  0.42499585653E+03  0.00000000000E+00 0.  1.
         25    2    1    2    0    0  0.21902764549E+03 -0.65034919305E+02  0.44235589369E+02  0.26421034857E+03  0.12509064995E+03 0.  0.
          5    1    3    3  502    0  0.13018533721E+03 -0.50643259923E+02 -0.35177230737E+02  0.14411062335E+03  0.41800000000E+01 0.  1.
         -5    1    3    3    0  502  0.88842308287E+02 -0.14391659382E+02  0.79412820106E+02  0.12009972522E+03  0.41800000000E+01 0.  1.
        -11    1    1    2    0    0 -0.10681861086E+03 -0.11830577979E+02 -0.15074695131E+03  0.18513460382E+03  0.00000000000E+00 0. -1.
         11    1    1    2    0    0 -0.11220903464E+03  0.76865497283E+02 -0.11562100473E+03  0.17851439399E+03  0.00000000000E+00 0.  1.
</event>
<event>
 7    1  0.2820496E-009  0.1681772E+03  0.7561462E-02  0.1179762E+00
          1   -1    0    0  501    0  0.00000000000E+00  0.00000000000E+00  0.68402762960E+02  0.68402762960E+02  0.00000000000E+00 0. -1.
         -1   -1    0    0    0  501 -0.00000000000E+00 -0.00000000000E+00 -0.63387279058E+03  0.63387279058E+03  0.00000000000E+00 0.  1.
         25    2    1    2    0    0  0.49945947788E+02  0.13497623953E+03 -0.47036871893E+03  0.50755038907E+03  0.12508989871E+03 0.  0.
          5    1    3    3  502    0  0.12346387358E+02 -0.23276936237E+02 -0.89228940968E+02  0.93131763366E+02  0.41800000000E+01 0.  1.
         -5    1    3    3    0  502  0.37599560430E+02  0.15825317577E+03 -0.38113977796E+03  0.41441862571E+03  0.41800000000E+01 0.  1.
        -11    1    1    2    0    0 -0.17112678443E+02 -0.15604238046E+02 -0.62568600513E+02  0.66717057629E+02  0.00000000000E+00 0.  1.
         11    1    1    2    0    0 -0.32833269344E+02 -0.11937200149E+03 -0.32532708174E+02  0.12800810684E+03  0.00000000000E+00 0. -1.
</event>
<event>
 7    1  0.2820496E-009  0.1847419E+03  0.7561462E-02  0.1163291E+00
         -1   -1    0    0    0  501 -0.00000000000E+00  0.00000000000E+00  0.49546134897E+02  0.49546134897E+02  0.00000000000E+00 0.  1.
          1   -1    0    0  501    0  0.00000000000E+00 -0.00000000000E+00 -0.86593552037E+03  0.86593552037E+03  0.00000000000E+00 0. -1.
         25    2    1    2    0    0 -0.12983888478E+03 -0.11390349583E+03 -0.35356286901E+03  0.41289962255E+03  0.12508898269E+03 0.  0.
          5    1    3    3  502    0 -0.39224471783E+02 -0.43350490787E+01 -0.19869620689E+03  0.20262035157E+03  0.41800000000E+01 0.  1.
         -5    1    3    3    0  502 -0.90614412998E+02 -0.10956844675E+03 -0.15486666212E+03  0.21027927098E+03  0.41800000000E+01 0.  1.
        -11    1    1    2    0    0  0.12181209611E+03  0.65141350827E+02 -0.26700995270E+03  0.30062584251E+03  0.00000000000E+00 0.  1.
         11    1    1    2    0    0  0.80267886741E+01  0.48762144999E+02 -0.19581656376E+03  0.20195619021E+03  0.00000000000E+00 0. -1.
</event>
<event>
 7    1  0.2820496E-009  0.3302716E+03  0.7561462E-02  0.1071017E+00
         -2   -1    0    0    0  501 -0.00000000000E+00  0.00000000000E+00  0.90755844593E+02  0.90755844593E+02  0.00000000000E+00 0.  1.
          2   -1    0    0  501    0  0.00000000000E+00 -0.00000000000E+00 -0.13226130303E+04  0.13226130303E+04  0.00000000000E+00 0. -1.
         25    2    1    2    0    0 -0.14918852429E+03  0.28821719150E+03 -0.74474388575E+03  0.82195975837E+03  0.12509206114E+03 0.  0.
          5    1    3    3  502    0 -0.51007256670E+02  0.13845819201E+03 -0.48099708333E+03  0.50313822925E+03  0.41800000000E+01 0.  1.
         -5    1    3    3    0  502 -0.98181267619E+02  0.14975899948E+03 -0.26374680242E+03  0.31882152911E+03  0.41800000000E+01 0.  1.
        -11    1    1    2    0    0  0.13204314120E+03 -0.17462214709E+03 -0.34602322238E+03  0.40946349754E+03  0.00000000000E+00 0.  1.
         11    1    1    2    0    0  0.17145383089E+02 -0.11359504441E+03 -0.14109007756E+03  0.18194561897E+03  0.00000000000E+00 0. -1.
</event>
<event>
 7    1  0.2820496E-009  0.1234836E+03  0.7561462E-02  0.1237458E+00
         -2   -1    0    0    0  501 -0.00000000000E+00  0.00000000000E+00  0.18743192585E+02  0.18743192585E+02  0.00000000000E+00 0.  1.
          2   -1    0    0  501    0  0.00000000000E+00 -0.00000000000E+00 -0.11232550263E+04  0.11232550263E+04  0.00000000000E+00 0. -1.
         25    2    1    2    0    0 -0.61221591931E+02 -0.52902273884E+02 -0.68411064088E+03  0.70014546407E+03  0.12509823335E+03 0.  0.
          5    1    3    3  502    0 -0.17476821554E+02  0.37246506479E+02 -0.11373619146E+03  0.12102121791E+03  0.41800000000E+01 0. -1.
         -5    1    3    3    0  502 -0.43744770377E+02 -0.90148780363E+02 -0.57037444942E+03  0.57912424616E+03  0.41800000000E+01 0. -1.
        -11    1    1    2    0    0  0.20506952105E+02  0.60522181510E+02 -0.37495820319E+03  0.38036446164E+03  0.00000000000E+00 0. -1.
         11    1    1    2    0    0  0.40714639826E+02 -0.76199076266E+01 -0.45442989598E+02  0.61488293130E+02  0.00000000000E+00 0.  1.
</event>
<event>
 7    1  0.2820496E-009  0.1141908E+03  0.7561462E-02  0.1253000E+00
         -2   -1    0    0    0  501 -0.00000000000E+00  0.00000000000E+00  0.10216058844E+03  0.10216058844E+03  0.00000000000E+00 0.  1.
          2   -1    0    0  501    0  0.00000000000E+00 -0.00000000000E+00 -0.15170030933E+03  0.15170030933E+03  0.00000000000E+00 0. -1.
         25    2    1    2    0    0 -0.58926207979E+02  0.12948308661E+02 -0.23577070364E+02  0.14085948263E+03  0.12508220863E+03 0.  0.
          5    1    3    3  502    0 -0.57488518919E+01 -0.52606744806E+02  0.12123617795E+00  0.53084894229E+02  0.41800000000E+01 0. -1.
         -5    1    3    3    0  502 -0.53177356087E+02  0.65555053467E+02 -0.23698306542E+02  0.87774588398E+02  0.41800000000E+01 0. -1.
        -11    1    1    2    0    0  0.53684118112E+02 -0.37623977292E+02  0.12760584266E+02  0.66786081750E+02  0.00000000000E+00 0.  1.
         11    1    1    2    0    0  0.52420898672E+01  0.24675668631E+02 -0.38723234783E+02  0.46215333393E+02  0.00000000000E+00 0. -1.
</event>
<event>
 7    1  0.2820496E-009  0.1221499E+03  0.7561462E-02  0.1239592E+00
         -1   -1    0    0    0  501 -0.00000000000E+00  0.00000000000E+00  0.20988529842E+02  0.20988529842E+02  0.00000000000E+00 0.  1.
          1   -1    0    0  501    0  0.00000000000E+00 -0.00000000000E+00 -0.86010700364E+03  0.86010700364E+03  0.00000000000E+00 0. -1.
         25    2    1    2    0    0 -0.61266686969E+02 -0.30209986193E+02 -0.34825464608E+03  0.37629181417E+03  0.12509188901E+03 0.  0.
          5    1    3    3  502    0  0.16457989117E+02 -0.44252567791E+02 -0.55230245220E+02  0.72780543753E+02  0.41800000000E+01 0.  1.
         -5    1    3    3    0  502 -0.77724676086E+02  0.14042581598E+02 -0.29302440086E+03  0.30351127041E+03  0.41800000000E+01 0.  1.
        -11    1    1    2    0    0  0.44399227652E+02  0.65247735000E+02 -0.32696982458E+03  0.33635966543E+03  0.00000000000E+00 0. -1.
         11    1    1    2    0    0  0.16867459317E+02 -0.35037748807E+02 -0.16389400314E+03  0.16844405389E+03  0.00000000000E+00 0.  1.
</event>
<event>
 7    1  0.2820496E-009  0.1676757E+03  0.7561462E-02  0.1180294E+00
         -2   -1    0    0    0  501 -0.00000000000E+00  0.00000000000E+00  0.55661065571E+02  0.55661065571E+02  0.00000000000E+00 0.  1.
          2   -1    0    0  501    0  0.00000000000E+00 -0.00000000000E+00 -0.51389841873E+03  0.51389841873E+03  0.00000000000E+00 0. -1.
         25    2    1    2    0    0  0.56313505519E+02  0.11599035847E+03 -0.22761393647E+03  0.28996657793E+03  0.12509011983E+03 0.  0.
          5    1    3    3  502    0 -0.22605798471E+02 -0.13154631602E+02 -0.20925617691E+02  0.33755300811E+02  0.41800000000E+01 0. -1.
         -5    1    3    3    0  502  0.78919303990E+02  0.12914499008E+03 -0.20668831878E+03  0.25621127712E+03  0.41800000000E+01 0. -1.
        -11    1    1    2    0    0 -0.20018600824E+02 -0.11934093918E+03 -0.18711927510E+03  0.22283767020E+03  0.00000000000E+00 0.  1.
         11    1    1    2    0    0 -0.36294904695E+02  0.33505807083E+01 -0.43504141588E+02  0.56755236174E+02  0.00000000000E+00 0. -1.
</event>
<event>
 7    1  0.2820496E-009  0.1072196E+03  0.7561462E-02  0.1265807E+00
          1   -1    0    0  501    0  0.00000000000E+00  0.00000000000E+00  0.12304439256E+03  0.12304439256E+03  0.00000000000E+00 0. -1.
         -1   -1    0    0    0  501 -0.00000000000E+00 -0.00000000000E+00 -0.12271061828E+03  0.12271061828E+03  0.00000000000E+00 0.  1.
         25    2    1    2    0    0  0.40174770150E+02  0.21895017749E+02  0.27154432992E+02  0.13593443165E+03  0.12508957798E+03 0.  0.
          5    1    3    3  502    0  0.71484546970E+02 -0.25120783263E+02  0.22255645782E+02  0.79081479351E+02  0.41800000000E+01 0.  1.
         -5    1    3    3    0  502 -0.31309776820E+02  0.47015801012E+02  0.48987872100E+01  0.56852952302E+02  0.41800000000E+01 0.  1.
        -11    1    1    2    0    0  0.57702578052E+01 -0.33930085293E+02 -0.46968447936E+02  0.58228701382E+02  0.00000000000E+00 0.  1.
         11    1    1    2    0    0 -0.45945027955E+02  0.12035067544E+02  0.20147789231E+02  0.51591877806E+02  0.00000000000E+00 0. -1.
</event>
<event>
 7    1  0.2820496E-009  0.9944625E+02  0.7561462E-02  0.1281465E+00
          1   -1    0    0  501    0  0.00000000000E+00  0.00000000000E+00  0.24968520612E+02  0.24968520612E+02  0.00000000000E+00 0. -1.
         -1   -1    0    0    0  501 -0.00000000000E+00 -0.00000000000E+00 -0.89568905392E+03  0.89568905392E+03  0.00000000000E+00 0.  1.
         25    2    1    2    0    0  0.29300415475E+02 -0.81291826916E+02 -0.63541789834E+03  0.65335326090E+03  0.12509077716E+03 0.  0.
          5    1    3    3  502    0  0.35712819410E+01 -0.23037924686E+02 -0.11769531757E+02  0.26447954672E+02  0.41800000000E+01 0.  1.
         -5    1    3    3    0  502  0.25729133534E+02 -0.58253902230E+02 -0.62364836658E+03  0.62690530623E+03  0.41800000000E+01 0.  1.
        -11    1    1    2    0    0 -0.49780542138E+02  0.74898929130E+02 -0.11965775956E+03  0.14968610952E+03  0.00000000000E+00 0. -1.
         11    1    1    2    0    0  0.20480126663E+02  0.63928977860E+01 -0.11564487541E+03  0.11761820411E+03  0.00000000000E+00 0.  1.
</event>
<event>
 7    1  0.2820496E-009  0.1042076E+03  0.7561462E-02  0.1271689E+00
         -2   -1    0    0    0  501 -0.00000000000E+00  0.00000000000E+00  0.59232112789E+02  0.59232112789E+02  0.00000000000E+00 0.  1.
          2   -1    0    0  501    0  0.00000000000E+00 -0.00000000000E+00 -0.22278557571E+03  0.22278557571E+03  0.00000000000E+00 0. -1.
         25    2    1    2    0    0  0.97144740159E+01  0.31610931727E+02 -0.10501167005E+03  0.16667017989E+03  0.12513143492E+03 0.  0.
          5    1    3    3  502    0 -0.47039946101E+02  0.45434258400E+02 -0.78855828551E+02  0.10253166565E+03  0.41800000000E+01 0.  1.
         -5    1    3    3    0  502  0.56754420117E+02 -0.13823326673E+02 -0.26155841503E+02  0.64138514231E+02  0.41800000000E+01 0.  1.
        -11    1    1    2    0    0 -0.18947533626E+02  0.22506610240E+02  0.66056016325E+01  0.30152786073E+02  0.00000000000E+00 0.  1.
         11    1    1    2    0    0  0.92330596105E+01 -0.54117541967E+02 -0.65147394498E+02  0.85194722537E+02  0.00000000000E+00 0. -1.
</event>
<event>
 7    1  0.2820496E-009  0.1011500E+03  0.7561462E-02  0.1277896E+00
         -1   -1    0    0    0  501 -0.00000000000E+00  0.00000000000E+00  0.78159337277E+02  0.78159337277E+02  0.00000000000E+00 0. -1.
          1   -1    0    0  501    0  0.00000000000E+00 -0.00000000000E+00 -0.20202201799E+03  0.20202201799E+03  0.00000000000E+00 0.  1.
         25    2    1    2    0    0  0.14967506943E+02  0.34674394891E+02 -0.23868672572E+02  0.13282941681E+03  0.12509036939E+03 0.  0.
          5    1    3    3  502    0  0.49895278246E+02  0.65825698194E+02 -0.22963070650E+02  0.85833189080E+02  0.41800000000E+01 0.  1.
         -5    1    3    3    0  502 -0.34927771303E+02 -0.31151303304E+02 -0.90560192196E+00  0.46996227727E+02  0.41800000000E+01 0.  1.
        -11    1    1    2    0    0 -0.39358977367E+02 -0.22699442343E+02 -0.18038770817E+01  0.45471394905E+02  0.00000000000E+00 0. -1.
         11    1    1    2    0    0  0.24391470423E+02 -0.11974952548E+02 -0.98190131059E+02  0.10188054356E+03  0.00000000000E+00 0.  1.
</event>
<event>
 7    1  0.2820496E-009  0.1045175E+03  0.7561462E-02  0.1271073E+00
          1   -1    0    0  501    0  0.00000000000E+00  0.00000000000E+00  0.78881392537E+03  0.78881392537E+03  0.00000000000E+00 0. -1.
         -1   -1    0    0    0  501 -0.00000000000E+00 -0.00000000000E+00 -0.16551840684E+02  0.16551840684E+02  0.00000000000E+00 0.  1.
         25    2    1    2    0    0  0.14166715353E+02  0.34121286912E+02  0.46220423527E+03  0.48025612296E+03  0.12509288743E+03 0.  0.
          5    1    3    3  502    0 -0.24106410420E+02  0.64974831506E+02  0.36160047539E+03  0.36820541000E+03  0.41800000000E+01 0.  1.
         -5    1    3    3    0  502  0.38273125773E+02 -0.30853544594E+02  0.10060375989E+03  0.11205071296E+03  0.41800000000E+01 0.  1.
        -11    1    1    2    0    0  0.17879411945E+02 -0.51004096977E+02  0.24254631590E+03  0.24849508373E+03  0.00000000000E+00 0. -1.
         11    1    1    2    0    0 -0.32046127298E+02  0.16882810065E+02  0.67511533502E+02  0.76614559363E+02  0.00000000000E+00 0.  1.
</event>
<event>
 7    1  0.2820496E-009  0.1313851E+03  0.7561462E-02  0.1225415E+00
         -2   -1    0    0    0  501 -0.00000000000E+00  0.00000000000E+00  0.19312790111E+02  0.19312790111E+02  0.00000000000E+00 0.  1.
          2   -1    0    0  501    0  0.00000000000E+00 -0.00000000000E+00 -0.10679047189E+04  0.10679047189E+04  0.00000000000E+00 0. -1.
         25    2    1    2    0    0 -0.91681757448E+02 -0.33620435242E+01 -0.64287131174E+03  0.66132283593E+03  0.12509005511E+03 0.  0.
          5    1    3    3  502    0  0.83193038117E+01 -0.32119204996E+02 -0.32749671240E+03  0.32919967068E+03  0.41800000000E+01 0. -1.
         -5    1    3    3    0  502 -0.10000106126E+03  0.28757161471E+02 -0.31537459934E+03  0.33212316525E+03  0.41800000000E+01 0. -1.
        -11    1    1    2    0    0  0.30283496762E+02  0.42643258673E+02 -0.22563552284E+03  0.23161806245E+03  0.00000000000E+00 0. -1.
         11    1    1    2    0    0  0.61398260686E+02 -0.39281215149E+02 -0.18008509422E+03  0.19427661063E+03  0.00000000000E+00 0.  1.
</event>
<event>
 7    1  0.2820496E-009  0.1139767E+03  0.7561462E-02  0.1253378E+00
         -1   -1    0    0    0  501 -0.00000000000E+00  0.00000000000E+00  0.26938894238E+03  0.26938894238E+03  0.00000000000E+00 0.  1.
          1   -1    0    0  501    0  0.00000000000E+00 -0.00000000000E+00 -0.67474281470E+02  0.67474281470E+02  0.00000000000E+00 0. -1.
         25    2    1    2    0    0  0.18033507283E+02  0.76615174678E+02  0.10344176619E+03  0.18040704618E+03  0.12510559917E+03 0.  0.
          5    1    3    3  502    0 -0.59198764306E+01 -0.30040122516E+02  0.49708018618E+02  0.58530448594E+02  0.41800000000E+01 0.  1.
         -5    1    3    3    0  502  0.23953383714E+02  0.10665529719E+03  0.53733747574E+02  0.12187659759E+03  0.41800000000E+01 0.  1.
        -11    1    1    2    0    0  0.64984318975E+01 -0.53694153454E+02  0.10865528743E+03  0.12137241540E+03  0.00000000000E+00 0.  1.
         11    1    1    2    0    0 -0.24531939181E+02 -0.22921021224E+02 -0.10182392714E+02  0.35083762274E+02  0.00000000000E+00 0. -1.
</event>
<event>
 7    1  0.2820496E-009  0.1084917E+03  0.7561462E-02  0.1263389E+00
          2   -1    0    0  501    0  0.00000000000E+00  0.00000000000E+00  0.65844084133E+02  0.65844084133E+02  0.00000000000E+00 0. -1.
         -2   -1    0    0    0  501 -0.00000000000E+00 -0.00000000000E+00 -0.27842402033E+03  0.27842402033E+03  0.00000000000E+00 0.  1.
         25    2    1    2    0    0 -0.50602819732E+02 -0.31222567621E+02 -0.47381971156E+02  0.14638623157E+03  0.12509349907E+03 0.  0.
          5    1    3    3  502    0  0.25237952775E+02  0.30799720938E+02 -0.87087009287E+01  0.40974271708E+02  0.41800000000E+01 0.  1.
         -5    1    3    3    0  502 -0.75840772507E+02 -0.62022288559E+02 -0.38673270227E+02  0.10541195987E+03  0.41800000000E+01 0.  1.
        -11    1    1    2    0    0 -0.31190642374E+01  0.24552097279E+02 -0.13217053178E+03  0.13446777872E+03  0.00000000000E+00 0.  1.
         11    1    1    2    0    0  0.53721883970E+02  0.66704703413E+01 -0.33027433262E+02  0.63414094172E+02  0.00000000000E+00 0. -1.
</event>
<event>
 7    1  0.3013732E-009  0.6930453E+02  0.7561462E-02  0.1362474E+00
         -1   -1    0    0    0  501 -0.00000000000E+00  0.00000000000E+00  0.86380278930E+02  0.86380278930E+02  0.00000000000E+00 0.  1.
          1   -1    0    0  501    0  0.00000000000E+00 -0.00000000000E+00 -0.18883562998E+03  0.18883562998E+03  0.00000000000E+00 0. -1.
         25    2    1    2    0    0 -0.19610065863E+02 -0.18448297362E+02 -0.12351273256E+03  0.17782591643E+03  0.12506705039E+03 0.  0.
          5    1    3    3  502    0  0.17360232900E+02 -0.48727243193E+02 -0.76902493621E+01  0.52462693896E+02  0.41800000000E+01 0. -1.
         -5    1    3    3    0  502 -0.36970298763E+02  0.30278945831E+02 -0.11582248320E+03  0.12536322254E+03  0.41800000000E+01 0. -1.
        -11    1    1    2    0    0  0.16610821329E+02 -0.31763147899E+01 -0.34103207754E+02  0.38066220459E+02  0.00000000000E+00 0. -1.
         11    1    1    2    0    0  0.29992445337E+01  0.21624612152E+02  0.55160589263E+02  0.59323772017E+02  0.00000000000E+00 0.  1.
</event>
<event>
 7    1  0.2820496E-009  0.1056106E+03  0.7561462E-02  0.1268921E+00
         -2   -1    0    0    0  501 -0.00000000000E+00  0.00000000000E+00  0.15016516917E+03  0.15016516917E+03  0.00000000000E+00 0.  1.
          2   -1    0    0  501    0  0.00000000000E+00 -0.00000000000E+00 -0.17778534411E+03  0.17778534411E+03  0.00000000000E+00 0. -1.
         25    2    1    2    0    0  0.70438662785E+02 -0.37307363195E+02  0.77426788439E+02  0.16731645810E+03  0.12508575066E+03 0.  0.
          5    1    3    3  502    0 -0.38542829117E+01  0.51123689867E+01 -0.29407989557E+02  0.30385754281E+02  0.41800000000E+01 0. -1.
         -5    1    3    3    0  502  0.74292945697E+02 -0.42419732182E+02  0.10683477800E+03  0.13693070382E+03  0.41800000000E+01 0. -1.
        -11    1    1    2    0    0 -0.21584300776E+02 -0.28632421728E+02 -0.15189750401E+02  0.38941316507E+02  0.00000000000E+00 0.  1.
         11    1    1    2    0    0 -0.48854362009E+02  0.65939784923E+02 -0.89857212976E+02  0.12169273868E+03  0.00000000000E+00 0. -1.
</event>
<event>
 7    1  0.2820496E-009  0.1001555E+03  0.7561462E-02  0.1279969E+00
          1   -1    0    0  501    0  0.00000000000E+00  0.00000000000E+00  0.11698244195E+03  0.11698244195E+03  0.00000000000E+00 0. -1.
         -1   -1    0    0    0  501 -0.00000000000E+00 -0.00000000000E+00 -0.11454309533E+03  0.11454309533E+03  0.00000000000E+00 0.  1.
         25    2    1    2    0    0 -0.28282763038E+02  0.24225748220E+02 -0.14926775358E+02  0.13136565047E+03  0.12508926388E+03 0.  0.
          5    1    3    3  502    0  0.41537475403E+02  0.20285740959E+02  0.22892189392E+02  0.51753240327E+02  0.41800000000E+01 0. -1.
         -5    1    3    3    0  502 -0.69820238442E+02  0.39400072616E+01 -0.37818964750E+02  0.79612410138E+02  0.41800000000E+01 0. -1.
        -11    1    1    2    0    0  0.18317185111E+02  0.26461304848E+02 -0.18641120472E+02  0.37191548733E+02  0.00000000000E+00 0.  1.
         11    1    1    2    0    0  0.99655779270E+01 -0.50687053069E+02  0.36007242443E+02  0.62968338080E+02  0.00000000000E+00 0. -1.
</event>
<event>
 7    1  0.2820496E-009  0.9984649E+02  0.7561462E-02  0.1280619E+00
         -2   -1    0    0    0  501 -0.00000000000E+00  0.00000000000E+00  0.42585383043E+02  0.42585383043E+02  0.00000000000E+00 0. -1.
          2   -1    0    0  501    0  0.00000000000E+00 -0.00000000000E+00 -0.89448044950E+03  0.89448044950E+03  0.00000000000E+00 0.  1.
         25    2    1    2    0    0 -0.15887649681E+02  0.59167899170E+02 -0.80862202493E+03  0.82052935596E+03  0.12508232121E+03 0.  0.
          5    1    3    3  502    0 -0.42358970625E+02  0.68839095753E+02 -0.28878734863E+03  0.29991450219E+03  0.41800000000E+01 0. -1.
         -5    1    3    3    0  502  0.26471320944E+02 -0.96711965826E+01 -0.51983467631E+03  0.52061485377E+03  0.41800000000E+01 0. -1.
        -11    1    1    2    0    0  0.40949933817E+02 -0.25304587894E+02 -0.54720126707E+02  0.72880117418E+02  0.00000000000E+00 0.  1.
         11    1    1    2    0    0 -0.25062284135E+02 -0.33863311276E+02  0.11447085181E+02  0.43656359168E+02  0.00000000000E+00 0. -1.
</event>
<event>
 7    1  0.2820496E-009  0.8523655E+02  0.7561462E-02  0.1314815E+00
         -1   -1    0    0    0  501 -0.00000000000E+00  0.00000000000E+00  0.46447756468E+02  0.46447756468E+02  0.00000000000E+00 0.  1.
          1   -1    0    0  501    0  0.00000000000E+00 -0.00000000000E+00 -0.33334929528E+03  0.33334929528E+03  0.00000000000E+00 0. -1.
         25    2    1    2    0    0 -0.81566154175E+01 -0.59625081296E+02 -0.89775887452E+02  0.16531395135E+03  0.12508921556E+03 0.  0.
          5    1    3    3  502    0 -0.45230850854E+02 -0.23634136586E+02  0.10647810112E+02  0.52299622764E+02  0.41800000000E+01 0.  1.
         -5    1    3    3    0  502  0.37074235436E+02 -0.35990944710E+02 -0.10042369756E+03  0.11301432859E+03  0.41800000000E+01 0.  1.
        -11    1    1    2    0    0 -0.30622044752E+01  0.55333015309E+02 -0.19442861789E+03  0.20217222147E+03  0.00000000000E+00 0. -1.
         11    1    1    2    0    0  0.11218819893E+02  0.42920659867E+01 -0.26970334626E+01  0.12310878917E+02  0.00000000000E+00 0.  1.
</event>
<event>
 7    1  0.2820496E-009  0.1219507E+03  0.7561462E-02  0.1239913E+00
         -1   -1    0    0    0  501 -0.00000000000E+00  0.00000000000E+00  0.50424344770E+02  0.50424344770E+02  0.00000000000E+00 0.  1.
          1   -1    0    0  501    0  0.00000000000E+00 -0.00000000000E+00 -0.33101936928E+03  0.33101936928E+03  0.00000000000E+00 0. -1.
         25    2    1    2    0    0 -0.12572651548E+02 -0.66918859598E+02 -0.13376055488E+03  0.19538363320E+03  0.12508666094E+03 0.  0.
          5    1    3    3  502    0 -0.45666547955E+02 -0.86049703501E+02 -0.66887241161E+02  0.11824280318E+03  0.41800000000E+01 0.  1.
         -5    1    3    3    0  502  0.33093896407E+02  0.19130843903E+02 -0.66873313718E+02  0.77140830016E+02  0.41800000000E+01 0.  1.
        -11    1    1    2    0    0  0.40702727896E+01 -0.20100288105E+02 -0.57549092553E+02  0.61094081188E+02  0.00000000000E+00 0.  1.
         11    1    1    2    0    0  0.85023787585E+01  0.87019147703E+02 -0.89285377077E+02  0.12496599966E+03  0.00000000000E+00 0. -1.
</event>
<event>
 7    1  0.2820496E-009  0.1938111E+03  0.7561462E-02  0.1155068E+00
          2   -1    0    0  501    0  0.00000000000E+00  0.00000000000E+00  0.39937027353E+03  0.39937027353E+03  0.00000000000E+00 0. -1.
         -2   -1    0    0    0  501 -0.00000000000E+00 -0.00000000000E+00 -0.10750580444E+03  0.10750580444E+03  0.00000000000E+00 0.  1.
         25    2    1    2    0    0 -0.17320174556E+03 -0.21206485819E+02  0.20634451131E+03  0.29777831424E+03  0.12508120315E+03 0.  0.
          5    1    3    3  502    0 -0.12455001083E+03 -0.63096406542E+02  0.18099518958E+03  0.22862762905E+03  0.41800000000E+01 0. -1.
         -5    1    3    3    0  502 -0.48651734724E+02  0.41889920723E+02  0.25349321731E+02  0.69150685188E+02  0.41800000000E+01 0. -1.
        -11    1    1    2    0    0  0.11029379782E+03  0.40978647454E+02  0.81309053406E+02  0.14302144437E+03  0.00000000000E+00 0.  1.
         11    1    1    2    0    0  0.62907947740E+02 -0.19772161635E+02  0.42109043721E+01  0.66076319360E+02  0.00000000000E+00 0. -1.
</event>
<event>
 7    1  0.2820496E-009  0.9642029E+02  0.7561462E-02  0.1288009E+00
          2   -1    0    0  501    0  0.00000000000E+00  0.00000000000E+00  0.50314446407E+03  0.50314446407E+03  0.00000000000E+00 0. -1.
         -2   -1    0    0    0  501 -0.00000000000E+00 -0.00000000000E+00 -0.27631311667E+02  0.27631311667E+02  0.00000000000E+00 0.  1.
         25    2    1    2    0    0 -0.33732738883E+02  0.91757084450E+01  0.20401228566E+03  0.24184974863E+03  0.12509275325E+03 0.  0.
          5    1    3    3  502    0 -0.72635877505E+02 -0.35276480912E+01  0.18008693857E+03  0.19426063123E+03  0.41800000000E+01 0. -1.
         -5    1    3    3    0  502  0.38903138622E+02  0.12703356536E+02  0.23925347088E+02  0.47589117403E+02  0.41800000000E+01 0. -1.
        -11    1    1    2    0    0  0.27839678751E+01 -0.37083631026E+02  0.21780025347E+03  0.22095224955E+03  0.00000000000E+00 0. -1.
         11    1    1    2    0    0  0.30948771008E+02  0.27907922581E+02  0.53700613274E+02  0.67973777560E+02  0.00000000000E+00 0.  1.
</event>
<event>
 7    1  0.2820496E-009  0.9555154E+02  0.7561462E-02  0.1289939E+00
          2   -1    0    0  501    0  0.00000000000E+00  0.00000000000E+00  0.16572512241E+03  0.16572512241E+03  0.00000000000E+00 0.  1.
         -2   -1    0    0    0  501 -0.00000000000E+00 -0.00000000000E+00 -0.76180237666E+02  0.76180237666E+02  0.00000000000E+00 0. -1.
         25    2    1    2    0    0  0.10668709428E+02 -0.22999986456E+02  0.73230557650E+02  0.14715179777E+03  0.12509243092E+03 0.  0.
          5    1    3    3  502    0 -0.17969671976E+02 -0.53013002760E+02 -0.71656131798E+01  0.56587153885E+02  0.41800000000E+01 0.  1.
         -5    1    3    3    0  502  0.28638381404E+02  0.30013016304E+02  0.80396170830E+02  0.90564643881E+02  0.41800000000E+01 0.  1.
        -11    1    1    2    0    0 -0.18909705082E+02 -0.32266727376E+02  0.82264213914E+01  0.38293506639E+02  0.00000000000E+00 0.  1.
         11    1    1    2    0    0  0.82409956533E+01  0.55266713833E+02  0.80879056982E+01  0.56460055666E+02  0.00000000000E+00 0. -1.
</event>
<event>
 7    1  0.2820496E-009  0.6108427E+02  0.7561462E-02  0.1393337E+00
         -2   -1    0    0    0  501 -0.00000000000E+00  0.00000000000E+00  0.10125951151E+03  0.10125951151E+03  0.00000000000E+00 0.  1.
          2   -1    0    0  501    0  0.00000000000E+00 -0.00000000000E+00 -0.14607071216E+03  0.14607071216E+03  0.00000000000E+00 0. -1.
         25    2    1    2    0    0 -0.52050322968E+02 -0.85610307593E+01 -0.93964942368E+01  0.13608513643E+03  0.12509333669E+03 0.  0.
          5    1    3    3  502    0 -0.64987453370E+01 -0.44526112687E+01 -0.64066434860E+02  0.64684155044E+02  0.41800000000E+01 0. -1.
         -5    1    3    3    0  502 -0.45551577631E+02 -0.41084194907E+01  0.54669940624E+02  0.71400981388E+02  0.41800000000E+01 0. -1.
        -11    1    1    2    0    0  0.15397903312E+02 -0.16771950183E+02  0.26517632007E+02  0.34951087918E+02  0.00000000000E+00 0.  1.
         11    1    1    2    0    0  0.36652419655E+02  0.25332980943E+02 -0.61932338418E+02  0.76293999318E+02  0.00000000000E+00 0. -1.
</event>
<event>
 7    1  0.2820496E-009  0.1010716E+03  0.7561462E-02  0.1278058E+00
          2   -1    0    0  501    0  0.00000000000E+00  0.00000000000E+00  0.58337626909E+03  0.58337626909E+03  0.00000000000E+00 0. -1.
         -2   -1    0    0    0  501 -0.00000000000E+00 -0.00000000000E+00 -0.22988147278E+02  0.22988147278E+02  0.00000000000E+00 0.  1.
         25    2    1    2    0    0 -0.10024750953E+02 -0.44091485621E+01  0.39878188427E+03  0.41808505648E+03  0.12509271364E+03 0.  0.
          5    1    3    3  502    0  0.47237554274E+02 -0.31260358763E+02  0.24988598727E+03  0.25625978147E+03  0.41800000000E+01 0.  1.
         -5    1    3    3    0  502 -0.57262305227E+02  0.26851210201E+02  0.14889589700E+03  0.16182527501E+03  0.41800000000E+01 0.  1.
        -11    1    1    2    0    0 -0.35633102622E+02  0.66519477594E+01  0.12367772236E+03  0.12888035312E+03  0.00000000000E+00 0. -1.
         11    1    1    2    0    0  0.45657853575E+02 -0.22427991972E+01  0.37928515176E+02  0.59399006766E+02  0.00000000000E+00 0.  1.
</event>
<event>
 7    1  0.2820496E-009  0.1271663E+03  0.7561462E-02  0.1231722E+00
         -3   -1    0    0    0  501 -0.00000000000E+00  0.00000000000E+00  0.95549018228E+02  0.95549018228E+02  0.00000000000E+00 0.  1.
          3   -1    0    0  501    0  0.00000000000E+00 -0.00000000000E+00 -0.18719306602E+03  0.18719306602E+03  0.00000000000E+00 0. -1.
         25    2    1    2    0    0  0.15080470991E+02  0.74816104443E+02 -0.38234009585E+02  0.15143633043E+03  0.12508498149E+03 0.  0.
          5    1    3    3  502    0 -0.50577399659E+02  0.54399970776E+02 -0.35661918260E+02  0.82502575661E+02  0.41800000000E+01 0.  1.
         -5    1    3    3    0  502  0.65657870649E+02  0.20416133667E+02 -0.25720913248E+01  0.68933754764E+02  0.41800000000E+01 0.  1.
        -11    1    1    2    0    0  0.30294851762E+02 -0.99468637335E+01  0.58503564541E+01  0.32418278981E+02  0.00000000000E+00 0.  1.
         11    1    1    2    0    0 -0.45375322753E+02 -0.64869240710E+02 -0.59260394663E+02  0.98887474843E+02  0.00000000000E+00 0. -1.
</event>
<event>
 7    1  0.2820496E-009  0.1334984E+03  0.7561462E-02  0.1222355E+00
          3   -1    0    0  501    0  0.00000000000E+00  0.00000000000E+00  0.17713570770E+03  0.17713570770E+03  0.00000000000E+00 0. -1.
         -3   -1    0    0    0  501 -0.00000000000E+00 -0.00000000000E+00 -0.14810446059E+03  0.14810446059E+03  0.00000000000E+00 0.  1.
         25    2    1    2    0    0  0.83697361970E+02 -0.76646806197E+02  0.53796173508E+02  0.17725473193E+03  0.12508089545E+03 0.  0.
          5    1    3    3  502    0  0.94086692700E+02 -0.21133424768E+02 -0.36459610228E+01  0.96590335010E+02  0.41800000000E+01 0.  1.
         -5    1    3    3    0  502 -0.10389330730E+02 -0.55513381429E+02  0.57442134530E+02  0.80664396918E+02  0.41800000000E+01 0.  1.
        -11    1    1    2    0    0 -0.30713217680E+02  0.34089320382E+02  0.34822699844E+02  0.57602117399E+02  0.00000000000E+00 0. -1.
         11    1    1    2    0    0 -0.52984144290E+02  0.42557485815E+02 -0.59587626243E+02  0.90383318961E+02  0.00000000000E+00 0.  1.
</event>
<event>
 7    1  0.2820496E-009  0.8852334E+02  0.7561462E-02  0.1306468E+00
          1   -1    0    0  501    0  0.00000000000E+00  0.00000000000E+00  0.50959008255E+03  0.50959008255E+03  0.00000000000E+00 0. -1.
         -1   -1    0    0    0  501 -0.00000000000E+00 -0.00000000000E+00 -0.34278703755E+02  0.34278703755E+02  0.00000000000E+00 0.  1.
         25    2    1    2    0    0 -0.42899005760E+02  0.17087552967E+02  0.38479848727E+03  0.40724892560E+03  0.12509797135E+03 0.  0.
          5    1    3    3  502    0 -0.66708291420E+02  0.54316529427E+02  0.29099529989E+03  0.30347325824E+03  0.41800000000E+01 0.  1.
         -5    1    3    3    0  502  0.23809285660E+02 -0.37228976459E+02  0.93803187385E+02  0.10377566736E+03  0.41800000000E+01 0.  1.
        -11    1    1    2    0    0  0.22932424593E+02 -0.12199535001E+02  0.10710067868E+03  0.11020562656E+03  0.00000000000E+00 0. -1.
         11    1    1    2    0    0  0.19966581166E+02 -0.48880179664E+01 -0.16587787150E+02  0.26414234148E+02  0.00000000000E+00 0.  1.
</event>
<event>
 7    1  0.2820496E-009  0.1068895E+03  0.7561462E-02  0.1266441E+00
          1   -1    0    0  501    0  0.00000000000E+00  0.00000000000E+00  0.17038366868E+03  0.17038366868E+03  0.00000000000E+00 0. -1.
         -1   -1    0    0    0  501 -0.00000000000E+00 -0.00000000000E+00 -0.77128477876E+02  0.77128477876E+02  0.00000000000E+00 0.  1.
         25    2    1    2    0    0 -0.36841385497E+02 -0.26223779287E+01  0.62512050901E+02  0.14462768719E+03  0.12508096115E+03 0.  0.
          5    1    3    3  502    0 -0.48218678735E+02  0.53999495974E+02  0.34890428585E+02  0.80472361412E+02  0.41800000000E+01 0. -1.
         -5    1    3    3    0  502  0.11377293238E+02 -0.56621873903E+02  0.27621622317E+02  0.64155325773E+02  0.41800000000E+01 0. -1.
        -11    1    1    2    0    0 -0.19560626869E+02 -0.14574941789E+02  0.36216357949E+02  0.43665451272E+02  0.00000000000E+00 0. -1.
         11    1    1    2    0    0  0.56402012366E+02  0.17197319717E+02 -0.54732180477E+01  0.59219008099E+02  0.00000000000E+00 0.  1.
</event>
<event>
 7    1  0.2820496E-009  0.1170234E+03  0.7561462E-02  0.1248090E+00
          1   -1    0    0  501    0  0.00000000000E+00  0.00000000000E+00  0.11568720899E+03  0.11568720899E+03  0.00000000000E+00 0. -1.
         -1   -1    0    0    0  501 -0.00000000000E+00 -0.00000000000E+00 -0.15783580357E+03  0.15783580357E+03  0.00000000000E+00 0.  1.
         25    2    1    2    0    0  0.79257909563E+02 -0.21696576786E+02 -0.41222787888E+02  0.15523943311E+03  0.12508959061E+03 0.  0.
          5    1    3    3  502    0  0.10488154333E+03 -0.45218868369E+02 -0.27052304375E+02  0.11744864307E+03  0.41800000000E+01 0. -1.
         -5    1    3    3    0  502 -0.25623633766E+02  0.23522291583E+02 -0.14170483513E+02  0.37790790038E+02  0.41800000000E+01 0. -1.
        -11    1    1    2    0    0 -0.50945937872E+02  0.34970646861E+01 -0.41331542449E+02  0.65696380785E+02  0.00000000000E+00 0.  1.
         11    1    1    2    0    0 -0.28311971691E+02  0.18199512100E+02  0.40405735759E+02  0.52587198670E+02  0.00000000000E+00 0. -1.
</event>
<event>
 7    1  0.2820496E-009  0.8124595E+02  0.7561462E-02  0.1325552E+00
          1   -1    0    0  501    0  0.00000000000E+00  0.00000000000E+00  0.10415664618E+04  0.10415664618E+04  0.00000000000E+00 0. -1.
         -1   -1    0    0    0  501 -0.00000000000E+00 -0.00000000000E+00 -0.70235271181E+02  0.70235271181E+02  0.00000000000E+00 0.  1.
         25    2    1    2    0    0  0.97886577699E+01  0.53788029562E+02  0.99227576165E+03  0.10016234100E+04  0.12509715539E+03 0.  0.
          5    1    3    3  502    0  0.14301565475E+02  0.16351477047E+02  0.91756664076E+03  0.91783327364E+03  0.41800000000E+01 0. -1.
         -5    1    3    3    0  502 -0.45129077052E+01  0.37436552516E+02  0.74709120890E+02  0.83790136319E+02  0.41800000000E+01 0. -1.
        -11    1    1    2    0    0  0.12964843956E+01 -0.76840911373E+02 -0.30761436933E+02  0.82779662567E+02  0.00000000000E+00 0.  1.
         11    1    1    2    0    0 -0.11085142166E+02  0.23052881811E+02  0.98168658569E+01  0.27398660403E+02  0.00000000000E+00 0. -1.
</event>
<event>
 6    1  0.2820496E-009  0.8950464E+02  0.7561462E-02  0.1304056E+00
         -2   -1    0    0    0  501 -0.00000000000E+00  0.00000000000E+00  0.60761073114E+02  0.60761073114E+02  0.00000000000E+00 0. -1.
          2   -1    0    0  501    0  0.00000000000E+00 -0.00000000000E+00 -0.20426358424E+03  0.20426358424E+03  0.00000000000E+00 0.  1.
          5    1    1    2  502    0  0.13073704277E+02  0.53394949199E+02  0.35580452274E+01  0.55245582894E+02  0.41800000000E+01 0.  1.
         -5    1    1    2    0  502 -0.44445362078E+01 -0.32260238130E+02 -0.97817940067E+02  0.10318090262E+03  0.41800000000E+01 0.  1.
        -11    1    1    2    0    0 -0.27231841549E+02 -0.49866714127E+02 -0.16341515009E+02  0.59121125538E+02  0.00000000000E+00 0. -1.
         11    1    1    2    0    0  0.18602673480E+02  0.28732003059E+02 -0.32901101273E+02  0.47477046300E+02  0.00000000000E+00 0.  1.
</event>
<event>
 7    1  0.2820496E-009  0.1165935E+03  0.7561462E-02  0.1248825E+00
         -2   -1    0    0    0  501 -0.00000000000E+00  0.00000000000E+00  0.74819732670E+03  0.74819732670E+03  0.00000000000E+00 0.  1.
          2   -1    0    0  501    0  0.00000000000E+00 -0.00000000000E+00 -0.28462677421E+02  0.28462677421E+02  0.00000000000E+00 0. -1.
         25    2    1    2    0    0 -0.71034066988E+02 -0.65712624836E+02  0.43536624292E+03  0.46320115477E+03  0.12509019375E+03 0.  0.
          5    1    3    3  502    0  0.60046444545E+01 -0.42447799573E+02  0.37052027549E+02  0.56817220885E+02  0.41800000000E+01 0.  1.
         -5    1    3    3    0  502 -0.77038711443E+02 -0.23264825262E+02  0.39831421537E+03  0.40638393389E+03  0.41800000000E+01 0.  1.
        -11    1    1    2    0    0  0.22660713202E+02  0.55697279897E+02  0.64795725177E+02  0.88397855811E+02  0.00000000000E+00 0. -1.
         11    1    1    2    0    0  0.48373353786E+02  0.10015344939E+02  0.21957268119E+03  0.22506099354E+03  0.00000000000E+00 0.  1.
</event>
<event>
 7    1  0.2820496E-009  0.1386067E+03  0.7561462E-02  0.1215216E+00
          2   -1    0    0  501    0  0.00000000000E+00  0.00000000000E+00  0.62547939844E+03  0.62547939844E+03  0.00000000000E+00 0. -1.
         -2   -1    0    0    0  501 -0.00000000000E+00 -0.00000000000E+00 -0.43810494337E+02  0.43810494337E+02  0.00000000000E+00 0.  1.
         25    2    1    2    0    0  0.99067704687E+02 -0.11589647928E+02  0.45766352089E+03  0.48482028481E+03  0.12508429221E+03 0.  0.
          5    1    3    3  502    0  0.11600510526E+03 -0.27976918526E+02  0.43757002202E+03  0.45356905647E+03  0.41800000000E+01 0.  1.
         -5    1    3    3    0  502 -0.16937400575E+02  0.16387270598E+02  0.20093498875E+02  0.31251228343E+02  0.41800000000E+01 0.  1.
        -11    1    1    2    0    0  0.11478381045E+02 -0.16232372513E+02  0.69021120215E+01  0.21044768926E+02  0.00000000000E+00 0.  1.
         11    1    1    2    0    0 -0.11054608573E+03  0.27822020441E+02  0.11710327119E+03  0.16342483904E+03  0.00000000000E+00 0. -1.
</event>
<event>
 7    1  0.2820496E-009  0.9939278E+02  0.7561462E-02  0.1281578E+00
          1   -1    0    0  501    0  0.00000000000E+00  0.00000000000E+00  0.70155686388E+02  0.70155686388E+02  0.00000000000E+00 0. -1.
         -1   -1    0    0    0  501 -0.00000000000E+00 -0.00000000000E+00 -0.25277834596E+03  0.25277834596E+03  0.00000000000E+00 0.  1.
         25    2    1    2    0    0 -0.21524131592E+02 -0.52191333194E+02 -0.15696601152E+03  0.20850230395E+03  0.12509060109E+03 0.  0.
          5    1    3    3  502    0  0.50199128509E+01  0.29205616777E+02 -0.10288687599E+03  0.10715105798E+03  0.41800000000E+01 0.  1.
         -5    1    3    3    0  502 -0.26544044442E+02 -0.81396949971E+02 -0.54079135531E+02  0.10135124597E+03  0.41800000000E+01 0.  1.
        -11    1    1    2    0    0 -0.93450225578E+01  0.51419548132E+02  0.22762886685E+02  0.57003933083E+02  0.00000000000E+00 0. -1.
         11    1    1    2    0    0  0.30869154149E+02  0.77178506236E+00 -0.48419534733E+02  0.57427795307E+02  0.00000000000E+00 0.  1.
</event>
<event>
 7    1  0.2820496E-009  0.2500824E+03  0.7561462E-02  0.1113253E+00
         -1   -1    0    0    0  501 -0.00000000000E+00  0.00000000000E+00  0.12591095746E+03  0.12591095746E+03  0.00000000000E+00 0.  1.
          1   -1    0    0  501    0  0.00000000000E+00 -0.00000000000E+00 -0.74051216745E+03  0.74051216745E+03  0.00000000000E+00 0. -1.
         25    2    1    2    0    0  0.85171420634E+02 -0.21244700766E+03 -0.71943414491E+02  0.27057694219E+03  0.12509246500E+03 0.  0.
          5    1    3    3  502    0  0.22965056708E+02  0.11784074012E+02  0.23898837420E+01  0.26257230894E+02  0.41800000000E+01 0.  1.
         -5    1    3    3    0  502  0.62206363926E+02 -0.22423108167E+03 -0.74333298233E+02  0.24431971129E+03  0.41800000000E+01 0.  1.
        -11    1    1    2    0    0 -0.60425253476E+01  0.11761466669E+03 -0.20658032630E+03  0.23779224787E+03  0.00000000000E+00 0.  1.
         11    1    1    2    0    0 -0.79128895287E+02  0.94832340962E+02 -0.33607746920E+03  0.35805393485E+03  0.00000000000E+00 0. -1.
</event>
<event>
 7    1  0.2820496E-009  0.1790335E+03  0.7561462E-02  0.1168742E+00
          1   -1    0    0  501    0  0.00000000000E+00  0.00000000000E+00  0.21348722845E+03  0.21348722845E+03  0.00000000000E+00 0. -1.
         -1   -1    0    0    0  501 -0.00000000000E+00 -0.00000000000E+00 -0.18845651653E+03  0.18845651653E+03  0.00000000000E+00 0.  1.
         25    2    1    2    0    0  0.10913888134E+03 -0.93605392271E+02 -0.73045656910E+02  0.20409830122E+03  0.12508870326E+03 0.  0.
          5    1    3    3  502    0  0.17546675056E+00 -0.78156423698E+02 -0.45655108941E+02  0.90610809103E+02  0.41800000000E+01 0.  1.
         -5    1    3    3    0  502  0.10896341458E+03 -0.15448968573E+02 -0.27390547970E+02  0.11348749211E+03  0.41800000000E+01 0.  1.
        -11    1    1    2    0    0  0.60468112772E+01 -0.11973852922E+02  0.96340869363E-01  0.13414408746E+02  0.00000000000E+00 0.  1.
         11    1    1    2    0    0 -0.11518569261E+03  0.10557924519E+03  0.97980027962E+02  0.18443103502E+03  0.00000000000E+00 0. -1.
</event>
<event>
 7    1  0.2820496E-009  0.1347225E+03  0.7561462E-02  0.1220612E+00
          1   -1    0    0  501    0  0.00000000000E+00  0.00000000000E+00  0.81424631572E+03  0.81424631572E+03  0.00000000000E+00 0. -1.
         -1   -1    0    0    0  501 -0.00000000000E+00 -0.00000000000E+00 -0.31923399468E+02  0.31923399468E+02  0.00000000000E+00 0.  1.
         25    2    1    2    0    0  0.41901301377E+02  0.10785436553E+03  0.36532235857E+03  0.40310845983E+03  0.12509085297E+03 0.  0.
          5    1    3    3  502    0  0.27193232647E+02  0.12333663146E+03  0.35878336338E+03  0.38038713280E+03  0.41800000000E+01 0.  1.
         -5    1    3    3    0  502  0.14708068730E+02 -0.15482265931E+02  0.65389951917E+01  0.22721327035E+02  0.41800000000E+01 0.  1.
        -11    1    1    2    0    0 -0.18860585541E+02 -0.11159292395E+02  0.99828912999E+01  0.24081312515E+02  0.00000000000E+00 0.  1.
         11    1    1    2    0    0 -0.23040715836E+02 -0.96695073135E+02  0.40701766639E+03  0.41897994284E+03  0.00000000000E+00 0. -1.
</event>
<event>
 7    1  0.2820496E-009  0.9703037E+02  0.7561462E-02  0.1286668E+00
         -2   -1    0    0    0  501 -0.00000000000E+00  0.00000000000E+00  0.25024214284E+02  0.25024214284E+02  0.00000000000E+00 0.  1.
          2   -1    0    0  501    0  0.00000000000E+00 -0.00000000000E+00 -0.54041343724E+03  0.54041343724E+03  0.00000000000E+00 0. -1.
         25    2    1    2    0    0  0.10523876188E+02  0.56949065687E+02 -0.35425993008E+03  0.38013381593E+03  0.12509065474E+03 0.  0.
          5    1    3    3  502    0  0.22070424702E+02  0.92026498863E+02 -0.19769809260E+03  0.21922132277E+03  0.41800000000E+01 0. -1.
         -5    1    3    3    0  502 -0.11546548514E+02 -0.35077433176E+02 -0.15656183747E+03  0.16091249316E+03  0.41800000000E+01 0. -1.
        -11    1    1    2    0    0  0.52821144117E+01 -0.33341503616E+02 -0.15886795739E+02  0.37308804255E+02  0.00000000000E+00 0.  1.
         11    1    1    2    0    0 -0.15805990600E+02 -0.23607562071E+02 -0.14524249714E+03  0.14799503134E+03  0.00000000000E+00 0. -1.
</event>
<event>
 7    1  0.2820496E-009  0.1062242E+03  0.7561462E-02  0.1267726E+00
         -1   -1    0    0    0  501 -0.00000000000E+00  0.00000000000E+00  0.78167017502E+02  0.78167017502E+02  0.00000000000E+00 0.  1.
          1   -1    0    0  501    0  0.00000000000E+00 -0.00000000000E+00 -0.18457665527E+03  0.18457665527E+03  0.00000000000E+00 0. -1.
         25    2    1    2    0    0  0.22045567177E+02 -0.13583185894E+02 -0.10935116984E+02  0.12820840401E+03  0.12508920059E+03 0.  0.
          5    1    3    3  502    0 -0.81459881433E+01  0.48294214713E+02  0.19414760921E+02  0.52849726955E+02  0.41800000000E+01 0. -1.
         -5    1    3    3    0  502  0.30191555320E+02 -0.61877400607E+02 -0.30349877905E+02  0.75358677054E+02  0.41800000000E+01 0. -1.
        -11    1    1    2    0    0 -0.23685278892E+02 -0.36878136850E+02 -0.37734854884E+02  0.57835185544E+02  0.00000000000E+00 0.  1.
         11    1    1    2    0    0  0.16397117151E+01  0.50461322744E+02 -0.57739665894E+02  0.76700083215E+02  0.00000000000E+00 0. -1.
</event>
<event>
 7    1  0.2820496E-009  0.9677500E+02  0.7561462E-02  0.1287228E+00
          2   -1    0    0  501    0  0.00000000000E+00  0.00000000000E+00  0.11112206291E+04  0.11112206291E+04  0.00000000000E+00 0. -1.
         -2   -1    0    0    0  501 -0.00000000000E+00 -0.00000000000E+00 -0.21111418264E+02  0.21111418264E+02  0.00000000000E+00 0.  1.
         25    2    1    2    0    0 -0.65956430123E+01  0.14503584481E+02  0.98188306597E+03  0.98994610229E+03  0.12508026915E+03 0.  0.
          5    1    3    3  502    0 -0.51318587092E+02 -0.32649121517E+02  0.47625193455E+03  0.48013845928E+03  0.41800000000E+01 0. -1.
         -5    1    3    3    0  502  0.44722944080E+02  0.47152705998E+02  0.50563113141E+03  0.50980764300E+03  0.41800000000E+01 0. -1.
        -11    1    1    2    0    0 -0.16618321276E+02  0.19918949277E+02 -0.55911923195E+00  0.25946979721E+02  0.00000000000E+00 0.  1.
         11    1    1    2    0    0  0.23213964288E+02 -0.34422533758E+02  0.10878526413E+03  0.11643896538E+03  0.00000000000E+00 0. -1.
</event>
<event>
 7    1  0.2820496E-009  0.9370347E+02  0.7561462E-02  0.1294123E+00
         -1   -1    0    0    0  501 -0.00000000000E+00  0.00000000000E+00  0.10800063743E+04  0.10800063743E+04  0.00000000000E+00 0.  1.
          1   -1    0    0  501    0  0.00000000000E+00 -0.00000000000E+00 -0.14772881967E+02  0.14772881967E+02  0.00000000000E+00 0. -1.
         25    2    1    2    0    0 -0.19371043561E+02 -0.55313712201E+02  0.71601463242E+03  0.72921779451E+03  0.12508714522E+03 0.  0.
          5    1    3    3  502    0 -0.19884310946E+02 -0.70755856714E+02  0.70705049126E+03  0.71087245458E+03  0.41800000000E+01 0.  1.
         -5    1    3    3    0  502  0.51326738540E+00  0.15442144512E+02  0.89641411622E+01  0.18345339935E+02  0.41800000000E+01 0.  1.
        -11    1    1    2    0    0 -0.24767455158E+02  0.46631745223E+02  0.10838293713E+03  0.12056038967E+03  0.00000000000E+00 0. -1.
         11    1    1    2    0    0  0.44138498719E+02  0.86819669779E+01  0.24083592275E+03  0.24500107205E+03  0.00000000000E+00 0.  1.
</event>
<event>
 7    1  0.3587640E-009  0.1588667E+03  0.7561462E-02  0.1189982E+00
         -1   -1    0    0    0  501 -0.00000000000E+00  0.00000000000E+00  0.25096386817E+02  0.25096386817E+02  0.00000000000E+00 0.  1.
          1   -1    0    0  501    0  0.00000000000E+00 -0.00000000000E+00 -0.10607859924E+04  0.10607859924E+04  0.00000000000E+00 0. -1.
         25    2    1    2    0    0  0.83025821194E+02  0.84819725135E+02 -0.47091963570E+03  0.50149847564E+03  0.12509094702E+03 0.  0.
          5    1    3    3  502    0 -0.28135541221E+02  0.45973283235E+02 -0.16727009539E+03  0.17578938723E+03  0.41800000000E+01 0.  1.
         -5    1    3    3    0  502  0.11116136242E+03  0.38846441900E+02 -0.30364954030E+03  0.32570908840E+03  0.41800000000E+01 0.  1.
        -11    1    1    2    0    0  0.11414258235E+02 -0.39456526712E+02 -0.22877809206E+03  0.23243605184E+03  0.00000000000E+00 0. -1.
         11    1    1    2    0    0 -0.94440079429E+02 -0.45363198422E+02 -0.33599187779E+03  0.35194785170E+03  0.00000000000E+00 0.  1.
</event>
<event>
 7    1  0.2820496E-009  0.2478488E+03  0.7561462E-02  0.1114672E+00
          1   -1    0    0  501    0  0.00000000000E+00  0.00000000000E+00  0.26614498275E+03  0.26614498275E+03  0.00000000000E+00 0. -1.
         -1   -1    0    0    0  501 -0.00000000000E+00 -0.00000000000E+00 -0.44933089582E+03  0.44933089582E+03  0.00000000000E+00 0.  1.
         25    2    1    2    0    0 -0.18478476348E+03  0.14127933074E+03 -0.33217014548E+03  0.42436916637E+03  0.12508767208E+03 0.  0.
          5    1    3    3  502    0 -0.61399555116E+01  0.68482138971E+02 -0.64229929821E+02  0.94183112587E+02  0.41800000000E+01 0. -1.
         -5    1    3    3    0  502 -0.17864480797E+03  0.72797191770E+02 -0.26794021566E+03  0.33018605378E+03  0.41800000000E+01 0. -1.
        -11    1    1    2    0    0  0.12674472468E+03 -0.82347639685E+02  0.43936453709E+02  0.15740321140E+03  0.00000000000E+00 0. -1.
         11    1    1    2    0    0  0.58040038803E+02 -0.58931691056E+02  0.10504777870E+03  0.13370350079E+03  0.00000000000E+00 0.  1.
</event>
<event>
 7    1  0.2820496E-009  0.1334093E+03  0.7561462E-02  0.1222483E+00
         -1   -1    0    0    0  501 -0.00000000000E+00  0.00000000000E+00  0.31476017384E+02  0.31476017384E+02  0.00000000000E+00 0.  1.
          1   -1    0    0  501    0  0.00000000000E+00 -0.00000000000E+00 -0.88158904356E+03  0.88158904356E+03  0.00000000000E+00 0. -1.
         25    2    1    2    0    0 -0.47676118370E+02 -0.11001869537E+03 -0.34407188519E+03  0.38524463477E+03  0.12510332069E+03 0.  0.
          5    1    3    3  502    0 -0.43525109032E+02 -0.36262520935E+02 -0.28488584176E+03  0.29049409766E+03  0.41800000000E+01 0. -1.
         -5    1    3    3    0  502 -0.41510093379E+01 -0.73756174433E+02 -0.59186043426E+02  0.94750537106E+02  0.41800000000E+01 0. -1.
        -11    1    1    2    0    0  0.58299477867E+02  0.55550910758E+02 -0.18140733540E+03  0.19847759103E+03  0.00000000000E+00 0.  1.
         11    1    1    2    0    0 -0.10623359497E+02  0.54467784611E+02 -0.32463380559E+03  0.32934283514E+03  0.00000000000E+00 0. -1.
</event>
<event>
 7    1  0.2821734E-009  0.1105497E+03  0.7561462E-02  0.1259555E+00
         -1   -1    0    0    0  501 -0.00000000000E+00  0.00000000000E+00  0.53581406822E+02  0.53581406822E+02  0.00000000000E+00 0.  1.
          1   -1    0    0  501    0  0.00000000000E+00 -0.00000000000E+00 -0.34706857497E+03  0.34706857497E+03  0.00000000000E+00 0. -1.
         25    2    1    2    0    0 -0.49283000545E+02 -0.38390364869E+02 -0.23953718540E+03  0.27735903722E+03  0.12508932040E+03 0.  0.
          5    1    3    3  502    0 -0.22088886291E+02  0.43092935640E+02 -0.52777996326E+02  0.71748932367E+02  0.41800000000E+01 0.  1.
         -5    1    3    3    0  502 -0.27194114254E+02 -0.81483300509E+02 -0.18675918908E+03  0.20561010485E+03  0.41800000000E+01 0.  1.
        -11    1    1    2    0    0  0.22940589529E+02 -0.14685547891E+02  0.16021752656E+02  0.31601147495E+02  0.00000000000E+00 0.  1.
         11    1    1    2    0    0  0.26342411016E+02  0.53075912760E+02 -0.69971735400E+02  0.91689797079E+02  0.00000000000E+00 0. -1.
</event>
<event>
 7    1  0.2820496E-009  0.1474684E+03  0.7561462E-02  0.1203619E+00
         -1   -1    0    0    0  501 -0.00000000000E+00  0.00000000000E+00  0.30635593844E+02  0.30635593844E+02  0.00000000000E+00 0.  1.
          1   -1    0    0  501    0  0.00000000000E+00 -0.00000000000E+00 -0.75460836765E+03  0.75460836765E+03  0.00000000000E+00 0. -1.
         25    2    1    2    0    0 -0.33790965134E+02 -0.98242078049E+02 -0.44050763053E+03  0.46956116836E+03  0.12508950018E+03 0.  0.
          5    1    3    3  502    0  0.33651245074E+02  0.67384058857E+01 -0.61905134350E+02  0.70905080691E+02  0.41800000000E+01 0. -1.
         -5    1    3    3    0  502 -0.67442210208E+02 -0.10498048393E+03 -0.37860249618E+03  0.39865608767E+03  0.41800000000E+01 0. -1.
        -11    1    1    2    0    0  0.62005753069E+02  0.50102722802E+02 -0.19981463420E+03  0.21512992420E+03  0.00000000000E+00 0.  1.
         11    1    1    2    0    0 -0.28214787935E+02  0.48139355247E+02 -0.83650509086E+02  0.10055286894E+03  0.00000000000E+00 0. -1.
</event>
<event>
 7    1  0.2820496E-009  0.1099688E+03  0.7561462E-02  0.1260628E+00
         -1   -1    0    0    0  501 -0.00000000000E+00  0.00000000000E+00  0.14627209426E+03  0.14627209426E+03  0.00000000000E+00 0.  1.
          1   -1    0    0  501    0  0.00000000000E+00 -0.00000000000E+00 -0.10889267362E+03  0.10889267362E+03  0.00000000000E+00 0. -1.
         25    2    1    2    0    0  0.37605074212E+02  0.23500308249E+02 -0.22958499607E+02  0.13468183376E+03  0.12508276279E+03 0.  0.
          5    1    3    3  502    0 -0.29158336609E+02  0.52173441713E+02 -0.93331732744E+01  0.60637093741E+02  0.41800000000E+01 0. -1.
         -5    1    3    3    0  502  0.66763410821E+02 -0.28673133464E+02 -0.13625326332E+02  0.74044740021E+02  0.41800000000E+01 0. -1.
        -11    1    1    2    0    0 -0.24244639938E+02 -0.51110788140E+02  0.68405951629E+02  0.88766488318E+02  0.00000000000E+00 0.  1.
         11    1    1    2    0    0 -0.13360434274E+02  0.27610479891E+02 -0.80680313801E+01  0.31716445799E+02  0.00000000000E+00 0. -1.
</event>
<event>
 7    1  0.2820496E-009  0.1364171E+03  0.7561462E-02  0.1218233E+00
          2   -1    0    0  501    0  0.00000000000E+00  0.00000000000E+00  0.31553943537E+03  0.31553943537E+03  0.00000000000E+00 0. -1.
         -2   -1    0    0    0  501 -0.00000000000E+00 -0.00000000000E+00 -0.66259613687E+02  0.66259613687E+02  0.00000000000E+00 0.  1.
         25    2    1    2    0    0  0.92470742738E+02 -0.16727508994E+02  0.12059487416E+03  0.19755045619E+03  0.12510959695E+03 0.  0.
          5    1    3    3  502    0  0.38242405116E+02  0.44671512228E+02  0.94672044073E+02  0.11152709932E+03  0.41800000000E+01 0.  1.
         -5    1    3    3    0  502  0.54228337622E+02 -0.61399021221E+02  0.25922830085E+02  0.86023356874E+02  0.41800000000E+01 0.  1.
        -11    1    1    2    0    0 -0.70713336397E+02 -0.32658007452E+02  0.75135214099E+02  0.10822301878E+03  0.00000000000E+00 0.  1.
         11    1    1    2    0    0 -0.21757406341E+02  0.49385516446E+02  0.53549733421E+02  0.76025574084E+02  0.00000000000E+00 0. -1.
</event>
<event>
 7    1  0.2820496E-009  0.1437438E+03  0.7561462E-02  0.1208378E+00
         -1   -1    0    0    0  501 -0.00000000000E+00  0.00000000000E+00  0.23957545853E+03  0.23957545853E+03  0.00000000000E+00 0.  1.
          1   -1    0    0  501    0  0.00000000000E+00 -0.00000000000E+00 -0.14410104668E+03  0.14410104668E+03  0.00000000000E+00 0. -1.
         25    2    1    2    0    0 -0.93203049296E+02 -0.40415783834E+02  0.16364799138E+03  0.22964472274E+03  0.12504315102E+03 0.  0.
          5    1    3    3  502    0 -0.83080425004E+02  0.27553230295E+02  0.11824182011E+03  0.14717383579E+03  0.41800000000E+01 0.  1.
         -5    1    3    3    0  502 -0.10122624293E+02 -0.67969014129E+02  0.45406171275E+02  0.82470886949E+02  0.41800000000E+01 0.  1.
        -11    1    1    2    0    0  0.72397506447E+02 -0.13118795519E+02 -0.13637936292E+02  0.74829773766E+02  0.00000000000E+00 0.  1.
         11    1    1    2    0    0  0.20805542849E+02  0.53534579353E+02 -0.54535643243E+02  0.79202008710E+02  0.00000000000E+00 0. -1.
</event>
<event>
 7    1  0.2820496E-009  0.1032945E+03  0.7561462E-02  0.1273517E+00
         -2   -1    0    0    0  501 -0.00000000000E+00  0.00000000000E+00  0.11525082775E+03  0.11525082775E+03  0.00000000000E+00 0.  1.
          2   -1    0    0  501    0  0.00000000000E+00 -0.00000000000E+00 -0.46651321134E+03  0.46651321134E+03  0.00000000000E+00 0. -1.
         25    2    1    2    0    0  0.85528280058E+02 -0.43229610032E+02  0.45232244031E+02  0.16394418730E+03  0.12509138570E+03 0.  0.
          5    1    3    3  502    0  0.47737468474E+02 -0.52997485946E+02  0.82967325937E+02  0.10949268919E+03  0.41800000000E+01 0.  1.
         -5    1    3    3    0  502  0.37790811584E+02  0.97678759137E+01 -0.37735081906E+02  0.54451498111E+02  0.41800000000E+01 0.  1.
        -11    1    1    2    0    0 -0.20293501115E+02  0.87867512863E+01 -0.98635321708E+01  0.24214096154E+02  0.00000000000E+00 0.  1.
         11    1    1    2    0    0 -0.65234778943E+02  0.34442858746E+02 -0.38663109545E+03  0.39360575564E+03  0.00000000000E+00 0. -1.
</event>
<event>
 7    1  0.2820496E-009  0.1359540E+03  0.7561462E-02  0.1218879E+00
          2   -1    0    0  501    0  0.00000000000E+00  0.00000000000E+00  0.20681218106E+03  0.20681218106E+03  0.00000000000E+00 0. -1.
         -2   -1    0    0    0  501 -0.00000000000E+00 -0.00000000000E+00 -0.12931744728E+03  0.12931744728E+03  0.00000000000E+00 0.  1.
         25    2    1    2    0    0 -0.68187946671E+02 -0.94219479456E+02  0.87997470374E+02  0.19214003618E+03  0.12508929742E+03 0.  0.
          5    1    3    3  502    0  0.22654258814E+02 -0.10823528736E+02 -0.16596392091E+02  0.30385470988E+02  0.41800000000E+01 0. -1.
         -5    1    3    3    0  502 -0.90842205485E+02 -0.83395950720E+02  0.10459386246E+03  0.16175456519E+03  0.41800000000E+01 0. -1.
        -11    1    1    2    0    0  0.65472432595E+01  0.41331553575E+02 -0.39698592057E+02  0.57681382841E+02  0.00000000000E+00 0.  1.
         11    1    1    2    0    0  0.61640703411E+02  0.52887925882E+02  0.29195855465E+02  0.86308209328E+02  0.00000000000E+00 0. -1.
</event>
<event>
 7    1  0.2820496E-009  0.6091500E+02  0.7561462E-02  0.1394032E+00
          2   -1    0    0  501    0  0.00000000000E+00  0.00000000000E+00  0.44496978003E+03  0.44496978003E+03  0.00000000000E+00 0.  1.
         -2   -1    0    0    0  501 -0.00000000000E+00 -0.00000000000E+00 -0.36275941351E+02  0.36275941351E+02  0.00000000000E+00 0. -1.
         25    2    1    2    0    0  0.14138471900E+02 -0.71607370282E+01  0.35220382418E+03  0.37409385432E+03  0.12508998971E+03 0.  0.
          5    1    3    3  502    0 -0.16412110364E+02  0.14474557089E+02  0.25583213728E+01  0.22425155023E+02  0.41800000000E+01 0.  1.
         -5    1    3    3    0  502  0.30550582264E+02 -0.21635294118E+02  0.34964550281E+03  0.35166869930E+03  0.41800000000E+01 0.  1.
        -11    1    1    2    0    0  0.28884794983E+01  0.31801081414E+02  0.67953391040E+02  0.75082058088E+02  0.00000000000E+00 0.  1.
         11    1    1    2    0    0 -0.17026951399E+02 -0.24640344386E+02 -0.11463376550E+02  0.32069808969E+02  0.00000000000E+00 0. -1.
</event>
<event>
 7    1  0.2820496E-009  0.9807881E+02  0.7561462E-02  0.1284389E+00
          1   -1    0    0  501    0  0.00000000000E+00  0.00000000000E+00  0.31324260869E+03  0.31324260869E+03  0.00000000000E+00 0. -1.
         -1   -1    0    0    0  501 -0.00000000000E+00 -0.00000000000E+00 -0.39510038452E+02  0.39510038452E+02  0.00000000000E+00 0.  1.
         25    2    1    2    0    0 -0.16555278700E+02 -0.10924241017E+02  0.19413184999E+03  0.23178975646E+03  0.12508357096E+03 0.  0.
          5    1    3    3  502    0 -0.70466455947E+02 -0.11661228821E+02  0.12489561573E+03  0.14393711440E+03  0.41800000000E+01 0.  1.
         -5    1    3    3    0  502  0.53911177247E+02  0.73698780454E+00  0.69236234253E+02  0.87852642059E+02  0.41800000000E+01 0.  1.
        -11    1    1    2    0    0 -0.26448422964E+02  0.13917104041E+01 -0.36913758732E+01  0.26741020754E+02  0.00000000000E+00 0.  1.
         11    1    1    2    0    0  0.43003701664E+02  0.95325306126E+01  0.83292096120E+02  0.94221869929E+02  0.00000000000E+00 0. -1.
</event>
<event>
 7    1  0.2820496E-009  0.9400612E+02  0.7561462E-02  0.1293430E+00
          2   -1    0    0  501    0  0.00000000000E+00  0.00000000000E+00  0.12754048958E+04  0.12754048958E+04  0.00000000000E+00 0.  1.
         -2   -1    0    0    0  501 -0.00000000000E+00 -0.00000000000E+00 -0.13724657603E+02  0.13724657603E+02  0.00000000000E+00 0. -1.
         25    2    1    2    0    0 -0.18873270381E+02  0.36680882329E+02  0.99178580736E+03  0.10004944280E+04  0.12509326670E+03 0.  0.
          5    1    3    3  502    0  0.13462901783E+02  0.50729263939E+02  0.17056572249E+03  0.17850727166E+03  0.41800000000E+01 0.  1.
         -5    1    3    3    0  502 -0.32336172164E+02 -0.14048381610E+02  0.82122008487E+03  0.82198715638E+03  0.41800000000E+01 0.  1.
        -11    1    1    2    0    0 -0.33319367791E+01 -0.64318589415E+02  0.14209918628E+03  0.15601333754E+03  0.00000000000E+00 0. -1.
         11    1    1    2    0    0  0.22205207161E+02  0.27637707086E+02  0.12779524453E+03  0.13262178782E+03  0.00000000000E+00 0.  1.
</event>
<event>
 7    1  0.2820496E-009  0.1400155E+03  0.7561462E-02  0.1213308E+00
          2   -1    0    0  501    0  0.00000000000E+00  0.00000000000E+00  0.13394979812E+03  0.13394979812E+03  0.00000000000E+00 0. -1.
         -2   -1    0    0    0  501 -0.00000000000E+00 -0.00000000000E+00 -0.17486125620E+03  0.17486125620E+03  0.00000000000E+00 0.  1.
         25    2    1    2    0    0 -0.88885586124E+02 -0.13923875655E+02  0.37863055465E+02  0.15866738413E+03  0.12508879280E+03 0.  0.
          5    1    3    3  502    0 -0.22264558316E+02 -0.64933332454E+02  0.68366438069E+01  0.69110493553E+02  0.41800000000E+01 0. -1.
         -5    1    3    3    0  502 -0.66621027808E+02  0.51009456799E+02  0.31026411658E+02  0.89556890575E+02  0.41800000000E+01 0. -1.
        -11    1    1    2    0    0  0.89350125158E+02  0.42308176330E+02 -0.66915957826E+02  0.11937827299E+03  0.00000000000E+00 0.  1.
         11    1    1    2    0    0 -0.46453903400E+00 -0.28384300676E+02 -0.11858555713E+02  0.30765397201E+02  0.00000000000E+00 0. -1.
</event>
<event>
 7    1  0.2820496E-009  0.1412372E+03  0.7561462E-02  0.1211674E+00
          4   -1    0    0  501    0  0.00000000000E+00  0.00000000000E+00  0.31191498580E+03  0.31191498580E+03  0.00000000000E+00 0. -1.
         -4   -1    0    0    0  501 -0.00000000000E+00 -0.00000000000E+00 -0.96788624413E+02  0.96788624413E+02  0.00000000000E+00 0.  1.
         25    2    1    2    0    0 -0.11474259669E+03  0.99294910575E+01  0.33308541341E+02  0.17326385945E+03  0.12508576170E+03 0.  0.
          5    1    3    3  502    0 -0.94658350068E+02 -0.37364932979E+02  0.56791670356E+02  0.11661521203E+03  0.41800000000E+01 0. -1.
         -5    1    3    3    0  502 -0.20084246617E+02  0.47294424036E+02 -0.23483129015E+02  0.56648647428E+02  0.41800000000E+01 0. -1.
        -11    1    1    2    0    0  0.83083364879E+02  0.20050731612E+02  0.55747554695E+02  0.10204247749E+03  0.00000000000E+00 0.  1.
         11    1    1    2    0    0  0.31659231806E+02 -0.29980222669E+02  0.12607026535E+03  0.13339727327E+03  0.00000000000E+00 0. -1.
</event>
<event>
 7    1  0.2820496E-009  0.1784657E+03  0.7561462E-02  0.1169296E+00
          2   -1    0    0  501    0  0.00000000000E+00  0.00000000000E+00  0.39472675479E+02  0.39472675479E+02  0.00000000000E+00 0. -1.
         -2   -1    0    0    0  501 -0.00000000000E+00 -0.00000000000E+00 -0.91865737832E+03  0.91865737832E+03  0.00000000000E+00 0.  1.
         25    2    1    2    0    0  0.10094293577E+03  0.10603568452E+03 -0.61084438025E+03  0.64047840611E+03  0.12509472065E+03 0.  0.
          5    1    3    3  502    0  0.82973885406E+02  0.13281778949E+03 -0.54454775450E+03  0.56663476790E+03  0.41800000000E+01 0.  1.
         -5    1    3    3    0  502  0.17969050367E+02 -0.26782104969E+02 -0.66296625751E+02  0.73843638207E+02  0.41800000000E+01 0.  1.
        -11    1    1    2    0    0  0.65770351236E+01 -0.42194173057E+02 -0.92515495570E+02  0.10189564540E+03  0.00000000000E+00 0.  1.
         11    1    1    2    0    0 -0.10751997090E+03 -0.63841511465E+02 -0.17582482702E+03  0.21575600229E+03  0.00000000000E+00 0. -1.
</event>
<event>
 7    1  0.2820496E-009  0.9513627E+02  0.7561462E-02  0.1290869E+00
          2   -1    0    0  501    0  0.00000000000E+00  0.00000000000E+00  0.10246260073E+04  0.10246260073E+04  0.00000000000E+00 0. -1.
         -2   -1    0    0    0  501 -0.00000000000E+00 -0.00000000000E+00 -0.17699082098E+02  0.17699082098E+02  0.00000000000E+00 0.  1.
         25    2    1    2    0    0 -0.27291265658E+02  0.13037574459E+02  0.83564879853E+03  0.84550059853E+03  0.12509019187E+03 0.  0.
          5    1    3    3  502    0  0.65098120983E+01 -0.39739948045E+02  0.11132396874E+03  0.11845733215E+03  0.41800000000E+01 0.  1.
         -5    1    3    3    0  502 -0.33801077756E+02  0.52777522504E+02  0.72432482979E+03  0.72704326638E+03  0.41800000000E+01 0.  1.
        -11    1    1    2    0    0 -0.11686998630E+01  0.32907483649E+02  0.11139142047E+03  0.11615643285E+03  0.00000000000E+00 0. -1.
         11    1    1    2    0    0  0.28459965521E+02 -0.45945058109E+02  0.59886706167E+02  0.80668057976E+02  0.00000000000E+00 0.  1.
</event>
<event>
 7    1  0.2820496E-009  0.1337094E+03  0.7561462E-02  0.1222053E+00
         -2   -1    0    0    0  501 -0.00000000000E+00  0.00000000000E+00  0.55688564003E+02  0.55688564003E+02  0.00000000000E+00 0.  1.
          2   -1    0    0  501    0  0.00000000000E+00 -0.00000000000E+00 -0.87330920749E+03  0.87330920749E+03  0.00000000000E+00 0. -1.
         25    2    1    2    0    0  0.62775498899E+02  0.98764625102E+02 -0.74287763136E+03  0.76237088941E+03  0.12508790273E+03 0.  0.
          5    1    3    3  502    0  0.77926835412E+02  0.49109477436E+02 -0.24499679012E+03  0.26177324542E+03  0.41800000000E+01 0.  1.
         -5    1    3    3    0  502 -0.15151336513E+02  0.49655147666E+02 -0.49788084124E+03  0.50059764398E+03  0.41800000000E+01 0.  1.
        -11    1    1    2    0    0 -0.39602367473E+01 -0.39277345238E+02 -0.72958677668E+02  0.82953975017E+02  0.00000000000E+00 0.  1.
         11    1    1    2    0    0 -0.58815262152E+02 -0.59487279865E+02 -0.17843344602E+01  0.83672907068E+02  0.00000000000E+00 0. -1.
</event>
<event>
 6    1  0.2820496E-009  0.8935191E+02  0.7561462E-02  0.1304429E+00
          1   -1    0    0  501    0  0.00000000000E+00  0.00000000000E+00  0.20832193894E+02  0.20832193894E+02  0.00000000000E+00 0. -1.
         -1   -1    0    0    0  501 -0.00000000000E+00 -0.00000000000E+00 -0.62899712490E+03  0.62899712490E+03  0.00000000000E+00 0.  1.
          5    1    1    2  502    0 -0.40110596618E+01 -0.41526233068E+02 -0.22123799200E+02  0.47407293990E+02  0.41800000000E+01 0. -1.
         -5    1    1    2    0  502  0.10332322283E+02  0.45022414068E+02 -0.22312234994E+03  0.22789214575E+03  0.41800000000E+01 0. -1.
        -11    1    1    2    0    0  0.28549683291E+02  0.30441402418E+02 -0.20812529869E+03  0.21226846999E+03  0.00000000000E+00 0. -1.
         11    1    1    2    0    0 -0.34870945913E+02 -0.33937583418E+02 -0.15479348318E+03  0.16226140907E+03  0.00000000000E+00 0.  1.
</event>
<event>
 7    1  0.2820496E-009  0.2532340E+03  0.7561462E-02  0.1111278E+00
         -1   -1    0    0    0  501 -0.00000000000E+00  0.00000000000E+00  0.17258824026E+03  0.17258824026E+03  0.00000000000E+00 0.  1.
          1   -1    0    0  501    0  0.00000000000E+00 -0.00000000000E+00 -0.40250854062E+03  0.40250854062E+03  0.00000000000E+00 0. -1.
         25    2    1    2    0    0  0.23540977508E+03 -0.29862929015E+01 -0.16611849373E+03  0.31411710327E+03  0.12509004940E+03 0.  0.
          5    1    3    3  502    0  0.22772935141E+03  0.32265187493E+02 -0.14789932301E+03  0.27348378739E+03  0.41800000000E+01 0. -1.
         -5    1    3    3    0  502  0.76804236677E+01 -0.35251480394E+02 -0.18219170725E+02  0.40633315883E+02  0.41800000000E+01 0. -1.
        -11    1    1    2    0    0 -0.21041647892E+03 -0.12357658286E+02 -0.24875226082E+02  0.21224180359E+03  0.00000000000E+00 0.  1.
         11    1    1    2    0    0 -0.24993296164E+02  0.15343951187E+02 -0.38926580538E+02  0.48737874016E+02  0.00000000000E+00 0. -1.
</event>
<event>
 7    1  0.2820496E-009  0.8564171E+02  0.7561462E-02  0.1313763E+00
         -2   -1    0    0    0  501 -0.00000000000E+00  0.00000000000E+00  0.27657053495E+02  0.27657053495E+02  0.00000000000E+00 0.  1.
          2   -1    0    0  501    0  0.00000000000E+00 -0.00000000000E+00 -0.46702947755E+03  0.46702947755E+03  0.00000000000E+00 0. -1.
         25    2    1    2    0    0  0.15939195635E+02 -0.21637780555E+02 -0.29389902512E+03  0.32054017082E+03  0.12508841929E+03 0.  0.
          5    1    3    3  502    0 -0.28153961532E+02  0.18478732331E+02 -0.23212445252E+03  0.23459186464E+03  0.41800000000E+01 0.  1.
         -5    1    3    3    0  502  0.44093157167E+02 -0.40116512886E+02 -0.61774572595E+02  0.85948306175E+02  0.41800000000E+01 0.  1.
        -11    1    1    2    0    0  0.26145844749E+02 -0.65299072120E+01 -0.87313105221E+01  0.28328089757E+02  0.00000000000E+00 0.  1.
         11    1    1    2    0    0 -0.42085040384E+02  0.28167687767E+02 -0.13674208842E+03  0.14581827047E+03  0.00000000000E+00 0. -1.
</event>
<event>
 7    1  0.2820496E-009  0.1511725E+03  0.7561462E-02  0.1199040E+00
         -1   -1    0    0    0  501 -0.00000000000E+00  0.00000000000E+00  0.67076984453E+02  0.67076984453E+02  0.00000000000E+00 0.  1.
          1   -1    0    0  501    0  0.00000000000E+00 -0.00000000000E+00 -0.37605998699E+03  0.37605998699E+03  0.00000000000E+00 0. -1.
         25    2    1    2    0    0  0.10992185254E+03  0.26541247510E+01 -0.11307374289E+03  0.20130019838E+03  0.12508493312E+03 0.  0.
          5    1    3    3  502    0  0.94816876024E+02 -0.52990412264E+02 -0.75687557058E+02  0.13245490729E+03  0.41800000000E+01 0.  1.
         -5    1    3    3    0  502  0.15104976515E+02  0.55644537015E+02 -0.37386185834E+02  0.68845291098E+02  0.41800000000E+01 0.  1.
        -11    1    1    2    0    0 -0.57338231940E+02 -0.41226967695E+02 -0.13618357325E+03  0.15340567568E+03  0.00000000000E+00 0. -1.
         11    1    1    2    0    0 -0.52583620600E+02  0.38572842944E+02 -0.59725686390E+02  0.88431097375E+02  0.00000000000E+00 0.  1.
</event>
<event>
 7    1  0.2820496E-009  0.1015858E+03  0.7561462E-02  0.1276996E+00
          1   -1    0    0  501    0  0.00000000000E+00  0.00000000000E+00  0.41319002487E+03  0.41319002487E+03  0.00000000000E+00 0. -1.
         -1   -1    0    0    0  501 -0.00000000000E+00 -0.00000000000E+00 -0.46505437454E+02  0.46505437454E+02  0.00000000000E+00 0.  1.
         25    2    1    2    0    0  0.52146751551E+02 -0.26287934320E+02  0.30391803830E+03  0.33380295262E+03  0.12509155840E+03 0.  0.
          5    1    3    3  502    0 -0.22407356151E+02 -0.25235915223E+00  0.20908716675E+03  0.21032610155E+03  0.41800000000E+01 0. -1.
         -5    1    3    3    0  502  0.74554107702E+02 -0.26035575167E+02  0.94830871555E+02  0.12347685107E+03  0.41800000000E+01 0. -1.
        -11    1    1    2    0    0 -0.45450230929E+02  0.55266001055E+02  0.64175545879E+02  0.96117402446E+02  0.00000000000E+00 0. -1.
         11    1    1    2    0    0 -0.66965206215E+01 -0.28978066735E+02 -0.14089967717E+01  0.29775107255E+02  0.00000000000E+00 0.  1.
</event>
<event>
 7    1  0.2820496E-009  0.1195661E+03  0.7561462E-02  0.1243815E+00
         -2   -1    0    0    0  501 -0.00000000000E+00  0.00000000000E+00  0.59445132491E+02  0.59445132491E+02  0.00000000000E+00 0.  1.
          2   -1    0    0  501    0  0.00000000000E+00 -0.00000000000E+00 -0.27438592100E+03  0.27438592100E+03  0.00000000000E+00 0. -1.
         25    2    1    2    0    0 -0.31922617953E+02  0.42791800308E+02 -0.17443355642E+03  0.22118474888E+03  0.12508171658E+03 0.  0.
          5    1    3    3  502    0 -0.79198477883E+02  0.35992349272E+02 -0.99583994014E+02  0.13229622961E+03  0.41800000000E+01 0.  1.
         -5    1    3    3    0  502  0.47275859930E+02  0.67994510364E+01 -0.74849562404E+02  0.88888519273E+02  0.41800000000E+01 0.  1.
        -11    1    1    2    0    0  0.53350760636E+02  0.31049068089E+01 -0.28601453842E+02  0.60613424822E+02  0.00000000000E+00 0. -1.
         11    1    1    2    0    0 -0.21428142683E+02 -0.45896707117E+02 -0.11905778246E+02  0.52032879784E+02  0.00000000000E+00 0.  1.
</event>
<event>
 7    1  0.2820496E-009  0.1127493E+03  0.7561462E-02  0.1255562E+00
         -1   -1    0    0    0  501 -0.00000000000E+00  0.00000000000E+00  0.53904343792E+02  0.53904343792E+02  0.00000000000E+00 0.  1.
          1   -1    0    0  501    0  0.00000000000E+00 -0.00000000000E+00 -0.28834532662E+03  0.28834532662E+03  0.00000000000E+00 0. -1.
         25    2    1    2    0    0 -0.51833205304E+02  0.26828722158E+02 -0.15704113424E+03  0.20908271024E+03  0.12508876998E+03 0.  0.
          5    1    3    3  502    0 -0.17389134577E+02 -0.49325408356E+02 -0.44247859128E+02  0.68634709500E+02  0.41800000000E+01 0.  1.
         -5    1    3    3    0  502 -0.34444070727E+02  0.76154130514E+02 -0.11279327511E+03  0.14044800074E+03  0.41800000000E+01 0.  1.
        -11    1    1    2    0    0 -0.13699498184E+02  0.72300665258E+01 -0.53260294666E+02  0.55467189404E+02  0.00000000000E+00 0. -1.
         11    1    1    2    0    0  0.65532703487E+02 -0.34058788684E+02 -0.24139553920E+02  0.77699770762E+02  0.00000000000E+00 0.  1.
</event>
<event>
 7    1  0.2820496E-009  0.5260690E+03  0.7561462E-02  0.1007190E+00
         -2   -1    0    0    0  501 -0.00000000000E+00  0.00000000000E+00  0.38089103363E+03  0.38089103363E+03  0.00000000000E+00 0.  1.
          2   -1    0    0  501    0  0.00000000000E+00 -0.00000000000E+00 -0.74588999307E+03  0.74588999307E+03  0.00000000000E+00 0. -1.
         25    2    1    2    0    0  0.50086643532E+03  0.14529464517E+03 -0.16917873620E+03  0.56235888603E+03  0.12509337298E+03 0.  0.
          5    1    3    3  502    0  0.32459256265E+03  0.50596155861E+02 -0.58681849781E+02  0.33373842243E+03  0.41800000000E+01 0.  1.
         -5    1    3    3    0  502  0.17627387267E+03  0.94698489310E+02 -0.11049688642E+03  0.22862046359E+03  0.41800000000E+01 0.  1.
        -11    1    1    2    0    0 -0.38754896448E+03 -0.13174647081E+03 -0.11699585804E+03  0.42572216672E+03  0.00000000000E+00 0.  1.
         11    1    1    2    0    0 -0.11331747084E+03 -0.13548174360E+02 -0.78824365188E+02  0.13869997395E+03  0.00000000000E+00 0. -1.
</event>
<event>
 7    1  0.2820496E-009  0.2227254E+03  0.7561462E-02  0.1131867E+00
         -1   -1    0    0    0  501 -0.00000000000E+00  0.00000000000E+00  0.63777440667E+03  0.63777440667E+03  0.00000000000E+00 0.  1.
          1   -1    0    0  501    0  0.00000000000E+00 -0.00000000000E+00 -0.85939278031E+02  0.85939278031E+02  0.00000000000E+00 0. -1.
         25    2    1    2    0    0 -0.15997376685E+03 -0.13084667096E+03  0.26835618081E+03  0.36107503350E+03  0.12509069773E+03 0.  0.
          5    1    3    3  502    0 -0.10278024608E+03 -0.12535980602E+03  0.11942908497E+03  0.20139423697E+03  0.41800000000E+01 0.  1.
         -5    1    3    3    0  502 -0.57193520776E+02 -0.54868649369E+01  0.14892709584E+03  0.15968079653E+03  0.41800000000E+01 0.  1.
        -11    1    1    2    0    0  0.21084318248E+01  0.46780092775E+02  0.68699864472E+02  0.83141409317E+02  0.00000000000E+00 0. -1.
         11    1    1    2    0    0  0.15786533503E+03  0.84066578184E+02  0.21477908336E+03  0.27949724188E+03  0.00000000000E+00 0.  1.
</event>
<event>
 7    1  0.2820496E-009  0.1179328E+03  0.7561462E-02  0.1246547E+00
          1   -1    0    0  501    0  0.00000000000E+00  0.00000000000E+00  0.30385656824E+03  0.30385656824E+03  0.00000000000E+00 0. -1.
         -1   -1    0    0    0  501 -0.00000000000E+00 -0.00000000000E+00 -0.70845821776E+02  0.70845821776E+02  0.00000000000E+00 0.  1.
         25    2    1    2    0    0  0.73082458944E+02  0.59122084419E+02  0.99298523989E+02  0.18532148439E+03  0.12508952410E+03 0.  0.
          5    1    3    3  502    0  0.60253152473E+02  0.73557887874E+02  0.12231742571E+03  0.15498461306E+03  0.41800000000E+01 0.  1.
         -5    1    3    3    0  502  0.12829306471E+02 -0.14435803455E+02 -0.23018901723E+02  0.30336871336E+02  0.41800000000E+01 0.  1.
        -11    1    1    2    0    0 -0.27889279380E+02 -0.69214524747E+02  0.11960282197E+03  0.14097268304E+03  0.00000000000E+00 0. -1.
         11    1    1    2    0    0 -0.45193179564E+02  0.10092440328E+02  0.14109400499E+02  0.48408222580E+02  0.00000000000E+00 0.  1.
</event>
<event>
 7    1  0.2820496E-009  0.1058094E+03  0.7561462E-02  0.1268533E+00
          3   -1    0    0  501    0  0.00000000000E+00  0.00000000000E+00  0.10672176214E+03  0.10672176214E+03  0.00000000000E+00 0. -1.
         -3   -1    0    0    0  501 -0.00000000000E+00 -0.00000000000E+00 -0.18307972786E+03  0.18307972786E+03  0.00000000000E+00 0.  1.
         25    2    1    2    0    0  0.26254829149E+02 -0.63676820862E+02  0.14630020139E+02  0.14354720127E+03  0.12509079876E+03 0.  0.
          5    1    3    3  502    0 -0.48352951207E+02 -0.37238967467E+02 -0.64924440921E+01  0.61517256268E+02  0.41800000000E+01 0. -1.
         -5    1    3    3    0  502  0.74607780356E+02 -0.26437853395E+02  0.21122464231E+02  0.82029945001E+02  0.41800000000E+01 0. -1.
        -11    1    1    2    0    0 -0.73531617033E+01  0.41026451959E+02  0.84537157555E+01  0.42528861464E+02  0.00000000000E+00 0. -1.
         11    1    1    2    0    0 -0.18901667446E+02  0.22650368903E+02 -0.99441701613E+02  0.10372542728E+03  0.00000000000E+00 0.  1.
</event>
<event>
 7    1  0.2820496E-009  0.9373709E+02  0.7561462E-02  0.1294046E+00
         -1   -1    0    0    0  501 -0.00000000000E+00  0.00000000000E+00  0.13014592853E+03  0.13014592853E+03  0.00000000000E+00 0.  1.
          1   -1    0    0  501    0  0.00000000000E+00 -0.00000000000E+00 -0.12863798802E+03  0.12863798802E+03  0.00000000000E+00 0. -1.
         25    2    1    2    0    0  0.45030175912E+01  0.97916996033E+01 -0.68296605400E+02  0.14292701467E+03  0.12509017014E+03 0.  0.
          5    1    3    3  502    0  0.56146269110E+02 -0.21560399902E+02 -0.53458347682E+02  0.80576185786E+02  0.41800000000E+01 0.  1.
         -5    1    3    3    0  502 -0.51643251519E+02  0.31352099505E+02 -0.14838257718E+02  0.62350828888E+02  0.41800000000E+01 0.  1.
        -11    1    1    2    0    0 -0.20049041215E+02  0.22893832365E+02  0.73425445845E+02  0.79481996147E+02  0.00000000000E+00 0.  1.
         11    1    1    2    0    0  0.15546023623E+02 -0.32685531969E+02 -0.36208999374E+01  0.36374905731E+02  0.00000000000E+00 0. -1.
</event>
<event>
 7    1  0.2820496E-009  0.1948883E+03  0.7561462E-02  0.1154125E+00
          2   -1    0    0  501    0  0.00000000000E+00  0.00000000000E+00  0.58414751860E+03  0.58414751860E+03  0.00000000000E+00 0. -1.
         -2   -1    0    0    0  501 -0.00000000000E+00 -0.00000000000E+00 -0.81816722202E+02  0.81816722202E+02  0.00000000000E+00 0.  1.
         25    2    1    2    0    0 -0.66841754644E+02  0.14763864461E+03  0.40994575834E+03  0.45822349587E+03  0.12509299676E+03 0.  0.
          5    1    3    3  502    0 -0.97478358859E+02  0.69788777146E+02  0.21873213291E+03  0.24946687601E+03  0.41800000000E+01 0.  1.
         -5    1    3    3    0  502  0.30636604215E+02  0.77849867466E+02  0.19121362543E+03  0.20875661985E+03  0.41800000000E+01 0.  1.
        -11    1    1    2    0    0  0.44300404662E+02 -0.85105507044E+01  0.23533479028E+02  0.50880054655E+02  0.00000000000E+00 0. -1.
         11    1    1    2    0    0  0.22541349982E+02 -0.13912809391E+03  0.68851559028E+02  0.15686069028E+03  0.00000000000E+00 0.  1.
</event>
<event>
 7    1  0.2820496E-009  0.8811151E+02  0.7561462E-02  0.1307490E+00
          4   -1    0    0  501    0  0.00000000000E+00  0.00000000000E+00  0.52965637366E+02  0.52965637366E+02  0.00000000000E+00 0. -1.
         -4   -1    0    0    0  501 -0.00000000000E+00 -0.00000000000E+00 -0.26850060475E+03  0.26850060475E+03  0.00000000000E+00 0.  1.
         25    2    1    2    0    0 -0.42650786966E+02  0.12259541178E+02 -0.15255887933E+03  0.20221746366E+03  0.12509318514E+03 0.  0.
          5    1    3    3  502    0 -0.13737452898E+02 -0.55856629484E+02 -0.78830122405E+02  0.97674670554E+02  0.41800000000E+01 0. -1.
         -5    1    3    3    0  502 -0.28913334068E+02  0.68116170662E+02 -0.73728756925E+02  0.10454279311E+03  0.41800000000E+01 0. -1.
        -11    1    1    2    0    0  0.20830933403E+02 -0.71465102852E+01 -0.85012469080E+02  0.87818678507E+02  0.00000000000E+00 0.  1.
         11    1    1    2    0    0  0.21819853563E+02 -0.51130308927E+01  0.22036381023E+02  0.31430099952E+02  0.00000000000E+00 0. -1.
</event>
<event>
 7    1  0.2820496E-009  0.1791924E+03  0.7561462E-02  0.1168587E+00
          2   -1    0    0  501    0  0.00000000000E+00  0.00000000000E+00  0.15884439935E+04  0.15884439935E+04  0.00000000000E+00 0.  1.
         -2   -1    0    0    0  501 -0.00000000000E+00 -0.00000000000E+00 -0.25116875461E+02  0.25116875461E+02  0.00000000000E+00 0. -1.
         25    2    1    2    0    0 -0.13438159978E+03  0.55389965612E+02  0.11329554542E+04  0.11490700612E+04  0.12508989414E+03 0.  0.
          5    1    3    3  502    0 -0.92045836803E+02 -0.28003738274E+02  0.49482736535E+03  0.50411133624E+03  0.41800000000E+01 0.  1.
         -5    1    3    3    0  502 -0.42335762981E+02  0.83393703886E+02  0.63812808884E+03  0.64495872491E+03  0.41800000000E+01 0.  1.
        -11    1    1    2    0    0  0.33500943267E+02 -0.58636479990E+02  0.11501275389E+03  0.13337347391E+03  0.00000000000E+00 0. -1.
         11    1    1    2    0    0  0.10088065652E+03  0.32465143777E+01  0.31535890999E+03  0.33111733392E+03  0.00000000000E+00 0.  1.
</event>
<event>
 7    1  0.2820496E-009  0.1297771E+03  0.7561462E-02  0.1227787E+00
          1   -1    0    0  501    0  0.00000000000E+00  0.00000000000E+00  0.12980146140E+03  0.12980146140E+03  0.00000000000E+00 0. -1.
         -1   -1    0    0    0  501 -0.00000000000E+00 -0.00000000000E+00 -0.20384599663E+03  0.20384599663E+03  0.00000000000E+00 0.  1.
         25    2    1    2    0    0  0.11561338501E+03 -0.58303639235E+01 -0.77197575647E+02  0.18708901341E+03  0.12506952193E+03 0.  0.
          5    1    3    3  502    0  0.99041360044E+02 -0.65582477191E+01 -0.11114599028E+03  0.14907415996E+03  0.41800000000E+01 0. -1.
         -5    1    3    3    0  502  0.16572024971E+02  0.72788379560E+00  0.33948414638E+02  0.38014853450E+02  0.41800000000E+01 0. -1.
        -11    1    1    2    0    0 -0.57022553849E+02  0.44985914679E+02 -0.14146057051E+02  0.73996047848E+02  0.00000000000E+00 0.  1.
         11    1    1    2    0    0 -0.58590831166E+02 -0.39155550756E+02  0.17299097466E+02  0.72562396769E+02  0.00000000000E+00 0. -1.
</event>
<event>
 7    1  0.2820496E-009  0.9540366E+02  0.7561462E-02  0.1290270E+00
          1   -1    0    0  501    0  0.00000000000E+00  0.00000000000E+00  0.73879836526E+02  0.73879836526E+02  0.00000000000E+00 0. -1.
         -1   -1    0    0    0  501 -0.00000000000E+00 -0.00000000000E+00 -0.26590611702E+03  0.26590611702E+03  0.00000000000E+00 0.  1.
         25    2    1    2    0    0  0.36484822445E+02  0.13317499187E+02 -0.19246693129E+03  0.23281077368E+03  0.12509531825E+03 0.  0.
          5    1    3    3  502    0  0.38844849990E+02  0.61263609350E+02 -0.68707888123E+02  0.10000199244E+03  0.41800000000E+01 0.  1.
         -5    1    3    3    0  502 -0.23600275459E+01 -0.47946110163E+02 -0.12375904317E+03  0.13280878124E+03  0.41800000000E+01 0.  1.
        -11    1    1    2    0    0  0.25958433973E+00 -0.29720104506E+02  0.40473464297E+02  0.50214074801E+02  0.00000000000E+00 0. -1.
         11    1    1    2    0    0 -0.36744406784E+02  0.16402605319E+02 -0.40032813500E+02  0.56761105062E+02  0.00000000000E+00 0.  1.
</event>
<event>
 7    1  0.2820496E-009  0.1244148E+03  0.7561462E-02  0.1235987E+00
          2   -1    0    0  501    0  0.00000000000E+00  0.00000000000E+00  0.85953224124E+03  0.85953224124E+03  0.00000000000E+00 0. -1.
         -2   -1    0    0    0  501 -0.00000000000E+00 -0.00000000000E+00 -0.25742788070E+02  0.25742788070E+02  0.00000000000E+00 0.  1.
         25    2    1    2    0    0 -0.70329257397E+02 -0.75561877031E+02  0.44049658840E+03  0.46940346012E+03  0.12508621940E+03 0.  0.
          5    1    3    3  502    0 -0.17001618382E+02 -0.62971529948E+02  0.73674179107E+02  0.98487693031E+02  0.41800000000E+01 0. -1.
         -5    1    3    3    0  502 -0.53327639015E+02 -0.12590347083E+02  0.36682240929E+03  0.37091576709E+03  0.41800000000E+01 0. -1.
        -11    1    1    2    0    0  0.28506210269E+02 -0.12424326222E+02  0.16103027651E+03  0.16400523729E+03  0.00000000000E+00 0. -1.
         11    1    1    2    0    0  0.41823047128E+02  0.87986203253E+02  0.23226258826E+03  0.25186633189E+03  0.00000000000E+00 0.  1.
</event>
<event>
 7    1  0.3930464E-009  0.7586123E+02  0.7561462E-02  0.1341225E+00
         -2   -1    0    0    0  501 -0.00000000000E+00  0.00000000000E+00  0.43941786926E+02  0.43941786926E+02  0.00000000000E+00 0.  1.
          2   -1    0    0  501    0  0.00000000000E+00 -0.00000000000E+00 -0.41499401306E+03  0.41499401306E+03  0.00000000000E+00 0. -1.
         25    2    1    2    0    0  0.44559005907E+02 -0.29953773438E+02 -0.10347380373E+03  0.17098833795E+03  0.12508976820E+03 0.  0.
          5    1    3    3  502    0  0.16505457354E+02 -0.96267650320E+01 -0.12726201941E+03  0.12875635407E+03  0.41800000000E+01 0.  1.
         -5    1    3    3    0  502  0.28053548554E+02 -0.20327008406E+02  0.23788215689E+02  0.42231983885E+02  0.41800000000E+01 0.  1.
        -11    1    1    2    0    0 -0.27894346485E+02 -0.26457867564E+02 -0.53150580209E+02  0.65597999196E+02  0.00000000000E+00 0.  1.
         11    1    1    2    0    0 -0.16664659422E+02  0.56411641002E+02 -0.21442784220E+03  0.22234946284E+03  0.00000000000E+00 0. -1.
</event>
<event>
 7    1  0.2820496E-009  0.1085491E+03  0.7561462E-02  0.1263281E+00
         -4   -1    0    0    0  501 -0.00000000000E+00  0.00000000000E+00  0.86722963706E+02  0.86722963706E+02  0.00000000000E+00 0.  1.
          4   -1    0    0  501    0  0.00000000000E+00 -0.00000000000E+00 -0.19898978180E+03  0.19898978180E+03  0.00000000000E+00 0. -1.
         25    2    1    2    0    0  0.47227785282E+02 -0.67472665900E+02 -0.30229954501E+02  0.15278987650E+03  0.12509145401E+03 0.  0.
          5    1    3    3  502    0  0.58199442230E+02 -0.11775635606E+02  0.32716192722E+02  0.67923945233E+02  0.41800000000E+01 0. -1.
         -5    1    3    3    0  502 -0.10971656948E+02 -0.55697030293E+02 -0.62946147223E+02  0.84865931268E+02  0.41800000000E+01 0. -1.
        -11    1    1    2    0    0 -0.54341213013E+02  0.29134061938E+02 -0.67204470269E+02  0.91204176554E+02  0.00000000000E+00 0. -1.
         11    1    1    2    0    0  0.71134277316E+01  0.38338603962E+02 -0.14832393320E+02  0.41718692446E+02  0.00000000000E+00 0.  1.
</event>
<event>
 7    1  0.2820496E-009  0.2834694E+03  0.7561462E-02  0.1093809E+00
          2   -1    0    0  501    0  0.00000000000E+00  0.00000000000E+00  0.99364005469E+03  0.99364005469E+03  0.00000000000E+00 0. -1.
         -2   -1    0    0    0  501 -0.00000000000E+00 -0.00000000000E+00 -0.11691606223E+03  0.11691606223E+03  0.00000000000E+00 0.  1.
         25    2    1    2    0    0 -0.25956408501E+03  0.94217329535E+02  0.17309085777E+03  0.34908112776E+03  0.12508704690E+03 0.  0.
          5    1    3    3  502    0 -0.17225703112E+03  0.56490993611E+02  0.17754164330E+03  0.25377593392E+03  0.41800000000E+01 0. -1.
         -5    1    3    3    0  502 -0.87307053897E+02  0.37726335924E+02 -0.44507855311E+01  0.95305193847E+02  0.41800000000E+01 0. -1.
        -11    1    1    2    0    0  0.14479956210E+03 -0.47309572048E+01  0.32458017658E+03  0.35544561633E+03  0.00000000000E+00 0.  1.
         11    1    1    2    0    0  0.11476452291E+03 -0.89486372330E+02  0.37905295811E+03  0.40602937283E+03  0.00000000000E+00 0. -1.
</event>
<event>
 7    1  0.2820496E-009  0.1567072E+03  0.7561462E-02  0.1192465E+00
         -2   -1    0    0    0  501 -0.00000000000E+00  0.00000000000E+00  0.10247660906E+03  0.10247660906E+03  0.00000000000E+00 0.  1.
          2   -1    0    0  501    0  0.00000000000E+00 -0.00000000000E+00 -0.42091216856E+03  0.42091216856E+03  0.00000000000E+00 0. -1.
         25    2    1    2    0    0  0.91979598607E+02  0.94883764136E+02 -0.17618771347E+02  0.18281522885E+03  0.12509121288E+03 0.  0.
          5    1    3    3  502    0  0.63532394909E+02 -0.12062002151E+02 -0.29947647283E+02  0.71387611506E+02  0.41800000000E+01 0.  1.
         -5    1    3    3    0  502  0.28447203698E+02  0.10694576629E+03  0.12328875936E+02  0.11142761734E+03  0.41800000000E+01 0.  1.
        -11    1    1    2    0    0 -0.22906411519E+02 -0.32779741232E+01 -0.55436980950E+01  0.23794566431E+02  0.00000000000E+00 0.  1.
         11    1    1    2    0    0 -0.69073187087E+02 -0.91605790013E+02 -0.29527309006E+03  0.31677898234E+03  0.00000000000E+00 0. -1.
</event>
<event>
 7    1  0.2820496E-009  0.9399898E+02  0.7561462E-02  0.1293447E+00
          4   -1    0    0  501    0  0.00000000000E+00  0.00000000000E+00  0.53962275217E+02  0.53962275217E+02  0.00000000000E+00 0. -1.
         -4   -1    0    0    0  501 -0.00000000000E+00 -0.00000000000E+00 -0.33166273275E+03  0.33166273275E+03  0.00000000000E+00 0.  1.
         25    2    1    2    0    0 -0.20683602010E+02  0.19587755549E+02 -0.50460217121E+02  0.13785141540E+03  0.12508112431E+03 0.  0.
          5    1    3    3  502    0  0.25996416466E+02  0.31708886306E+02 -0.73478502090E+02  0.84248619035E+02  0.41800000000E+01 0. -1.
         -5    1    3    3    0  502 -0.46680018476E+02 -0.12121130757E+02  0.23018284969E+02  0.53602796370E+02  0.41800000000E+01 0. -1.
        -11    1    1    2    0    0  0.12861935750E+02  0.38071785713E+02 -0.10376544464E+03  0.11127514439E+03  0.00000000000E+00 0.  1.
         11    1    1    2    0    0  0.78216662597E+01 -0.57659541262E+02 -0.12347479577E+03  0.13649844817E+03  0.00000000000E+00 0. -1.
</event>
<event>
 7    1  0.2820496E-009  0.7554191E+02  0.7561462E-02  0.1342201E+00
         -1   -1    0    0    0  501 -0.00000000000E+00  0.00000000000E+00  0.66489798139E+02  0.66489798139E+02  0.00000000000E+00 0.  1.
          1   -1    0    0  501    0  0.00000000000E+00 -0.00000000000E+00 -0.19914277810E+03  0.19914277810E+03  0.00000000000E+00 0. -1.
         25    2    1    2    0    0  0.79971527980E+01  0.10895301469E+02 -0.11519007550E+03  0.17058730310E+03  0.12509441409E+03 0.  0.
          5    1    3    3  502    0 -0.47874056498E+01 -0.37728287310E+02  0.65421419827E+01  0.38815138000E+02  0.41800000000E+01 0.  1.
         -5    1    3    3    0  502  0.12784558448E+02  0.48623588780E+02 -0.12173221749E+03  0.13177216510E+03  0.41800000000E+01 0.  1.
        -11    1    1    2    0    0  0.83780457617E+01 -0.33460575792E+02  0.26147744267E+02  0.43284019145E+02  0.00000000000E+00 0.  1.
         11    1    1    2    0    0 -0.16375198560E+02  0.22565274323E+02 -0.43610648728E+02  0.51761253999E+02  0.00000000000E+00 0. -1.
</event>
<event>
 7    1  0.2820496E-009  0.1014591E+03  0.7561462E-02  0.1277257E+00
         -1   -1    0    0    0  501 -0.00000000000E+00  0.00000000000E+00  0.22987349550E+02  0.22987349550E+02  0.00000000000E+00 0.  1.
          1   -1    0    0  501    0  0.00000000000E+00 -0.00000000000E+00 -0.58846894298E+03  0.58846894298E+03  0.00000000000E+00 0. -1.
         25    2    1    2    0    0  0.20707366032E+02 -0.17573226039E+02 -0.23077678899E+03  0.26390142561E+03  0.12509365621E+03 0.  0.
          5    1    3    3  502    0 -0.49388791116E+02  0.20229926285E+01 -0.57674482895E+02  0.76073409049E+02  0.41800000000E+01 0.  1.
         -5    1    3    3    0  502  0.70096157147E+02 -0.19596218668E+02 -0.17310230609E+03  0.18782801656E+03  0.41800000000E+01 0.  1.
        -11    1    1    2    0    0 -0.46516172619E+01 -0.29917243385E+02 -0.49862741057E+02  0.58334997562E+02  0.00000000000E+00 0.  1.
         11    1    1    2    0    0 -0.16055748770E+02  0.47490469424E+02 -0.28484206339E+03  0.28921986936E+03  0.00000000000E+00 0. -1.
</event>
<event>
 7    1  0.2820496E-009  0.1092202E+03  0.7561462E-02  0.1262021E+00
         -2   -1    0    0    0  501 -0.00000000000E+00  0.00000000000E+00  0.21460488822E+03  0.21460488822E+03  0.00000000000E+00 0.  1.
          2   -1    0    0  501    0  0.00000000000E+00 -0.00000000000E+00 -0.80536351937E+02  0.80536351937E+02  0.00000000000E+00 0. -1.
         25    2    1    2    0    0 -0.59799713810E+02 -0.43690406124E+02  0.67662688789E+02  0.16034168067E+03  0.12508540181E+03 0.  0.
          5    1    3    3  502    0 -0.21381827797E+02 -0.65887921197E+02 -0.10676611028E+02  0.70212984146E+02  0.41800000000E+01 0.  1.
         -5    1    3    3    0  502 -0.38417886012E+02  0.22197515073E+02  0.78339299817E+02  0.90128696523E+02  0.41800000000E+01 0.  1.
        -11    1    1    2    0    0  0.56689832324E+01 -0.20060355041E+02  0.43265027627E+02  0.48025179134E+02  0.00000000000E+00 0.  1.
         11    1    1    2    0    0  0.54130730577E+02  0.63750761165E+02  0.23140819868E+02  0.86774380356E+02  0.00000000000E+00 0. -1.
</event>
<event>
 7    1  0.2820496E-009  0.9916884E+02  0.7561462E-02  0.1282054E+00
         -2   -1    0    0    0  501 -0.00000000000E+00  0.00000000000E+00  0.33273620027E+02  0.33273620027E+02  0.00000000000E+00 0.  1.
          2   -1    0    0  501    0  0.00000000000E+00 -0.00000000000E+00 -0.49050527694E+03  0.49050527694E+03  0.00000000000E+00 0. -1.
         25    2    1    2    0    0 -0.36988481726E+02  0.35255487231E+02 -0.17189926482E+03  0.21865421202E+03  0.12509680263E+03 0.  0.
          5    1    3    3  502    0 -0.64392716283E+02  0.33807478182E+01 -0.16319770714E+03  0.17552440110E+03  0.41800000000E+01 0.  1.
         -5    1    3    3    0  502  0.27404234557E+02  0.31874739413E+02 -0.87015576869E+01  0.43129810925E+02  0.41800000000E+01 0.  1.
        -11    1    1    2    0    0  0.30703844504E+02  0.19493664861E+02 -0.41675390815E+02  0.55313354957E+02  0.00000000000E+00 0.  1.
         11    1    1    2    0    0  0.62846372223E+01 -0.54749152092E+02 -0.24365700128E+03  0.24981132999E+03  0.00000000000E+00 0. -1.
</event>
<event>
 7    1  0.2820496E-009  0.7584732E+02  0.7561462E-02  0.1341267E+00
         -2   -1    0    0    0  501 -0.00000000000E+00  0.00000000000E+00  0.21643204168E+02  0.21643204168E+02  0.00000000000E+00 0. -1.
          2   -1    0    0  501    0  0.00000000000E+00 -0.00000000000E+00 -0.61739473894E+03  0.61739473894E+03  0.00000000000E+00 0.  1.
         25    2    1    2    0    0 -0.68453530025E+01  0.21097050361E+02 -0.42132852774E+03  0.44006508644E+03  0.12509039782E+03 0.  0.
          5    1    3    3  502    0 -0.31010162354E+02 -0.98065964919E+01 -0.38512784382E+03  0.38652131635E+03  0.41800000000E+01 0. -1.
         -5    1    3    3    0  502  0.24164809352E+02  0.30903646853E+02 -0.36200683916E+02  0.53543770094E+02  0.41800000000E+01 0. -1.
        -11    1    1    2    0    0 -0.16882311121E+02 -0.43597318080E+02 -0.42920641798E+02  0.63465896865E+02  0.00000000000E+00 0. -1.
         11    1    1    2    0    0  0.23727664123E+02  0.22500267719E+02 -0.13150236524E+03  0.13550695980E+03  0.00000000000E+00 0.  1.
</event>
<event>
 7    1  0.2820496E-009  0.1275683E+03  0.7561462E-02  0.1231109E+00
         -2   -1    0    0    0  501 -0.00000000000E+00  0.00000000000E+00  0.91010394021E+02  0.91010394021E+02  0.00000000000E+00 0.  1.
          2   -1    0    0  501    0  0.00000000000E+00 -0.00000000000E+00 -0.18092217536E+03  0.18092217536E+03  0.00000000000E+00 0. -1.
         25    2    1    2    0    0 -0.67181460575E+02  0.21480771780E+01 -0.35910245677E+02  0.14647993331E+03  0.12509541253E+03 0.  0.
          5    1    3    3  502    0  0.36911573166E+02 -0.53638365015E+01 -0.81733999075E+01  0.38412391772E+02  0.41800000000E+01 0.  1.
         -5    1    3    3    0  502 -0.10409303374E+03  0.75119136795E+01 -0.27736845769E+02  0.10806754154E+03  0.41800000000E+01 0.  1.
        -11    1    1    2    0    0  0.89845915060E+02 -0.64890319568E+01 -0.41080676033E+02  0.99005140937E+02  0.00000000000E+00 0. -1.
         11    1    1    2    0    0 -0.22664454485E+02  0.43409547787E+01 -0.12920859634E+02  0.26447495139E+02  0.00000000000E+00 0.  1.
</event>
<event>
 7    1  0.2820496E-009  0.1277158E+03  0.7561462E-02  0.1230885E+00
          2   -1    0    0  501    0  0.00000000000E+00  0.00000000000E+00  0.55638776245E+03  0.55638776245E+03  0.00000000000E+00 0. -1.
         -2   -1    0    0    0  501 -0.00000000000E+00 -0.00000000000E+00 -0.41211688747E+02  0.41211688747E+02  0.00000000000E+00 0.  1.
         25    2    1    2    0    0  0.12301855897E+02  0.72496655867E+02  0.12790031574E+03  0.19343101596E+03  0.12509982573E+03 0.  0.
          5    1    3    3  502    0  0.55196434114E+02 -0.55640383662E+01  0.55344134344E+02  0.78473246831E+02  0.41800000000E+01 0.  1.
         -5    1    3    3    0  502 -0.42894578217E+02  0.78060694233E+02  0.72556181401E+02  0.11495776913E+03  0.41800000000E+01 0.  1.
        -11    1    1    2    0    0  0.29201183345E+02 -0.60898019532E+02  0.29024015937E+03  0.29799434223E+03  0.00000000000E+00 0. -1.
         11    1    1    2    0    0 -0.41503039243E+02 -0.11598636335E+02  0.97035598588E+02  0.10617409300E+03  0.00000000000E+00 0.  1.
</event>
<event>
 7    1  0.2820496E-009  0.1195864E+03  0.7561462E-02  0.1243781E+00
         -1   -1    0    0    0  501 -0.00000000000E+00  0.00000000000E+00  0.40942747620E+02  0.40942747620E+02  0.00000000000E+00 0.  1.
          1   -1    0    0  501    0  0.00000000000E+00 -0.00000000000E+00 -0.75022044472E+03  0.75022044472E+03  0.00000000000E+00 0. -1.
         25    2    1    2    0    0  0.65376796501E+02 -0.91163877740E+02 -0.55674933760E+03  0.58155114921E+03  0.12508771363E+03 0.  0.
          5    1    3    3  502    0  0.36882074990E+00 -0.11001734403E+02  0.31617581461E+01  0.12191935990E+02  0.41800000000E+01 0. -1.
         -5    1    3    3    0  502  0.65007975751E+02 -0.80162143338E+02 -0.55991109575E+03  0.56935921322E+03  0.41800000000E+01 0. -1.
        -11    1    1    2    0    0 -0.59990806182E+02  0.38755752064E+02 -0.32375072997E+02  0.78415881657E+02  0.00000000000E+00 0.  1.
         11    1    1    2    0    0 -0.53859903192E+01  0.52408125676E+02 -0.12015328651E+03  0.13119616148E+03  0.00000000000E+00 0. -1.
</event>
<event>
 7    1  0.2820496E-009  0.2355614E+03  0.7561462E-02  0.1122785E+00
         -1   -1    0    0    0  501 -0.00000000000E+00  0.00000000000E+00  0.40048552566E+03  0.40048552566E+03  0.00000000000E+00 0.  1.
          1   -1    0    0  501    0  0.00000000000E+00 -0.00000000000E+00 -0.18333694735E+03  0.18333694735E+03  0.00000000000E+00 0. -1.
         25    2    1    2    0    0  0.74268653024E+02 -0.20874467097E+03 -0.85466754833E+01  0.25458113361E+03  0.12509331497E+03 0.  0.
          5    1    3    3  502    0  0.95315604048E+02 -0.19450319178E+03 -0.32911418367E+02  0.21912824977E+03  0.41800000000E+01 0.  1.
         -5    1    3    3    0  502 -0.21046951024E+02 -0.14241479187E+02  0.24364742884E+02  0.35452883841E+02  0.41800000000E+01 0.  1.
        -11    1    1    2    0    0 -0.44859371016E+02  0.49558136410E+02  0.24932643728E+02  0.71344297429E+02  0.00000000000E+00 0. -1.
         11    1    1    2    0    0 -0.29409282008E+02  0.15918653456E+03  0.20076261006E+03  0.25789704196E+03  0.00000000000E+00 0.  1.
</event>
<event>
 7    1  0.3811591E-009  0.1789435E+03  0.7561462E-02  0.1168829E+00
         -2   -1    0    0    0  501 -0.00000000000E+00  0.00000000000E+00  0.12394823016E+03  0.12394823016E+03  0.00000000000E+00 0.  1.
          2   -1    0    0  501    0  0.00000000000E+00 -0.00000000000E+00 -0.29003042078E+03  0.29003042078E+03  0.00000000000E+00 0. -1.
         25    2    1    2    0    0  0.27127018875E+02  0.15270658231E+03 -0.83807054259E+02  0.21616247076E+03  0.12508963183E+03 0.  0.
          5    1    3    3  502    0 -0.30019523720E+02  0.13238275161E+03 -0.73745138572E+02  0.15453861197E+03  0.41800000000E+01 0. -1.
         -5    1    3    3    0  502  0.57146542595E+02  0.20323830697E+02 -0.10061915688E+02  0.61623858789E+02  0.41800000000E+01 0. -1.
        -11    1    1    2    0    0 -0.25517165514E+02 -0.33730355768E+02  0.14217898968E+02  0.44620749514E+02  0.00000000000E+00 0.  1.
         11    1    1    2    0    0 -0.16098533612E+01 -0.11897622654E+03 -0.96493035329E+02  0.15319543066E+03  0.00000000000E+00 0. -1.
</event>
<event>
 7    1  0.2820496E-009  0.6507131E+02  0.7561462E-02  0.1377703E+00
         -1   -1    0    0    0  501 -0.00000000000E+00  0.00000000000E+00  0.59817618754E+03  0.59817618754E+03  0.00000000000E+00 0.  1.
          1   -1    0    0  501    0  0.00000000000E+00 -0.00000000000E+00 -0.20267353833E+02  0.20267353833E+02  0.00000000000E+00 0. -1.
         25    2    1    2    0    0  0.45256135688E+01  0.11915759757E+02  0.29353069018E+03  0.31932761448E+03  0.12508953904E+03 0.  0.
          5    1    3    3  502    0  0.17588034440E+02  0.20340522478E+02  0.30054164495E+03  0.30177115263E+03  0.41800000000E+01 0. -1.
         -5    1    3    3    0  502 -0.13062420872E+02 -0.84247627211E+01 -0.70109547639E+01  0.17556461848E+02  0.41800000000E+01 0. -1.
        -11    1    1    2    0    0 -0.42929474387E+02  0.78508881432E+01  0.19532440143E+03  0.20014044571E+03  0.00000000000E+00 0.  1.
         11    1    1    2    0    0  0.38403860818E+02 -0.19766647900E+02  0.89053742089E+02  0.98975481181E+02  0.00000000000E+00 0. -1.
</event>
<event>
 7    1  0.2820496E-009  0.1157855E+03  0.7561462E-02  0.1250216E+00
          2   -1    0    0  501    0  0.00000000000E+00  0.00000000000E+00  0.73807299355E+03  0.73807299355E+03  0.00000000000E+00 0. -1.
         -2   -1    0    0    0  501 -0.00000000000E+00 -0.00000000000E+00 -0.27905380121E+02  0.27905380121E+02  0.00000000000E+00 0.  1.
         25    2    1    2    0    0  0.36826904535E+02 -0.56750446774E+02  0.55796415354E+03  0.57580274016E+03  0.12509182563E+03 0.  0.
          5    1    3    3  502    0  0.80122957531E+02 -0.20730495193E+02  0.38627447648E+03  0.39506314095E+03  0.41800000000E+01 0. -1.
         -5    1    3    3    0  502 -0.43296052996E+02 -0.36019951582E+02  0.17168967706E+03  0.18073959922E+03  0.41800000000E+01 0. -1.
        -11    1    1    2    0    0  0.68895172352E+01  0.46917057344E+02  0.21616308491E+02  0.52114686129E+02  0.00000000000E+00 0.  1.
         11    1    1    2    0    0 -0.43716421771E+02  0.98333894307E+01  0.13058715140E+03  0.13806094737E+03  0.00000000000E+00 0. -1.
</event>
<event>
 7    1  0.2820496E-009  0.9753245E+02  0.7561462E-02  0.1285572E+00
         -2   -1    0    0    0  501 -0.00000000000E+00  0.00000000000E+00  0.72879370638E+02  0.72879370638E+02  0.00000000000E+00 0.  1.
          2   -1    0    0  501    0  0.00000000000E+00 -0.00000000000E+00 -0.22792472430E+03  0.22792472430E+03  0.00000000000E+00 0. -1.
         25    2    1    2    0    0  0.59800780664E+02  0.37989180052E+02 -0.91375245140E+02  0.17034541237E+03  0.12509521543E+03 0.  0.
          5    1    3    3  502    0  0.34940869419E+02 -0.33122737815E+02 -0.80814755428E+02  0.94161973275E+02  0.41800000000E+01 0.  1.
         -5    1    3    3    0  502  0.24859911245E+02  0.71111917868E+02 -0.10560489711E+02  0.76183439098E+02  0.41800000000E+01 0.  1.
        -11    1    1    2    0    0 -0.39486584245E+02 -0.29426211709E+02 -0.85986501650E+02  0.99089710550E+02  0.00000000000E+00 0. -1.
         11    1    1    2    0    0 -0.20314196419E+02 -0.85629683431E+01  0.22316393128E+02  0.31368972014E+02  0.00000000000E+00 0.  1.
</event>
<event>
 7    1  0.2820496E-009  0.1135265E+03  0.7561462E-02  0.1254175E+00
         -4   -1    0    0    0  501 -0.00000000000E+00  0.00000000000E+00  0.18576414837E+02  0.18576414837E+02  0.00000000000E+00 0.  1.
          4   -1    0    0  501    0  0.00000000000E+00 -0.00000000000E+00 -0.91715767822E+03  0.91715767822E+03  0.00000000000E+00 0. -1.
         25    2    1    2    0    0 -0.57911161984E+01 -0.64877978383E+02 -0.61070085824E+03  0.62677672584E+03  0.12510330408E+03 0.  0.
          5    1    3    3  502    0  0.51700038814E+02 -0.53047047940E+02 -0.23320856369E+03  0.24472553991E+03  0.41800000000E+01 0. -1.
         -5    1    3    3    0  502 -0.57491155012E+02 -0.11830930443E+02 -0.37749229455E+03  0.38205118593E+03  0.41800000000E+01 0. -1.
        -11    1    1    2    0    0  0.27386399119E+02  0.19144813730E+01 -0.22918451552E+02  0.35762207946E+02  0.00000000000E+00 0.  1.
         11    1    1    2    0    0 -0.21595282920E+02  0.62963497010E+02 -0.26496195359E+03  0.27319515927E+03  0.00000000000E+00 0. -1.
</event>
<event>
 7    1  0.2820496E-009  0.3529875E+03  0.7561462E-02  0.1061395E+00
          1   -1    0    0  501    0  0.00000000000E+00  0.00000000000E+00  0.14144326028E+03  0.14144326028E+03  0.00000000000E+00 0. -1.
         -1   -1    0    0    0  501 -0.00000000000E+00 -0.00000000000E+00 -0.93810862378E+03  0.93810862378E+03  0.00000000000E+00 0.  1.
         25    2    1    2    0    0  0.13126610471E+03 -0.32087761524E+03 -0.37257313373E+03  0.52407238684E+03  0.12509153630E+03 0.  0.
          5    1    3    3  502    0  0.12551302044E+03 -0.29628119794E+03 -0.27531198502E+03  0.42349761280E+03  0.41800000000E+01 0.  1.
         -5    1    3    3    0  502  0.57530842695E+01 -0.24596417304E+02 -0.97261148717E+02  0.10057477404E+03  0.41800000000E+01 0.  1.
        -11    1    1    2    0    0 -0.13475646891E+02  0.15244861930E+03 -0.17237212187E+03  0.23050883493E+03  0.00000000000E+00 0.  1.
         11    1    1    2    0    0 -0.11779045782E+03  0.16842899595E+03 -0.25172010789E+03  0.32497066228E+03  0.00000000000E+00 0. -1.
</event>
<event>
 7    1  0.2820496E-009  0.1169375E+03  0.7561462E-02  0.1248236E+00
         -2   -1    0    0    0  501 -0.00000000000E+00  0.00000000000E+00  0.68785210581E+02  0.68785210581E+02  0.00000000000E+00 0.  1.
          2   -1    0    0  501    0  0.00000000000E+00 -0.00000000000E+00 -0.28653485897E+03  0.28653485897E+03  0.00000000000E+00 0. -1.
         25    2    1    2    0    0  0.38487243045E+02  0.84937601930E+02 -0.89814750533E+02  0.18002417759E+03  0.12508537486E+03 0.  0.
          5    1    3    3  502    0 -0.15113717031E+02  0.56732359275E+02  0.13318233093E+02  0.60347599489E+02  0.41800000000E+01 0. -1.
         -5    1    3    3    0  502  0.53600960075E+02  0.28205242655E+02 -0.10313298363E+03  0.11967657810E+03  0.41800000000E+01 0. -1.
        -11    1    1    2    0    0 -0.57487378280E+02 -0.64188268547E+02 -0.70474609323E+02  0.11131757741E+03  0.00000000000E+00 0.  1.
         11    1    1    2    0    0  0.19000135235E+02 -0.20749333383E+02 -0.57460288538E+02  0.63978314558E+02  0.00000000000E+00 0. -1.
</event>
<event>
 7    1  0.2820496E-009  0.1232426E+03  0.7561462E-02  0.1237842E+00
          1   -1    0    0  501    0  0.00000000000E+00  0.00000000000E+00  0.25022889569E+03  0.25022889569E+03  0.00000000000E+00 0. -1.
         -1   -1    0    0    0  501 -0.00000000000E+00 -0.00000000000E+00 -0.89463099112E+02  0.89463099112E+02  0.00000000000E+00 0.  1.
         25    2    1    2    0    0 -0.37932895931E+02 -0.94489006946E+02  0.10123273864E+03  0.19042808361E+03  0.12509080953E+03 0.  0.
          5    1    3    3  502    0 -0.46624961179E+02 -0.58959816154E+02  0.12549006034E+03  0.14633992814E+03  0.41800000000E+01 0.  1.
         -5    1    3    3    0  502  0.86920652483E+01 -0.35529190791E+02 -0.24257321698E+02  0.44088155468E+02  0.41800000000E+01 0.  1.
        -11    1    1    2    0    0 -0.28494554494E+02  0.35725775784E+02  0.34044393409E+02  0.56985010431E+02  0.00000000000E+00 0. -1.
         11    1    1    2    0    0  0.66427450425E+02  0.58763231161E+02  0.25488664535E+02  0.92278900764E+02  0.00000000000E+00 0.  1.
</event>
<event>
 7    1  0.2820496E-009  0.9659445E+02  0.7561462E-02  0.1287625E+00
          2   -1    0    0  501    0  0.00000000000E+00  0.00000000000E+00  0.77695514217E+03  0.77695514217E+03  0.00000000000E+00 0. -1.
         -2   -1    0    0    0  501 -0.00000000000E+00 -0.00000000000E+00 -0.21168387221E+02  0.21168387221E+02  0.00000000000E+00 0.  1.
         25    2    1    2    0    0  0.42955352970E+02  0.31798064552E+02  0.54889140869E+03  0.56549559049E+03  0.12508878872E+03 0.  0.
          5    1    3    3  502    0 -0.24785935104E+02 -0.64153721867E+01  0.36326875246E+03  0.36419384741E+03  0.41800000000E+01 0. -1.
         -5    1    3    3    0  502  0.67741288075E+02  0.38213436739E+02  0.18562265623E+03  0.20130174307E+03  0.41800000000E+01 0. -1.
        -11    1    1    2    0    0 -0.54378949557E+02  0.12485751553E+01  0.57320833433E+02  0.79020927863E+02  0.00000000000E+00 0.  1.
         11    1    1    2    0    0  0.11423596586E+02 -0.33046639707E+02  0.14957451283E+03  0.15360701105E+03  0.00000000000E+00 0. -1.
</event>
<event>
 7    1  0.2820496E-009  0.3114098E+03  0.7561462E-02  0.1079672E+00
          1   -1    0    0  501    0  0.00000000000E+00  0.00000000000E+00  0.72659947673E+03  0.72659947673E+03  0.00000000000E+00 0. -1.
         -1   -1    0    0    0  501 -0.00000000000E+00 -0.00000000000E+00 -0.17325720074E+03  0.17325720074E+03  0.00000000000E+00 0.  1.
         25    2    1    2    0    0  0.11333589762E+03  0.27843090751E+03  0.86368352239E+02  0.33686173774E+03  0.12509013606E+03 0.  0.
          5    1    3    3  502    0  0.79801311474E+02  0.27693998613E+03  0.92009292456E+02  0.30256765777E+03  0.41800000000E+01 0.  1.
         -5    1    3    3    0  502  0.33534586144E+02  0.14909213777E+01 -0.56409402173E+01  0.34294079969E+02  0.41800000000E+01 0.  1.
        -11    1    1    2    0    0 -0.58115263781E+02 -0.13061349860E+03  0.14078306625E+03  0.20064182426E+03  0.00000000000E+00 0.  1.
         11    1    1    2    0    0 -0.55220633837E+02 -0.14781740891E+03  0.32619085751E+03  0.36235311548E+03  0.00000000000E+00 0. -1.
</event>
<event>
 7    1  0.2820496E-009  0.1185660E+03  0.7561462E-02  0.1245482E+00
          2   -1    0    0  501    0  0.00000000000E+00  0.00000000000E+00  0.63437965288E+03  0.63437965288E+03  0.00000000000E+00 0. -1.
         -2   -1    0    0    0  501 -0.00000000000E+00 -0.00000000000E+00 -0.26797796865E+02  0.26797796865E+02  0.00000000000E+00 0.  1.
         25    2    1    2    0    0 -0.33651915540E+02 -0.53678084287E+02  0.42429753876E+03  0.44686684844E+03  0.12509112952E+03 0.  0.
          5    1    3    3  502    0 -0.73702725811E+02 -0.22127432931E+02  0.15912438609E+03  0.17680429217E+03  0.41800000000E+01 0.  1.
         -5    1    3    3    0  502  0.40050810271E+02 -0.31550651356E+02  0.26517315267E+03  0.27006255627E+03  0.41800000000E+01 0.  1.
        -11    1    1    2    0    0 -0.17650586799E+02 -0.15015157256E+02  0.23657140882E+02  0.33115834226E+02  0.00000000000E+00 0.  1.
         11    1    1    2    0    0  0.51302502339E+02  0.68693241543E+02  0.15962717637E+03  0.18119476708E+03  0.00000000000E+00 0. -1.
</event>
<event>
 7    1  0.2820496E-009  0.1171709E+03  0.7561462E-02  0.1247838E+00
          1   -1    0    0  501    0  0.00000000000E+00  0.00000000000E+00  0.16916703271E+03  0.16916703271E+03  0.00000000000E+00 0. -1.
         -1   -1    0    0    0  501 -0.00000000000E+00 -0.00000000000E+00 -0.12071111965E+03  0.12071111965E+03  0.00000000000E+00 0.  1.
         25    2    1    2    0    0 -0.71880038766E+02  0.59349712052E+01  0.79581091626E+02  0.16487111144E+03  0.12508944554E+03 0.  0.
          5    1    3    3  502    0 -0.76322645939E+02  0.39851898263E+02  0.94346135430E+01  0.86716805817E+02  0.41800000000E+01 0.  1.
         -5    1    3    3    0  502  0.44426071737E+01 -0.33916927058E+02  0.70146478083E+02  0.78154305620E+02  0.41800000000E+01 0.  1.
        -11    1    1    2    0    0 -0.13633671179E+02  0.20101827369E+02  0.10425916834E+02  0.26432181053E+02  0.00000000000E+00 0. -1.
         11    1    1    2    0    0  0.85513709944E+02 -0.26036798574E+02 -0.41551095402E+02  0.98574859866E+02  0.00000000000E+00 0.  1.
</event>
<event>
 7    1  0.2820496E-009  0.8325786E+02  0.7561462E-02  0.1320052E+00
          2   -1    0    0  501    0  0.00000000000E+00  0.00000000000E+00  0.26713833590E+02  0.26713833590E+02  0.00000000000E+00 0. -1.
         -2   -1    0    0    0  501 -0.00000000000E+00 -0.00000000000E+00 -0.56212805273E+03  0.56212805273E+03  0.00000000000E+00 0.  1.
         25    2    1    2    0    0 -0.52035524946E+02 -0.16465118787E+02 -0.32483533691E+03  0.35234109414E+03  0.12508978584E+03 0.  0.
          5    1    3    3  502    0 -0.44282046788E+02  0.88435593589E+01 -0.32224286532E+03  0.32541826141E+03  0.41800000000E+01 0.  1.
         -5    1    3    3    0  502 -0.77534781580E+01 -0.25308678146E+02 -0.25924715849E+01  0.26922832725E+02  0.41800000000E+01 0.  1.
        -11    1    1    2    0    0  0.69011699684E+02  0.27315518924E+02 -0.20085477367E+03  0.21412938232E+03  0.00000000000E+00 0.  1.
         11    1    1    2    0    0 -0.16976174738E+02 -0.10850400137E+02 -0.97241085673E+01  0.22371409864E+02  0.00000000000E+00 0. -1.
</event>
<event>
 6    1  0.2820496E-009  0.1050262E+03  0.7561462E-02  0.1270068E+00
          3   -1    0    0  501    0  0.00000000000E+00  0.00000000000E+00  0.24846913541E+03  0.24846913541E+03  0.00000000000E+00 0. -1.
         -3   -1    0    0    0  501 -0.00000000000E+00 -0.00000000000E+00 -0.74181540050E+02  0.74181540050E+02  0.00000000000E+00 0.  1.
          5    1    1    2  502    0 -0.13029350856E+02 -0.57995625258E+02  0.49535625359E+02  0.77488754749E+02  0.41800000000E+01 0.  1.
         -5    1    1    2    0  502  0.30002598421E+02  0.46837960519E+02  0.13861929491E+03  0.14942132304E+03  0.41800000000E+01 0.  1.
        -11    1    1    2    0    0  0.38411048392E+02  0.78234073818E+01 -0.72235224600E+01  0.39859674087E+02  0.00000000000E+00 0.  1.
         11    1    1    2    0    0 -0.55384295957E+02  0.33342573571E+01 -0.66438024405E+01  0.55880923593E+02  0.00000000000E+00 0. -1.
</event>
<event>
 7    1  0.2820496E-009  0.2589035E+03  0.7561462E-02  0.1107804E+00
         -1   -1    0    0    0  501 -0.00000000000E+00  0.00000000000E+00  0.41450759146E+03  0.41450759146E+03  0.00000000000E+00 0.  1.
          1   -1    0    0  501    0  0.00000000000E+00 -0.00000000000E+00 -0.18915156378E+03  0.18915156378E+03  0.00000000000E+00 0. -1.
         25    2    1    2    0    0 -0.23775659441E+03 -0.33406322268E+02  0.14891185120E+02  0.27113441180E+03  0.12509173160E+03 0.  0.
          5    1    3    3  502    0 -0.22397813886E+03  0.89024464481E+00  0.38179560518E+02  0.22724909343E+03  0.41800000000E+01 0.  1.
         -5    1    3    3    0  502 -0.13778455543E+02 -0.34296566913E+02 -0.23288375398E+02  0.43885318364E+02  0.41800000000E+01 0.  1.
        -11    1    1    2    0    0  0.20359144803E+03 -0.69568254182E+01  0.17763417577E+03  0.27028091966E+03  0.00000000000E+00 0. -1.
         11    1    1    2    0    0  0.34165146377E+02  0.40363147687E+02  0.32830666786E+02  0.62243823788E+02  0.00000000000E+00 0.  1.
</event>
<event>
 7    1  0.2820496E-009  0.1039534E+03  0.7561462E-02  0.1272196E+00
         -2   -1    0    0    0  501 -0.00000000000E+00  0.00000000000E+00  0.15811947964E+03  0.15811947964E+03  0.00000000000E+00 0.  1.
          2   -1    0    0  501    0  0.00000000000E+00 -0.00000000000E+00 -0.89643775749E+02  0.89643775749E+02  0.00000000000E+00 0. -1.
         25    2    1    2    0    0  0.30852588734E+02  0.57220202533E+02  0.39385110467E+02  0.14637272540E+03  0.12509098290E+03 0.  0.
          5    1    3    3  502    0 -0.31021507985E+02 -0.22518642980E+02  0.20273711388E+02  0.43565112335E+02  0.41800000000E+01 0. -1.
         -5    1    3    3    0  502  0.61874096718E+02  0.79738845513E+02  0.19111399080E+02  0.10280761306E+03  0.41800000000E+01 0. -1.
        -11    1    1    2    0    0 -0.26295569536E+01 -0.26438446681E+02  0.48529252840E+02  0.55326254291E+02  0.00000000000E+00 0.  1.
         11    1    1    2    0    0 -0.28223031780E+02 -0.30781755852E+02 -0.19438659415E+02  0.46064275703E+02  0.00000000000E+00 0. -1.
</event>
<event>
 7    1  0.2820496E-009  0.1803942E+03  0.7561462E-02  0.1167422E+00
          1   -1    0    0  501    0  0.00000000000E+00  0.00000000000E+00  0.10472669118E+04  0.10472669118E+04  0.00000000000E+00 0. -1.
         -1   -1    0    0    0  501 -0.00000000000E+00 -0.00000000000E+00 -0.35624145707E+02  0.35624145707E+02  0.00000000000E+00 0.  1.
         25    2    1    2    0    0  0.44976475136E+02  0.15127008683E+03  0.47682132269E+03  0.51760267610E+03  0.12509370108E+03 0.  0.
          5    1    3    3  502    0  0.85601905054E+01  0.14626269319E+03  0.26738018591E+03  0.30491915075E+03  0.41800000000E+01 0.  1.
         -5    1    3    3    0  502  0.36416284631E+02  0.50073936431E+01  0.20944113678E+03  0.21268352535E+03  0.41800000000E+01 0.  1.
        -11    1    1    2    0    0  0.23518737529E+02 -0.45283953961E+02  0.96467385175E+02  0.10913168149E+03  0.00000000000E+00 0.  1.
         11    1    1    2    0    0 -0.68495212665E+02 -0.10598613287E+03  0.43835405825E+03  0.45615669994E+03  0.00000000000E+00 0. -1.
</event>
<event>
 7    1  0.2820496E-009  0.1049853E+03  0.7561462E-02  0.1270149E+00
         -2   -1    0    0    0  501 -0.00000000000E+00  0.00000000000E+00  0.45595952567E+02  0.45595952567E+02  0.00000000000E+00 0.  1.
          2   -1    0    0  501    0  0.00000000000E+00 -0.00000000000E+00 -0.40768119066E+03  0.40768119066E+03  0.00000000000E+00 0. -1.
         25    2    1    2    0    0 -0.37686602663E+02  0.67153381496E+02 -0.16407991104E+03  0.22022413890E+03  0.12508636009E+03 0.  0.
          5    1    3    3  502    0 -0.38416829982E+02  0.17851645411E+02 -0.16533231898E+03  0.17072428700E+03  0.41800000000E+01 0.  1.
         -5    1    3    3    0  502  0.73022731856E+00  0.49301736085E+02  0.12524079443E+01  0.49499851905E+02  0.41800000000E+01 0.  1.
        -11    1    1    2    0    0  0.46319837964E+02  0.37691701498E+01 -0.47512576421E+02  0.66461860874E+02  0.00000000000E+00 0.  1.
         11    1    1    2    0    0 -0.86332353008E+01 -0.70922551646E+02 -0.15049275063E+03  0.16659114345E+03  0.00000000000E+00 0. -1.
</event>
<event>
 7    1  0.3007723E-009  0.2334289E+03  0.7561462E-02  0.1124249E+00
          2   -1    0    0  501    0  0.00000000000E+00  0.00000000000E+00  0.26080243281E+03  0.26080243281E+03  0.00000000000E+00 0. -1.
         -2   -1    0    0    0  501 -0.00000000000E+00 -0.00000000000E+00 -0.22355415090E+03  0.22355415090E+03  0.00000000000E+00 0.  1.
         25    2    1    2    0    0  0.71552913998E+02  0.20299875596E+03  0.22986257723E+02  0.25000829358E+03  0.12508982529E+03 0.  0.
          5    1    3    3  502    0 -0.35354668939E+02  0.55594115152E+02 -0.26727143859E+01  0.66070220656E+02  0.41800000000E+01 0.  1.
         -5    1    3    3    0  502  0.10690758294E+03  0.14740464081E+03  0.25658972109E+02  0.18393807293E+03  0.41800000000E+01 0.  1.
        -11    1    1    2    0    0 -0.63549733482E+02 -0.12435500797E+03 -0.31287722499E+02  0.14311414400E+03  0.00000000000E+00 0.  1.
         11    1    1    2    0    0 -0.80031805161E+01 -0.78643747993E+02  0.45549746681E+02  0.91234146127E+02  0.00000000000E+00 0. -1.
</event>
<event>
 7    1  0.2820496E-009  0.8785268E+02  0.7561462E-02  0.1308137E+00
         -2   -1    0    0    0  501 -0.00000000000E+00  0.00000000000E+00  0.36631810050E+02  0.36631810050E+02  0.00000000000E+00 0. -1.
          2   -1    0    0  501    0  0.00000000000E+00 -0.00000000000E+00 -0.32806406149E+03  0.32806406149E+03  0.00000000000E+00 0.  1.
         25    2    1    2    0    0  0.58202695967E+01 -0.11870586991E+02 -0.16070235811E+03  0.20407655607E+03  0.12508879431E+03 0.  0.
          5    1    3    3  502    0 -0.48698688278E+02 -0.31349013523E+02 -0.11960545484E+03  0.13295585777E+03  0.41800000000E+01 0. -1.
         -5    1    3    3    0  502  0.54518957875E+02  0.19478426532E+02 -0.41096903278E+02  0.71120698302E+02  0.41800000000E+01 0. -1.
        -11    1    1    2    0    0 -0.31066127909E+02  0.14361226127E+02 -0.78045105575E+01  0.35103554011E+02  0.00000000000E+00 0. -1.
         11    1    1    2    0    0  0.25245858313E+02 -0.24906391360E+01 -0.12292538277E+03  0.12551576146E+03  0.00000000000E+00 0.  1.
</event>
<event>
 7    1  0.5652557E-009  0.1195242E+03  0.7561462E-02  0.1243884E+00
          2   -1    0    0  501    0  0.00000000000E+00  0.00000000000E+00  0.77905622989E+03  0.77905622989E+03  0.00000000000E+00 0. -1.
         -2   -1    0    0    0  501 -0.00000000000E+00 -0.00000000000E+00 -0.38322662510E+02  0.38322662510E+02  0.00000000000E+00 0.  1.
         25    2    1    2    0    0  0.10807253851E+03  0.33060353048E+02  0.56198016154E+03  0.58672005170E+03  0.12508419796E+03 0.  0.
          5    1    3    3  502    0  0.76589390092E+02  0.31011231057E+02  0.54382062367E+03  0.55007815286E+03  0.41800000000E+01 0. -1.
         -5    1    3    3    0  502  0.31483148414E+02  0.20491219913E+01  0.18159537875E+02  0.36641898843E+02  0.41800000000E+01 0. -1.
        -11    1    1    2    0    0 -0.68826591756E+02 -0.46434332485E+02  0.16865692246E+03  0.18798511765E+03  0.00000000000E+00 0. -1.
         11    1    1    2    0    0 -0.39245946750E+02  0.13373979436E+02  0.10096483387E+02  0.42673723052E+02  0.00000000000E+00 0.  1.
</event>
<event>
 7    1  0.2820496E-009  0.2469348E+03  0.7561462E-02  0.1115257E+00
          2   -1    0    0  501    0  0.00000000000E+00  0.00000000000E+00  0.18120818738E+03  0.18120818738E+03  0.00000000000E+00 0. -1.
         -2   -1    0    0    0  501 -0.00000000000E+00 -0.00000000000E+00 -0.35767605367E+03  0.35767605367E+03  0.00000000000E+00 0.  1.
         25    2    1    2    0    0 -0.16171582283E+03 -0.16232017089E+03 -0.10310194233E+03  0.28066062537E+03  0.12506210813E+03 0.  0.
          5    1    3    3  502    0 -0.27720405812E+02 -0.10664773813E+03 -0.16142686371E+02  0.11144603927E+03  0.41800000000E+01 0.  1.
         -5    1    3    3    0  502 -0.13399541702E+03 -0.55672432764E+02 -0.86959255960E+02  0.16921458610E+03  0.41800000000E+01 0.  1.
        -11    1    1    2    0    0  0.15599999381E+03  0.12287404634E+03 -0.32650529647E+02  0.20124633268E+03  0.00000000000E+00 0. -1.
         11    1    1    2    0    0  0.57158290186E+01  0.39446124551E+02 -0.40715394317E+02  0.56977282999E+02  0.00000000000E+00 0.  1.
</event>
<event>
 7    1  0.2820496E-009  0.1320401E+03  0.7561462E-02  0.1224460E+00
          2   -1    0    0  501    0  0.00000000000E+00  0.00000000000E+00  0.53184764694E+03  0.53184764694E+03  0.00000000000E+00 0. -1.
         -2   -1    0    0    0  501 -0.00000000000E+00 -0.00000000000E+00 -0.40918752172E+02  0.40918752172E+02  0.00000000000E+00 0.  1.
         25    2    1    2    0    0  0.11766151917E+01 -0.76725873616E+02  0.14106528479E+03  0.20355613800E+03  0.12508973835E+03 0.  0.
          5    1    3    3  502    0 -0.61419924447E+02 -0.45139563112E+02  0.78407993491E+02  0.10943159105E+03  0.41800000000E+01 0. -1.
         -5    1    3    3    0  502  0.62596539639E+02 -0.31586310504E+02  0.62657291299E+02  0.94124546952E+02  0.41800000000E+01 0. -1.
        -11    1    1    2    0    0 -0.44790790815E+02  0.32109315545E+02  0.18014821361E+03  0.18838949534E+03  0.00000000000E+00 0.  1.
         11    1    1    2    0    0  0.43614175623E+02  0.44616558071E+02  0.16971539637E+03  0.18082076577E+03  0.00000000000E+00 0. -1.
</event>
<event>
 7    1  0.2820496E-009  0.1256955E+03  0.7561462E-02  0.1233986E+00
          1   -1    0    0  501    0  0.00000000000E+00  0.00000000000E+00  0.74246549973E+03  0.74246549973E+03  0.00000000000E+00 0. -1.
         -1   -1    0    0    0  501 -0.00000000000E+00 -0.00000000000E+00 -0.22997713258E+02  0.22997713258E+02  0.00000000000E+00 0.  1.
         25    2    1    2    0    0 -0.65418683566E+02  0.28895575334E+02  0.43059499175E+03  0.45406360177E+03  0.12508856503E+03 0.  0.
          5    1    3    3  502    0 -0.10180786233E+03  0.11570096768E+02  0.33168080078E+03  0.34717190840E+03  0.41800000000E+01 0. -1.
         -5    1    3    3    0  502  0.36389178763E+02  0.17325478566E+02  0.98914190965E+02  0.10689169338E+03  0.41800000000E+01 0. -1.
        -11    1    1    2    0    0  0.83685462952E+02 -0.14205789570E+02  0.16745503358E+03  0.18773984510E+03  0.00000000000E+00 0.  1.
         11    1    1    2    0    0 -0.18266779386E+02 -0.14689785764E+02  0.12141776114E+03  0.12365976611E+03  0.00000000000E+00 0. -1.
</event>
<event>
 7    1  0.2820496E-009  0.9797488E+02  0.7561462E-02  0.1284613E+00
          1   -1    0    0  501    0  0.00000000000E+00  0.00000000000E+00  0.24266991547E+03  0.24266991547E+03  0.00000000000E+00 0. -1.
         -1   -1    0    0    0  501 -0.00000000000E+00 -0.00000000000E+00 -0.51220443343E+02  0.51220443343E+02  0.00000000000E+00 0.  1.
         25    2    1    2    0    0  0.30214145186E+02  0.17203673938E+01  0.10588182415E+03  0.16666660753E+03  0.12510372955E+03 0.  0.
          5    1    3    3  502    0  0.75667296876E+02  0.16697119713E+02  0.47193778751E+02  0.90824329208E+02  0.41800000000E+01 0. -1.
         -5    1    3    3    0  502 -0.45453151691E+02 -0.14976752319E+02  0.58688045402E+02  0.75842278326E+02  0.41800000000E+01 0. -1.
        -11    1    1    2    0    0  0.10995165808E+02  0.20668986174E+02 -0.61545402964E+01  0.24207003674E+02  0.00000000000E+00 0.  1.
         11    1    1    2    0    0 -0.41209310994E+02 -0.22389353568E+02  0.91722188267E+02  0.10301674760E+03  0.00000000000E+00 0. -1.
</event>
<event>
 7    1  0.2820496E-009  0.6616405E+02  0.7561462E-02  0.1373646E+00
         -4   -1    0    0    0  501 -0.00000000000E+00  0.00000000000E+00  0.93897655428E+02  0.93897655428E+02  0.00000000000E+00 0. -1.
          4   -1    0    0  501    0  0.00000000000E+00 -0.00000000000E+00 -0.10762379987E+03  0.10762379987E+03  0.00000000000E+00 0.  1.
         25    2    1    2    0    0  0.28893332989E+02  0.14380068470E+02  0.21636948663E+02  0.13098816217E+03  0.12509248587E+03 0.  0.
          5    1    3    3  502    0  0.27757622091E+02 -0.29182858814E+02 -0.38986972600E+02  0.56210152689E+02  0.41800000000E+01 0. -1.
         -5    1    3    3    0  502  0.11357108981E+01  0.43562927285E+02  0.60623921263E+02  0.74778009483E+02  0.41800000000E+01 0. -1.
        -11    1    1    2    0    0 -0.76589635443E+01  0.11974115045E+02 -0.33783671482E+02  0.36652088788E+02  0.00000000000E+00 0.  1.
         11    1    1    2    0    0 -0.21234369445E+02 -0.26354183515E+02 -0.15794216185E+01  0.33881204334E+02  0.00000000000E+00 0. -1.
</event>
<event>
 7    1  0.2820496E-009  0.1326616E+03  0.7561462E-02  0.1223559E+00
         -1   -1    0    0    0  501 -0.00000000000E+00  0.00000000000E+00  0.74544106475E+02  0.74544106475E+02  0.00000000000E+00 0.  1.
          1   -1    0    0  501    0  0.00000000000E+00 -0.00000000000E+00 -0.26566436616E+03  0.26566436616E+03  0.00000000000E+00 0. -1.
         25    2    1    2    0    0 -0.66748484502E+02 -0.43765039963E+02 -0.55950110727E+02  0.15857984287E+03  0.12508562175E+03 0.  0.
          5    1    3    3  502    0 -0.95999263609E+02 -0.41490752613E+01 -0.22126459752E+02  0.98692076988E+02  0.41800000000E+01 0.  1.
         -5    1    3    3    0  502  0.29250779107E+02 -0.39615964702E+02 -0.33823650975E+02  0.59887765887E+02  0.41800000000E+01 0.  1.
        -11    1    1    2    0    0  0.53612382544E+02  0.71303696385E+02 -0.87006366758E+02  0.12461385371E+03  0.00000000000E+00 0. -1.
         11    1    1    2    0    0  0.13136101958E+02 -0.27538656421E+02 -0.48163782197E+02  0.57014776047E+02  0.00000000000E+00 0.  1.
</event>
<event>
 7    1  0.2820496E-009  0.8599214E+02  0.7561462E-02  0.1312858E+00
         -2   -1    0    0    0  501 -0.00000000000E+00  0.00000000000E+00  0.27698749575E+03  0.27698749575E+03  0.00000000000E+00 0.  1.
          2   -1    0    0  501    0  0.00000000000E+00 -0.00000000000E+00 -0.46975424912E+02  0.46975424912E+02  0.00000000000E+00 0. -1.
         25    2    1    2    0    0 -0.16792112936E+02 -0.23012468636E+02  0.10433388749E+03  0.16536405422E+03  0.12509261201E+03 0.  0.
          5    1    3    3  502    0  0.50373534384E+02  0.35803819726E+01  0.20609722295E+02  0.54704160303E+02  0.41800000000E+01 0.  1.
         -5    1    3    3    0  502 -0.67165647320E+02 -0.26592850609E+02  0.83724165194E+02  0.11065989391E+03  0.41800000000E+01 0.  1.
        -11    1    1    2    0    0  0.10027222400E+02 -0.10643269228E+02 -0.10601818539E+02  0.18061642374E+02  0.00000000000E+00 0. -1.
         11    1    1    2    0    0  0.67648905366E+01  0.33655737864E+02  0.13628000189E+03  0.14053722407E+03  0.00000000000E+00 0.  1.
</event>
<event>
 7    1  0.2820496E-009  0.2139748E+03  0.7561462E-02  0.1138456E+00
          2   -1    0    0  501    0  0.00000000000E+00  0.00000000000E+00  0.10208851963E+03  0.10208851963E+03  0.00000000000E+00 0. -1.
         -2   -1    0    0    0  501 -0.00000000000E+00 -0.00000000000E+00 -0.50910980795E+03  0.50910980795E+03  0.00000000000E+00 0.  1.
         25    2    1    2    0    0  0.26382569543E+02  0.19427591821E+03 -0.15433668655E+03  0.27911780990E+03  0.12509103332E+03 0.  0.
          5    1    3    3  502    0 -0.30167714259E+02  0.11520778228E+03 -0.13471982128E+03  0.17986057580E+03  0.41800000000E+01 0. -1.
         -5    1    3    3    0  502  0.56550283802E+02  0.79068135926E+02 -0.19616865262E+02  0.99257234092E+02  0.41800000000E+01 0. -1.
        -11    1    1    2    0    0 -0.28851045186E+02 -0.15612646634E+02 -0.65788361885E+02  0.73513577676E+02  0.00000000000E+00 0.  1.
         11    1    1    2    0    0  0.24684756427E+01 -0.17866327157E+03 -0.18689623988E+03  0.25856694001E+03  0.00000000000E+00 0. -1.
</event>
<event>
 7    1  0.2820496E-009  0.9308301E+02  0.7561462E-02  0.1295553E+00
          1   -1    0    0  501    0  0.00000000000E+00  0.00000000000E+00  0.98147476244E+03  0.98147476244E+03  0.00000000000E+00 0. -1.
         -1   -1    0    0    0  501 -0.00000000000E+00 -0.00000000000E+00 -0.16084511556E+02  0.16084511556E+02  0.00000000000E+00 0.  1.
         25    2    1    2    0    0  0.62945479897E+02 -0.94191234687E+01  0.52024947499E+03  0.53884848634E+03  0.12508925484E+03 0.  0.
          5    1    3    3  502    0  0.42464347767E+02  0.13464474637E+02  0.48139006680E+02  0.65721756464E+02  0.41800000000E+01 0.  1.
         -5    1    3    3    0  502  0.20481132130E+02 -0.22883598106E+02  0.47211046831E+03  0.47312672988E+03  0.41800000000E+01 0.  1.
        -11    1    1    2    0    0 -0.62822407677E+02  0.43458547632E+02  0.32353048769E+03  0.33242634783E+03  0.00000000000E+00 0.  1.
         11    1    1    2    0    0 -0.12307222057E+00 -0.34039424163E+02  0.12161028820E+03  0.12628443982E+03  0.00000000000E+00 0. -1.
</event>
<event>
 7    1  0.2820496E-009  0.1063479E+03  0.7561462E-02  0.1267486E+00
         -1   -1    0    0    0  501 -0.00000000000E+00  0.00000000000E+00  0.17517163315E+02  0.17517163315E+02  0.00000000000E+00 0.  1.
          1   -1    0    0  501    0  0.00000000000E+00 -0.00000000000E+00 -0.15341880559E+04  0.15341880559E+04  0.00000000000E+00 0. -1.
         25    2    1    2    0    0 -0.44047480323E+02  0.29185947592E+02 -0.13367228105E+04  0.13436023243E+04  0.12508930326E+03 0.  0.
          5    1    3    3  502    0 -0.74758605999E+02  0.17270200938E+02 -0.46970841338E+03  0.47595228229E+03  0.41800000000E+01 0.  1.
         -5    1    3    3    0  502  0.30711125677E+02  0.11915746654E+02 -0.86701439710E+03  0.86765004203E+03  0.41800000000E+01 0.  1.
        -11    1    1    2    0    0  0.71188117623E+02 -0.19230493248E+02 -0.14560146252E+03  0.16320951519E+03  0.00000000000E+00 0. -1.
         11    1    1    2    0    0 -0.27140637300E+02 -0.99554543445E+01 -0.34346619567E+02  0.44893379689E+02  0.00000000000E+00 0.  1.
</event>
<event>
 7    1  0.2820496E-009  0.8481708E+02  0.7561462E-02  0.1315912E+00
         -1   -1    0    0    0  501 -0.00000000000E+00  0.00000000000E+00  0.79202920793E+02  0.79202920793E+02  0.00000000000E+00 0.  1.
          1   -1    0    0  501    0  0.00000000000E+00 -0.00000000000E+00 -0.18368577664E+03  0.18368577664E+03  0.00000000000E+00 0. -1.
         25    2    1    2    0    0  0.21501988118E+02  0.19371333866E+02 -0.10793448206E+03  0.16773403977E+03  0.12508905472E+03 0.  0.
          5    1    3    3  502    0 -0.20553038096E+02  0.40063937220E+02  0.48942057709E+01  0.45485954872E+02  0.41800000000E+01 0.  1.
         -5    1    3    3    0  502  0.42055026214E+02 -0.20692603354E+02 -0.11282868783E+03  0.12224808489E+03  0.41800000000E+01 0.  1.
        -11    1    1    2    0    0  0.22217238942E+02  0.10330875595E+02  0.27718827171E+02  0.36995487245E+02  0.00000000000E+00 0.  1.
         11    1    1    2    0    0 -0.43719227060E+02 -0.29702209461E+02 -0.24267200961E+02  0.58159170421E+02  0.00000000000E+00 0. -1.
</event>
<event>
 7    1  0.2820496E-009  0.1060303E+03  0.7561462E-02  0.1268103E+00
          1   -1    0    0  501    0  0.00000000000E+00  0.00000000000E+00  0.15237591658E+02  0.15237591658E+02  0.00000000000E+00 0. -1.
         -1   -1    0    0    0  501 -0.00000000000E+00 -0.00000000000E+00 -0.82840521025E+03  0.82840521025E+03  0.00000000000E+00 0.  1.
         25    2    1    2    0    0 -0.76673025459E+01  0.28280166688E+02 -0.53424112717E+03  0.54947205617E+03  0.12508958067E+03 0.  0.
          5    1    3    3  502    0 -0.26364347431E+02  0.70175804863E+02 -0.41308783899E+03  0.41985563891E+03  0.41800000000E+01 0.  1.
         -5    1    3    3    0  502  0.18697044885E+02 -0.41895638174E+02 -0.12115328818E+03  0.12961641725E+03  0.41800000000E+01 0.  1.
        -11    1    1    2    0    0  0.41816816046E+02 -0.36812444232E+02 -0.20257310672E+03  0.21009442096E+03  0.00000000000E+00 0. -1.
         11    1    1    2    0    0 -0.34149513500E+02  0.85322775440E+01 -0.76353384703E+02  0.84076324777E+02  0.00000000000E+00 0.  1.
</event>
<event>
 7    1  0.2820496E-009  0.8515953E+02  0.7561462E-02  0.1315016E+00
         -1   -1    0    0    0  501 -0.00000000000E+00  0.00000000000E+00  0.40000723168E+03  0.40000723168E+03  0.00000000000E+00 0.  1.
          1   -1    0    0  501    0  0.00000000000E+00 -0.00000000000E+00 -0.66026214836E+02  0.66026214836E+02  0.00000000000E+00 0. -1.
         25    2    1    2    0    0  0.67426236220E+02  0.45441542730E+02  0.29859492577E+03  0.33379249439E+03  0.12508904222E+03 0.  0.
          5    1    3    3  502    0  0.57892592044E+02  0.33166339394E+02  0.47085039661E+02  0.81768157875E+02  0.41800000000E+01 0.  1.
         -5    1    3    3    0  502  0.95336441761E+01  0.12275203336E+02  0.25150988611E+03  0.25202433652E+03  0.41800000000E+01 0.  1.
        -11    1    1    2    0    0 -0.90314680466E+01  0.48996242826E+01  0.52307684597E+02  0.53307294070E+02  0.00000000000E+00 0.  1.
         11    1    1    2    0    0 -0.58394768173E+02 -0.50341167013E+02 -0.16921593520E+02  0.78933658052E+02  0.00000000000E+00 0. -1.
</event>
<event>
 7    1  0.2820496E-009  0.1410920E+03  0.7561462E-02  0.1211867E+00
         -2   -1    0    0    0  501 -0.00000000000E+00  0.00000000000E+00  0.28835013052E+03  0.28835013052E+03  0.00000000000E+00 0. -1.
          2   -1    0    0  501    0  0.00000000000E+00 -0.00000000000E+00 -0.10433829661E+03  0.10433829661E+03  0.00000000000E+00 0.  1.
         25    2    1    2    0    0 -0.29244649035E+02  0.12661642415E+03  0.13658343182E+03  0.22625299357E+03  0.12509362449E+03 0.  0.
          5    1    3    3  502    0 -0.17434267694E+02  0.22032771833E+02 -0.21963546024E+02  0.35906357078E+02  0.41800000000E+01 0. -1.
         -5    1    3    3    0  502 -0.11810381341E+02  0.10458365232E+03  0.15854697784E+03  0.19034663649E+03  0.41800000000E+01 0. -1.
        -11    1    1    2    0    0  0.42895275220E+02 -0.12774063796E+03  0.60311462966E+02  0.14763179802E+03  0.00000000000E+00 0. -1.
         11    1    1    2    0    0 -0.13650626185E+02  0.11242138053E+01 -0.12883060877E+02  0.18803635539E+02  0.00000000000E+00 0.  1.
</event>
<event>
 7    1  0.2820496E-009  0.1061754E+03  0.7561462E-02  0.1267821E+00
          1   -1    0    0  501    0  0.00000000000E+00  0.00000000000E+00  0.21013182952E+03  0.21013182952E+03  0.00000000000E+00 0.  1.
         -1   -1    0    0    0  501 -0.00000000000E+00 -0.00000000000E+00 -0.77295927381E+02  0.77295927381E+02  0.00000000000E+00 0. -1.
         25    2    1    2    0    0 -0.25713800279E+02 -0.15003795850E+02  0.74736580399E+01  0.12880057819E+03  0.12508964771E+03 0.  0.
          5    1    3    3  502    0  0.24185499997E+02 -0.50793302132E+02  0.29209591719E+02  0.63526141076E+02  0.41800000000E+01 0. -1.
         -5    1    3    3    0  502 -0.49899300277E+02  0.35789506283E+02 -0.21735933679E+02  0.65274437117E+02  0.41800000000E+01 0. -1.
        -11    1    1    2    0    0  0.38036261463E+02 -0.29547935217E+02  0.44979888317E+02  0.65901654112E+02  0.00000000000E+00 0.  1.
         11    1    1    2    0    0 -0.12322461183E+02  0.44551731067E+02  0.80382355784E+02  0.92725524598E+02  0.00000000000E+00 0. -1.
</event>
<event>
 7    1  0.2820496E-009  0.9277859E+02  0.7561462E-02  0.1296259E+00
         -1   -1    0    0    0  501 -0.00000000000E+00  0.00000000000E+00  0.36665810217E+03  0.36665810217E+03  0.00000000000E+00 0.  1.
          1   -1    0    0  501    0  0.00000000000E+00 -0.00000000000E+00 -0.35214638784E+02  0.35214638784E+02  0.00000000000E+00 0. -1.
         25    2    1    2    0    0 -0.34614447256E+02  0.27467363010E+01  0.18207832309E+03  0.22361944517E+03  0.12508971180E+03 0.  0.
          5    1    3    3  502    0  0.49275158749E+01  0.49598692142E+02  0.14124407339E+03  0.14983881788E+03  0.41800000000E+01 0.  1.
         -5    1    3    3    0  502 -0.39541963131E+02 -0.46851955841E+02  0.40834249698E+02  0.73780627286E+02  0.41800000000E+01 0.  1.
        -11    1    1    2    0    0 -0.17830197458E+02 -0.11071217635E+02  0.11043169827E+03  0.11240839730E+03  0.00000000000E+00 0.  1.
         11    1    1    2    0    0  0.52444644714E+02  0.83244813336E+01  0.38933442023E+02  0.65844898484E+02  0.00000000000E+00 0. -1.
</event>
<event>
 7    1  0.2820496E-009  0.1739291E+03  0.7561462E-02  0.1173811E+00
          2   -1    0    0  501    0  0.00000000000E+00  0.00000000000E+00  0.95269585513E+03  0.95269585513E+03  0.00000000000E+00 0. -1.
         -2   -1    0    0    0  501 -0.00000000000E+00 -0.00000000000E+00 -0.41608522797E+02  0.41608522797E+02  0.00000000000E+00 0.  1.
         25    2    1    2    0    0  0.77156889421E+02  0.14516802436E+03  0.41745201026E+03  0.46576967108E+03  0.12509302438E+03 0.  0.
          5    1    3    3  502    0  0.44620621134E+02  0.37340136581E+02  0.37245889516E+02  0.69209929317E+02  0.41800000000E+01 0. -1.
         -5    1    3    3    0  502  0.32536268288E+02  0.10782788778E+03  0.38020612074E+03  0.39655974176E+03  0.41800000000E+01 0. -1.
        -11    1    1    2    0    0 -0.60399961779E+02 -0.45161456291E+02  0.30704815617E+03  0.31617444983E+03  0.00000000000E+00 0. -1.
         11    1    1    2    0    0 -0.16756927643E+02 -0.10000656807E+03  0.18658716590E+03  0.21236025701E+03  0.00000000000E+00 0.  1.
</event>
<event>
 7    1  0.4725316E-009  0.1569858E+03  0.7561462E-02  0.1192142E+00
         -2   -1    0    0    0  501 -0.00000000000E+00  0.00000000000E+00  0.26737683126E+02  0.26737683126E+02  0.00000000000E+00 0. -1.
          2   -1    0    0  501    0  0.00000000000E+00 -0.00000000000E+00 -0.12381939515E+04  0.12381939515E+04  0.00000000000E+00 0.  1.
         25    2    1    2    0    0 -0.24751105733E+02 -0.14188917066E+03 -0.56438041427E+03  0.59574996085E+03  0.12509040672E+03 0.  0.
          5    1    3    3  502    0 -0.54581130584E-01 -0.20599457718E+02 -0.32992195983E+03  0.33059085380E+03  0.41800000000E+01 0. -1.
         -5    1    3    3    0  502 -0.24696524602E+02 -0.12128971294E+03 -0.23445845444E+03  0.26515910705E+03  0.41800000000E+01 0. -1.
        -11    1    1    2    0    0 -0.28292024852E+02  0.92121299385E+02 -0.41145923422E+03  0.42259374569E+03  0.00000000000E+00 0.  1.
         11    1    1    2    0    0  0.53043130585E+02  0.49767871272E+02 -0.23561661984E+03  0.24658792805E+03  0.00000000000E+00 0. -1.
</event>
<event>
 7    1  0.2820496E-009  0.1365039E+03  0.7561462E-02  0.1218112E+00
          2   -1    0    0  501    0  0.00000000000E+00  0.00000000000E+00  0.91624014464E+03  0.91624014464E+03  0.00000000000E+00 0. -1.
         -2   -1    0    0    0  501 -0.00000000000E+00 -0.00000000000E+00 -0.25624055786E+02  0.25624055786E+02  0.00000000000E+00 0.  1.
         25    2    1    2    0    0 -0.94561777511E+02 -0.12000206156E+02  0.32271277852E+03  0.35899405523E+03  0.12508900653E+03 0.  0.
          5    1    3    3  502    0  0.23880127123E+02 -0.83495681283E+01  0.13169046730E+03  0.13416343517E+03  0.41800000000E+01 0.  1.
         -5    1    3    3    0  502 -0.11844190463E+03 -0.36506380276E+01  0.19102231123E+03  0.22483062006E+03  0.41800000000E+01 0.  1.
        -11    1    1    2    0    0  0.16930012833E+02  0.42220839823E+02  0.25724505339E+03  0.26123598937E+03  0.00000000000E+00 0.  1.
         11    1    1    2    0    0  0.77631764679E+02 -0.30220633667E+02  0.31065825694E+03  0.32163415582E+03  0.00000000000E+00 0. -1.
</event>
<event>
 7    1  0.2820496E-009  0.1135882E+03  0.7561462E-02  0.1254066E+00
         -2   -1    0    0    0  501 -0.00000000000E+00  0.00000000000E+00  0.38410294971E+02  0.38410294971E+02  0.00000000000E+00 0.  1.
          2   -1    0    0  501    0  0.00000000000E+00 -0.00000000000E+00 -0.58048814212E+03  0.58048814212E+03  0.00000000000E+00 0. -1.
         25    2    1    2    0    0  0.43149611440E+02 -0.55353328793E+02 -0.44745729529E+03  0.46988367933E+03  0.12508701378E+03 0.  0.
          5    1    3    3  502    0  0.70713591588E+02 -0.40422102223E+02 -0.42047443221E+03  0.42831131076E+03  0.41800000000E+01 0.  1.
         -5    1    3    3    0  502 -0.27563980148E+02 -0.14931226570E+02 -0.26982863080E+02  0.41572368569E+02  0.41800000000E+01 0.  1.
        -11    1    1    2    0    0 -0.61812480146E+02  0.67654189055E+02 -0.83811701483E+02  0.12418644573E+03  0.00000000000E+00 0. -1.
         11    1    1    2    0    0  0.18662868705E+02 -0.12300860262E+02 -0.10808850370E+02  0.24828312021E+02  0.00000000000E+00 0.  1.
</event>
<event>
 7    1  0.2820496E-009  0.1365635E+03  0.7561462E-02  0.1218029E+00
          2   -1    0    0  501    0  0.00000000000E+00  0.00000000000E+00  0.27907973083E+03  0.27907973083E+03  0.00000000000E+00 0.  1.
         -2   -1    0    0    0  501 -0.00000000000E+00 -0.00000000000E+00 -0.10566283742E+03  0.10566283742E+03  0.00000000000E+00 0. -1.
         25    2    1    2    0    0  0.10935542555E+03 -0.18998260201E+02  0.10263604358E+02  0.16754622783E+03  0.12508738505E+03 0.  0.
          5    1    3    3  502    0  0.17645359708E+02  0.46117886262E+02  0.22318389244E+02  0.54348882702E+02  0.41800000000E+01 0. -1.
         -5    1    3    3    0  502  0.91710065837E+02 -0.65116146463E+02 -0.12054784886E+02  0.11319734513E+03  0.41800000000E+01 0. -1.
        -11    1    1    2    0    0 -0.47462309998E+02  0.94291368114E+01  0.14368074456E+03  0.15161047407E+03  0.00000000000E+00 0.  1.
         11    1    1    2    0    0 -0.61893115547E+02  0.95691233894E+01  0.19472544492E+02  0.65585866340E+02  0.00000000000E+00 0. -1.
</event>
<event>
 7    1  0.2820496E-009  0.1015003E+03  0.7561462E-02  0.1277172E+00
         -1   -1    0    0    0  501 -0.00000000000E+00  0.00000000000E+00  0.10668629836E+03  0.10668629836E+03  0.00000000000E+00 0.  1.
          1   -1    0    0  501    0  0.00000000000E+00 -0.00000000000E+00 -0.21874484551E+03  0.21874484551E+03  0.00000000000E+00 0. -1.
         25    2    1    2    0    0  0.14593817496E+02 -0.65197163973E+02 -0.14855439016E+03  0.20537715850E+03  0.12509084978E+03 0.  0.
          5    1    3    3  502    0  0.14343682909E+02 -0.94158134215E+02 -0.61291104198E+02  0.11333828714E+03  0.41800000000E+01 0. -1.
         -5    1    3    3    0  502  0.25013458691E+00  0.28960970242E+02 -0.87263285960E+02  0.92038871360E+02  0.41800000000E+01 0. -1.
        -11    1    1    2    0    0  0.95374911203E+01  0.47574847179E+02  0.63406243108E+02  0.79841602476E+02  0.00000000000E+00 0.  1.
         11    1    1    2    0    0 -0.24131308616E+02  0.17622316794E+02 -0.26910400102E+02  0.40212382898E+02  0.00000000000E+00 0. -1.
</event>
<event>
 7    1  0.2820496E-009  0.1355116E+03  0.7561462E-02  0.1219499E+00
          2   -1    0    0  501    0  0.00000000000E+00  0.00000000000E+00  0.96703597994E+03  0.96703597994E+03  0.00000000000E+00 0. -1.
         -2   -1    0    0    0  501 -0.00000000000E+00 -0.00000000000E+00 -0.32137288452E+02  0.32137288452E+02  0.00000000000E+00 0.  1.
         25    2    1    2    0    0 -0.91544364758E+02 -0.85698619408E+02  0.65372213050E+03  0.67729224118E+03  0.12509009541E+03 0.  0.
          5    1    3    3  502    0 -0.37656116888E+02 -0.82592482319E+02  0.19211304197E+03  0.21251916283E+03  0.41800000000E+01 0. -1.
         -5    1    3    3    0  502 -0.53888247870E+02 -0.31061370894E+01  0.46160908853E+03  0.46477307835E+03  0.41800000000E+01 0. -1.
        -11    1    1    2    0    0  0.59599835307E+02  0.47446811740E+02  0.65330722921E+02  0.10035658260E+03  0.00000000000E+00 0.  1.
         11    1    1    2    0    0  0.31944529450E+02  0.38251807669E+02  0.21584583806E+03  0.22152444461E+03  0.00000000000E+00 0. -1.
</event>
<event>
 7    1  0.2820496E-009  0.1335595E+03  0.7561462E-02  0.1222268E+00
          1   -1    0    0  501    0  0.00000000000E+00  0.00000000000E+00  0.33220886055E+02  0.33220886055E+02  0.00000000000E+00 0. -1.
         -1   -1    0    0    0  501 -0.00000000000E+00 -0.00000000000E+00 -0.61039927316E+03  0.61039927316E+03  0.00000000000E+00 0.  1.
         25    2    1    2    0    0 -0.99362987857E+01  0.76927531873E+02 -0.42555389234E+03  0.45028705338E+03  0.12508293236E+03 0.  0.
          5    1    3    3  502    0  0.20578548107E+02  0.10404220932E+03 -0.30879822270E+03  0.32653035495E+03  0.41800000000E+01 0. -1.
         -5    1    3    3    0  502 -0.30514846893E+02 -0.27114677447E+02 -0.11675566964E+03  0.12375669843E+03  0.41800000000E+01 0. -1.
        -11    1    1    2    0    0 -0.29828447318E+02 -0.74333460927E+02 -0.10045595835E+03  0.12847801077E+03  0.00000000000E+00 0.  1.
         11    1    1    2    0    0  0.39764746104E+02 -0.25940709456E+01 -0.51168536412E+02  0.64855095061E+02  0.00000000000E+00 0. -1.
</event>
<event>
 7    1  0.2820496E-009  0.1934757E+03  0.7561462E-02  0.1155363E+00
         -1   -1    0    0    0  501 -0.00000000000E+00  0.00000000000E+00  0.47665221621E+02  0.47665221621E+02  0.00000000000E+00 0.  1.
          1   -1    0    0  501    0  0.00000000000E+00 -0.00000000000E+00 -0.81907044610E+03  0.81907044610E+03  0.00000000000E+00 0. -1.
         25    2    1    2    0    0 -0.74960200768E+02 -0.14224988118E+03 -0.47437068591E+03  0.51626524919E+03  0.12509276347E+03 0.  0.
          5    1    3    3  502    0 -0.55799029360E+02 -0.16365609384E+03 -0.42709750932E+03  0.46078910967E+03  0.41800000000E+01 0.  1.
         -5    1    3    3    0  502 -0.19161171408E+02  0.21406212659E+02 -0.47273176591E+02  0.55476139512E+02  0.41800000000E+01 0.  1.
        -11    1    1    2    0    0  0.92017777543E+02  0.14031325856E+03 -0.25720228886E+03  0.30709623785E+03  0.00000000000E+00 0. -1.
         11    1    1    2    0    0 -0.17057576775E+02  0.19366226266E+01 -0.39832249714E+02  0.43374180683E+02  0.00000000000E+00 0.  1.
</event>
<event>
 7    1  0.2820496E-009  0.1459939E+03  0.7561462E-02  0.1205484E+00
         -1   -1    0    0    0  501 -0.00000000000E+00  0.00000000000E+00  0.32248205690E+02  0.32248205690E+02  0.00000000000E+00 0.  1.
          1   -1    0    0  501    0  0.00000000000E+00 -0.00000000000E+00 -0.84835735328E+03  0.84835735328E+03  0.00000000000E+00 0. -1.
         25    2    1    2    0    0  0.72386022107E+02  0.97964365565E+02 -0.36220768966E+03  0.40209496143E+03  0.12509674033E+03 0.  0.
          5    1    3    3  502    0  0.33001851998E+02  0.95898308863E+02 -0.12231744447E+03  0.15894853727E+03  0.41800000000E+01 0. -1.
         -5    1    3    3    0  502  0.39384170109E+02  0.20660567018E+01 -0.23989024519E+03  0.24314642416E+03  0.41800000000E+01 0. -1.
        -11    1    1    2    0    0  0.12573787565E+02 -0.53450579457E+02 -0.18716858929E+03  0.19505677480E+03  0.00000000000E+00 0. -1.
         11    1    1    2    0    0 -0.84959809672E+02 -0.44513786107E+02 -0.26673286864E+03  0.28345382274E+03  0.00000000000E+00 0.  1.
</event>
<event>
 7    1  0.2820496E-009  0.1337273E+03  0.7561462E-02  0.1222028E+00
         -2   -1    0    0    0  501 -0.00000000000E+00  0.00000000000E+00  0.17336889363E+03  0.17336889363E+03  0.00000000000E+00 0.  1.
          2   -1    0    0  501    0  0.00000000000E+00 -0.00000000000E+00 -0.14032134616E+03  0.14032134616E+03  0.00000000000E+00 0. -1.
         25    2    1    2    0    0  0.10306936764E+03  0.18497900671E+02  0.69392271622E+02  0.17728033420E+03  0.12509021808E+03 0.  0.
          5    1    3    3  502    0  0.19996198123E+02  0.63548142826E+02  0.41739919912E+02  0.78726791566E+02  0.41800000000E+01 0. -1.
         -5    1    3    3    0  502  0.83073169515E+02 -0.45050242155E+02  0.27652351710E+02  0.98553542638E+02  0.41800000000E+01 0. -1.
        -11    1    1    2    0    0 -0.33039250074E+02  0.21192960343E+01  0.24653490954E+02  0.41278058062E+02  0.00000000000E+00 0.  1.
         11    1    1    2    0    0 -0.70030117563E+02 -0.20617196705E+02 -0.60998215110E+02  0.95131847520E+02  0.00000000000E+00 0. -1.
</event>
<event>
 7    1  0.2927060E-009  0.1818378E+03  0.7561462E-02  0.1166036E+00
         -1   -1    0    0    0  501 -0.00000000000E+00  0.00000000000E+00  0.36091492127E+02  0.36091492127E+02  0.00000000000E+00 0.  1.
          1   -1    0    0  501    0  0.00000000000E+00 -0.00000000000E+00 -0.11993855532E+04  0.11993855532E+04  0.00000000000E+00 0. -1.
         25    2    1    2    0    0 -0.16685982781E+03  0.23757857225E+02 -0.44625761519E+03  0.49315028407E+03  0.12507879774E+03 0.  0.
          5    1    3    3  502    0 -0.16455263151E+03  0.28661454536E+02 -0.45343136392E+03  0.48323547231E+03  0.41800000000E+01 0. -1.
         -5    1    3    3    0  502 -0.23071962941E+01 -0.49035973115E+01  0.71737487286E+01  0.99148117559E+01  0.41800000000E+01 0. -1.
        -11    1    1    2    0    0  0.95309289106E+02 -0.56785836623E+02 -0.47499253348E+03  0.48777699689E+03  0.00000000000E+00 0. -1.
         11    1    1    2    0    0  0.71550538700E+02  0.33027979398E+02 -0.24204391240E+03  0.25454976437E+03  0.00000000000E+00 0.  1.
</event>
<event>
 7    1  0.2820496E-009  0.1024960E+03  0.7561462E-02  0.1275133E+00
          2   -1    0    0  501    0  0.00000000000E+00  0.00000000000E+00  0.43479173258E+02  0.43479173258E+02  0.00000000000E+00 0. -1.
         -2   -1    0    0    0  501 -0.00000000000E+00 -0.00000000000E+00 -0.31577082044E+03  0.31577082044E+03  0.00000000000E+00 0.  1.
         25    2    1    2    0    0  0.35543068840E+02 -0.23895612287E+02 -0.13534849894E+03  0.18921361562E+03  0.12509302995E+03 0.  0.
          5    1    3    3  502    0  0.45670369991E+02  0.26353402526E+02 -0.12638736733E+03  0.13700920969E+03  0.41800000000E+01 0.  1.
         -5    1    3    3    0  502 -0.10127301152E+02 -0.50249014814E+02 -0.89611316077E+01  0.52204405926E+02  0.41800000000E+01 0.  1.
        -11    1    1    2    0    0  0.24803973862E+02  0.31225371569E+02 -0.58389136811E+02  0.70707511952E+02  0.00000000000E+00 0.  1.
         11    1    1    2    0    0 -0.60347042702E+02 -0.73297592814E+01 -0.78554011435E+02  0.99328866129E+02  0.00000000000E+00 0. -1.
</event>
<event>
 7    1  0.2820496E-009  0.1250556E+03  0.7561462E-02  0.1234982E+00
          2   -1    0    0  501    0  0.00000000000E+00  0.00000000000E+00  0.48845993917E+03  0.48845993917E+03  0.00000000000E+00 0.  1.
         -2   -1    0    0    0  501 -0.00000000000E+00 -0.00000000000E+00 -0.37026642248E+02  0.37026642248E+02  0.00000000000E+00 0. -1.
         25    2    1    2    0    0  0.78685429378E+02  0.94492286735E+01  0.22319395877E+03  0.26784910666E+03  0.12508763322E+03 0.  0.
          5    1    3    3  502    0  0.10575045360E+03 -0.19558370895E+02  0.15208319031E+03  0.18631279474E+03  0.41800000000E+01 0.  1.
         -5    1    3    3    0  502 -0.27065024227E+02  0.29007599569E+02  0.71110768462E+02  0.81536311913E+02  0.41800000000E+01 0.  1.
        -11    1    1    2    0    0 -0.32965569069E+02  0.28188516464E+02  0.35636694175E+02  0.56136397963E+02  0.00000000000E+00 0. -1.
         11    1    1    2    0    0 -0.45719860309E+02 -0.37637745138E+02  0.19260264397E+03  0.20150107680E+03  0.00000000000E+00 0.  1.
</event>
<event>
 7    1  0.2820496E-009  0.1119838E+03  0.7561462E-02  0.1256940E+00
          2   -1    0    0  501    0  0.00000000000E+00  0.00000000000E+00  0.48699638472E+03  0.48699638472E+03  0.00000000000E+00 0. -1.
         -2   -1    0    0    0  501 -0.00000000000E+00 -0.00000000000E+00 -0.33727045449E+02  0.33727045449E+02  0.00000000000E+00 0.  1.
         25    2    1    2    0    0 -0.62196923595E+02  0.27465141151E+02  0.26580395434E+03  0.30153334967E+03  0.12509127682E+03 0.  0.
          5    1    3    3  502    0 -0.17522873765E+02  0.69468926726E+02  0.19493035903E+03  0.20772168918E+03  0.41800000000E+01 0. -1.
         -5    1    3    3    0  502 -0.44674049830E+02 -0.42003785575E+02  0.70873595312E+02  0.93811660487E+02  0.41800000000E+01 0. -1.
        -11    1    1    2    0    0  0.18226301764E+02  0.19301969345E+02  0.67206482609E+01  0.27384871912E+02  0.00000000000E+00 0. -1.
         11    1    1    2    0    0  0.43970621831E+02 -0.46767110496E+02  0.18074473666E+03  0.19180520859E+03  0.00000000000E+00 0.  1.
</event>
<event>
 7    1  0.2820496E-009  0.9941894E+02  0.7561462E-02  0.1281523E+00
          2   -1    0    0  501    0  0.00000000000E+00  0.00000000000E+00  0.56813534899E+02  0.56813534899E+02  0.00000000000E+00 0. -1.
         -2   -1    0    0    0  501 -0.00000000000E+00 -0.00000000000E+00 -0.23057386820E+03  0.23057386820E+03  0.00000000000E+00 0.  1.
         25    2    1    2    0    0  0.58820307867E+01  0.34503180845E+01 -0.54771269837E+02  0.13672540020E+03  0.12508972811E+03 0.  0.
          5    1    3    3  502    0 -0.53324505812E+02  0.24029637800E+02 -0.43237117110E+02  0.72854973124E+02  0.41800000000E+01 0.  1.
         -5    1    3    3    0  502  0.59206536599E+02 -0.20579319716E+02 -0.11534152727E+02  0.63870427078E+02  0.41800000000E+01 0.  1.
        -11    1    1    2    0    0  0.19659819158E+02 -0.32943529535E+02 -0.10032868193E+03  0.10741335599E+03  0.00000000000E+00 0.  1.
         11    1    1    2    0    0 -0.25541849945E+02  0.29493211450E+02 -0.18660381535E+02  0.43248646907E+02  0.00000000000E+00 0. -1.
</event>
<event>
 7    1  0.2820496E-009  0.1302782E+03  0.7561462E-02  0.1227044E+00
          4   -1    0    0  501    0  0.00000000000E+00  0.00000000000E+00  0.12580706733E+03  0.12580706733E+03  0.00000000000E+00 0. -1.
         -4   -1    0    0    0  501 -0.00000000000E+00 -0.00000000000E+00 -0.13958152176E+03  0.13958152176E+03  0.00000000000E+00 0.  1.
         25    2    1    2    0    0  0.74944524848E+02  0.10164292751E+02 -0.17892336428E+02  0.14726541045E+03  0.12508785217E+03 0.  0.
          5    1    3    3  502    0 -0.31867776886E+02  0.15401505894E+02 -0.18682629650E+02  0.40240211705E+02  0.41800000000E+01 0.  1.
         -5    1    3    3    0  502  0.10681230173E+03 -0.52372131433E+01  0.79029322223E+00  0.10702519875E+03  0.41800000000E+01 0.  1.
        -11    1    1    2    0    0 -0.94855504830E+02  0.14044783377E+01  0.57310530505E+01  0.95038856922E+02  0.00000000000E+00 0. -1.
         11    1    1    2    0    0  0.19910979982E+02 -0.11568771088E+02 -0.16131710433E+01  0.23084321717E+02  0.00000000000E+00 0.  1.
</event>
<event>
 7    1  0.2820496E-009  0.1005538E+03  0.7561462E-02  0.1279136E+00
          2   -1    0    0  501    0  0.00000000000E+00  0.00000000000E+00  0.52353267226E+03  0.52353267226E+03  0.00000000000E+00 0.  1.
         -2   -1    0    0    0  501 -0.00000000000E+00 -0.00000000000E+00 -0.26052397618E+02  0.26052397618E+02  0.00000000000E+00 0. -1.
         25    2    1    2    0    0 -0.18155351729E+02 -0.28797894661E+01  0.30527214824E+03  0.33041418867E+03  0.12507814197E+03 0.  0.
          5    1    3    3  502    0 -0.59508540427E+02 -0.15898262451E+02  0.80432153639E+02  0.10139440257E+03  0.41800000000E+01 0.  1.
         -5    1    3    3    0  502  0.41353188698E+02  0.13018472985E+02  0.22483999460E+03  0.22901978610E+03  0.41800000000E+01 0.  1.
        -11    1    1    2    0    0 -0.29538276147E+02  0.29036234536E+02  0.40188339055E+02  0.57712349370E+02  0.00000000000E+00 0. -1.
         11    1    1    2    0    0  0.47693627877E+02 -0.26156445070E+02  0.15201978735E+03  0.16145853184E+03  0.00000000000E+00 0.  1.
</event>
<event>
 7    1  0.2820496E-009  0.1548731E+03  0.7561462E-02  0.1194610E+00
          1   -1    0    0  501    0  0.00000000000E+00  0.00000000000E+00  0.15593710262E+03  0.15593710262E+03  0.00000000000E+00 0. -1.
         -1   -1    0    0    0  501 -0.00000000000E+00 -0.00000000000E+00 -0.21846717781E+03  0.21846717781E+03  0.00000000000E+00 0.  1.
         25    2    1    2    0    0  0.10208187191E+03 -0.54495313534E+02  0.62013732329E+02  0.18133797825E+03  0.12508921451E+03 0.  0.
          5    1    3    3  502    0 -0.25266116046E+02 -0.17225451465E+02 -0.70991984322E+01  0.31669603985E+02  0.41800000000E+01 0. -1.
         -5    1    3    3    0  502  0.12734798796E+03 -0.37269862069E+02  0.69112930761E+02  0.14966837426E+03  0.41800000000E+01 0. -1.
        -11    1    1    2    0    0  0.12509764120E+02  0.24758999909E+02 -0.13913205969E+02  0.31033523409E+02  0.00000000000E+00 0.  1.
         11    1    1    2    0    0 -0.11459163603E+03  0.29736313625E+02 -0.11063060155E+03  0.16203277877E+03  0.00000000000E+00 0. -1.
</event>
<event>
 7    1  0.2820496E-009  0.1523301E+03  0.7561462E-02  0.1197639E+00
          1   -1    0    0  501    0  0.00000000000E+00  0.00000000000E+00  0.21115446734E+03  0.21115446734E+03  0.00000000000E+00 0. -1.
         -1   -1    0    0    0  501 -0.00000000000E+00 -0.00000000000E+00 -0.12092111791E+03  0.12092111791E+03  0.00000000000E+00 0.  1.
         25    2    1    2    0    0 -0.58203732703E+01  0.11681619805E+03  0.50747238209E+02  0.17861502697E+03  0.12509254495E+03 0.  0.
          5    1    3    3  502    0  0.56563120502E+02  0.76437211386E+02  0.40673450072E+02  0.10350766071E+03  0.41800000000E+01 0.  1.
         -5    1    3    3    0  502 -0.62383493772E+02  0.40378986665E+02  0.10073788137E+02  0.75107366261E+02  0.41800000000E+01 0.  1.
        -11    1    1    2    0    0 -0.81079148997E+01 -0.12039627827E+03  0.10527075034E+02  0.12112729426E+03  0.00000000000E+00 0.  1.
         11    1    1    2    0    0  0.13928288170E+02  0.35800802195E+01  0.28959036185E+02  0.32333264025E+02  0.00000000000E+00 0. -1.
</event>
<event>
 7    1  0.2820496E-009  0.9637932E+02  0.7561462E-02  0.1288099E+00
         -1   -1    0    0    0  501 -0.00000000000E+00  0.00000000000E+00  0.27274201375E+03  0.27274201375E+03  0.00000000000E+00 0.  1.
          1   -1    0    0  501    0  0.00000000000E+00 -0.00000000000E+00 -0.60341642765E+02  0.60341642765E+02  0.00000000000E+00 0. -1.
         25    2    1    2    0    0 -0.69213961841E+02  0.77673721698E+01  0.15899824521E+03  0.21395801467E+03  0.12508671183E+03 0.  0.
          5    1    3    3  502    0 -0.36538297182E+02  0.50106873809E+02  0.20523965673E+02  0.65455721910E+02  0.41800000000E+01 0. -1.
         -5    1    3    3    0  502 -0.32675664659E+02 -0.42339501639E+02  0.13847427954E+03  0.14850229276E+03  0.41800000000E+01 0. -1.
        -11    1    1    2    0    0  0.52007987817E+02 -0.20134317903E+02 -0.59678021325E+01  0.56087754603E+02  0.00000000000E+00 0. -1.
         11    1    1    2    0    0  0.17205974025E+02  0.12366945733E+02  0.59369927909E+02  0.63037887249E+02  0.00000000000E+00 0.  1.
</event>
<event>
 7    1  0.2820496E-009  0.9904106E+02  0.7561462E-02  0.1282325E+00
          2   -1    0    0  501    0  0.00000000000E+00  0.00000000000E+00  0.49908704458E+03  0.49908704458E+03  0.00000000000E+00 0. -1.
         -2   -1    0    0    0  501 -0.00000000000E+00 -0.00000000000E+00 -0.34770205273E+02  0.34770205273E+02  0.00000000000E+00 0.  1.
         25    2    1    2    0    0 -0.15569912982E+02  0.67725962891E+02  0.30687966915E+03  0.33859903303E+03  0.12507975694E+03 0.  0.
          5    1    3    3  502    0  0.37513264063E+02  0.64995226243E+02  0.24812536041E+03  0.25925911998E+03  0.41800000000E+01 0. -1.
         -5    1    3    3    0  502 -0.53083177045E+02  0.27307366483E+01  0.58754308734E+02  0.79339913049E+02  0.41800000000E+01 0. -1.
        -11    1    1    2    0    0  0.93325314500E+01 -0.48564480239E+02  0.16611359203E+03  0.17331858049E+03  0.00000000000E+00 0. -1.
         11    1    1    2    0    0  0.62373815322E+01 -0.19161482652E+02 -0.86764218735E+01  0.21939636330E+02  0.00000000000E+00 0.  1.
</event>
<event>
 7    1  0.2820496E-009  0.2506898E+03  0.7561462E-02  0.1112870E+00
          2   -1    0    0  501    0  0.00000000000E+00  0.00000000000E+00  0.88908482817E+02  0.88908482817E+02  0.00000000000E+00 0. -1.
         -2   -1    0    0    0  501 -0.00000000000E+00 -0.00000000000E+00 -0.75953394852E+03  0.75953394852E+03  0.00000000000E+00 0.  1.
         25    2    1    2    0    0  0.21798032646E+03  0.77500102117E+02 -0.41350883129E+03  0.49006317099E+03  0.12510263570E+03 0.  0.
          5    1    3    3  502    0  0.14668387648E+03 -0.33565574008E+01 -0.17581122454E+03  0.22902944171E+03  0.41800000000E+01 0. -1.
         -5    1    3    3    0  502  0.71296449974E+02  0.80856659518E+02 -0.23769760675E+03  0.26103372928E+03  0.41800000000E+01 0. -1.
        -11    1    1    2    0    0 -0.10057665497E+03 -0.81185461129E+02 -0.16193483307E+03  0.20719467365E+03  0.00000000000E+00 0.  1.
         11    1    1    2    0    0 -0.11740367148E+03  0.36853590118E+01 -0.95181801339E+02  0.15118458670E+03  0.00000000000E+00 0. -1.
</event>
<event>
 7    1  0.2820496E-009  0.1340167E+03  0.7561462E-02  0.1221615E+00
          2   -1    0    0  501    0  0.00000000000E+00  0.00000000000E+00  0.10022392672E+04  0.10022392672E+04  0.00000000000E+00 0. -1.
         -2   -1    0    0    0  501 -0.00000000000E+00 -0.00000000000E+00 -0.30703730723E+02  0.30703730723E+02  0.00000000000E+00 0.  1.
         25    2    1    2    0    0  0.12790323069E+03 -0.10943393811E+02  0.65516516378E+03  0.67924703609E+03  0.12512453763E+03 0.  0.
          5    1    3    3  502    0  0.10476791971E+03  0.81938833577E+01  0.22889659516E+03  0.25190192615E+03  0.41800000000E+01 0.  1.
         -5    1    3    3    0  502  0.23135310981E+02 -0.19137277169E+02  0.42626856862E+03  0.42734510994E+03  0.41800000000E+01 0.  1.
        -11    1    1    2    0    0 -0.49408467137E+02  0.20462875275E+02  0.23192485562E+03  0.23801063956E+03  0.00000000000E+00 0. -1.
         11    1    1    2    0    0 -0.78494763557E+02 -0.95194814644E+01  0.84445517054E+02  0.11568532225E+03  0.00000000000E+00 0.  1.
</event>
<event>
 7    1  0.2820496E-009  0.1366528E+03  0.7561462E-02  0.1217905E+00
          2   -1    0    0  501    0  0.00000000000E+00  0.00000000000E+00  0.96677957598E+03  0.96677957598E+03  0.00000000000E+00 0. -1.
         -2   -1    0    0    0  501 -0.00000000000E+00 -0.00000000000E+00 -0.23385248132E+02  0.23385248132E+02  0.00000000000E+00 0.  1.
         25    2    1    2    0    0 -0.42703326207E+02  0.82969729966E+02  0.61581772971E+03  0.63528480237E+03  0.12509098182E+03 0.  0.
          5    1    3    3  502    0  0.43014715028E+02  0.24120596168E+02  0.25514059200E+03  0.25989663898E+03  0.41800000000E+01 0.  1.
         -5    1    3    3    0  502 -0.85718041235E+02  0.58849133799E+02  0.36067713771E+03  0.37538816339E+03  0.41800000000E+01 0.  1.
        -11    1    1    2    0    0 -0.21084384188E+02 -0.11722315057E+02  0.15973784695E+02  0.28933125036E+02  0.00000000000E+00 0.  1.
         11    1    1    2    0    0  0.63787710395E+02 -0.71247414910E+02  0.31160281345E+03  0.32594689671E+03  0.00000000000E+00 0. -1.
</event>
<event>
 7    1  0.2981795E-009  0.1065088E+03  0.7561462E-02  0.1267175E+00
         -2   -1    0    0    0  501 -0.00000000000E+00  0.00000000000E+00  0.65187949987E+02  0.65187949987E+02  0.00000000000E+00 0.  1.
          2   -1    0    0  501    0  0.00000000000E+00 -0.00000000000E+00 -0.24065920717E+03  0.24065920717E+03  0.00000000000E+00 0. -1.
         25    2    1    2    0    0  0.41389042500E+02  0.47075111529E+02 -0.90248814801E+02  0.16649741765E+03  0.12508965804E+03 0.  0.
          5    1    3    3  502    0  0.70274750285E+02 -0.19082287026E+01 -0.83262020423E+02  0.10905144799E+03  0.41800000000E+01 0. -1.
         -5    1    3    3    0  502 -0.28885707785E+02  0.48983340232E+02 -0.69867943779E+01  0.57445969660E+02  0.41800000000E+01 0. -1.
        -11    1    1    2    0    0 -0.65647311098E+01 -0.50182916896E+02 -0.38174695518E+01  0.50754250231E+02  0.00000000000E+00 0. -1.
         11    1    1    2    0    0 -0.34824311390E+02  0.31078053669E+01 -0.81404972831E+02  0.88595489273E+02  0.00000000000E+00 0.  1.
</event>
<event>
 7    1  0.2820496E-009  0.1464770E+03  0.7561462E-02  0.1204870E+00
          1   -1    0    0  501    0  0.00000000000E+00  0.00000000000E+00  0.82729944477E+03  0.82729944477E+03  0.00000000000E+00 0. -1.
         -1   -1    0    0    0  501 -0.00000000000E+00 -0.00000000000E+00 -0.32380132069E+02  0.32380132069E+02  0.00000000000E+00 0.  1.
         25    2    1    2    0    0 -0.11559602080E+03 -0.30132310877E+02  0.47275716156E+03  0.50340580511E+03  0.12509066564E+03 0.  0.
          5    1    3    3  502    0 -0.13175622235E+03 -0.22268370512E+02  0.28560528002E+03  0.31534652500E+03  0.41800000000E+01 0. -1.
         -5    1    3    3    0  502  0.16160201551E+02 -0.78639403647E+01  0.18715188154E+03  0.18805928011E+03  0.41800000000E+01 0. -1.
        -11    1    1    2    0    0  0.27918069235E+02 -0.24804016540E+02  0.35560612814E+02  0.51567577120E+02  0.00000000000E+00 0.  1.
         11    1    1    2    0    0  0.87677951567E+02  0.54936327417E+02  0.28660153833E+03  0.30470619461E+03  0.00000000000E+00 0. -1.
</event>
<event>
 6    1  0.2820496E-009  0.9810763E+02  0.7561462E-02  0.1284326E+00
          1   -1    0    0  501    0  0.00000000000E+00  0.00000000000E+00  0.36183843476E+03  0.36183843476E+03  0.00000000000E+00 0. -1.
         -1   -1    0    0    0  501 -0.00000000000E+00 -0.00000000000E+00 -0.39305194178E+02  0.39305194178E+02  0.00000000000E+00 0.  1.
          5    1    1    2  502    0  0.38297062754E+02 -0.72415628288E+01  0.16233236046E+03  0.16699812245E+03  0.41800000000E+01 0.  1.
         -5    1    1    2    0  502 -0.68853485688E+02  0.93819262610E+01  0.70812488516E+02  0.99301077344E+02  0.41800000000E+01 0.  1.
        -11    1    1    2    0    0  0.18755608671E+02  0.39711029083E+02  0.11112306356E+02  0.45301457372E+02  0.00000000000E+00 0.  1.
         11    1    1    2    0    0  0.11800814263E+02 -0.41851392515E+02  0.78276085252E+02  0.89542971780E+02  0.00000000000E+00 0. -1.
</event>
<event>
 7    1  0.2820496E-009  0.2047569E+03  0.7561462E-02  0.1145787E+00
          1   -1    0    0  501    0  0.00000000000E+00  0.00000000000E+00  0.38788479930E+03  0.38788479930E+03  0.00000000000E+00 0. -1.
         -1   -1    0    0    0  501 -0.00000000000E+00 -0.00000000000E+00 -0.15668303450E+03  0.15668303450E+03  0.00000000000E+00 0.  1.
         25    2    1    2    0    0  0.68877352701E+01  0.19520582489E+03  0.23348171559E+03  0.32911039482E+03  0.12508871049E+03 0.  0.
          5    1    3    3  502    0 -0.20217472522E+02  0.41833455183E+02  0.13964193515E+03  0.14722814479E+03  0.41800000000E+01 0.  1.
         -5    1    3    3    0  502  0.27105207792E+02  0.15337236971E+03  0.93839780448E+02  0.18188225003E+03  0.41800000000E+01 0.  1.
        -11    1    1    2    0    0 -0.32893573698E+02 -0.15966991683E+03 -0.26559468908E+02  0.16517225832E+03  0.00000000000E+00 0.  1.
         11    1    1    2    0    0  0.26005838428E+02 -0.35535908067E+02  0.24279518112E+02  0.50285180662E+02  0.00000000000E+00 0. -1.
</event>
<event>
 7    1  0.2820496E-009  0.1648260E+03  0.7561462E-02  0.1183353E+00
         -1   -1    0    0    0  501 -0.00000000000E+00  0.00000000000E+00  0.31253995076E+02  0.31253995076E+02  0.00000000000E+00 0.  1.
          1   -1    0    0  501    0  0.00000000000E+00 -0.00000000000E+00 -0.10407222096E+04  0.10407222096E+04  0.00000000000E+00 0. -1.
         25    2    1    2    0    0 -0.48081635184E+00  0.13621272793E+03 -0.67620027137E+03  0.70103395450E+03  0.12509060688E+03 0.  0.
          5    1    3    3  502    0 -0.42920845552E+02  0.12947770592E+03 -0.43189340874E+03  0.45294156823E+03  0.41800000000E+01 0. -1.
         -5    1    3    3    0  502  0.42440029201E+02  0.67350220011E+01 -0.24430686263E+03  0.24809238628E+03  0.41800000000E+01 0. -1.
        -11    1    1    2    0    0  0.28317814125E+02 -0.34916496070E+02 -0.42841689504E+02  0.62100488357E+02  0.00000000000E+00 0.  1.
         11    1    1    2    0    0 -0.27836997774E+02 -0.10129623185E+03 -0.29042625368E+03  0.30884176184E+03  0.00000000000E+00 0. -1.
</event>
<event>
 7    1  0.2820496E-009  0.1196717E+03  0.7561462E-02  0.1243640E+00
         -2   -1    0    0    0  501 -0.00000000000E+00  0.00000000000E+00  0.66699249002E+02  0.66699249002E+02  0.00000000000E+00 0.  1.
          2   -1    0    0  501    0  0.00000000000E+00 -0.00000000000E+00 -0.29152926941E+03  0.29152926941E+03  0.00000000000E+00 0. -1.
         25    2    1    2    0    0  0.19936824919E+02 -0.84764708710E+02 -0.71165849062E+02  0.16820992268E+03  0.12508983646E+03 0.  0.
          5    1    3    3  502    0  0.58239800259E+02 -0.17262688765E+02  0.27500803671E+01  0.60950062344E+02  0.41800000000E+01 0.  1.
         -5    1    3    3    0  502 -0.38302975340E+02 -0.67502019944E+02 -0.73915929429E+02  0.10725986034E+03  0.41800000000E+01 0.  1.
        -11    1    1    2    0    0  0.34228498129E+01  0.75537059026E+02 -0.71370384303E+02  0.10397737707E+03  0.00000000000E+00 0.  1.
         11    1    1    2    0    0 -0.23359674732E+02  0.92276496834E+01 -0.82293787045E+02  0.86041218659E+02  0.00000000000E+00 0. -1.
</event>
<event>
 7    1  0.2820496E-009  0.1262677E+03  0.7561462E-02  0.1233101E+00
          1   -1    0    0  501    0  0.00000000000E+00  0.00000000000E+00  0.13130098825E+04  0.13130098825E+04  0.00000000000E+00 0. -1.
         -1   -1    0    0    0  501 -0.00000000000E+00 -0.00000000000E+00 -0.12264041922E+02  0.12264041922E+02  0.00000000000E+00 0.  1.
         25    2    1    2    0    0  0.33026655459E+02  0.55753483047E+02  0.75400941795E+03  0.76705735707E+03  0.12509027074E+03 0.  0.
          5    1    3    3  502    0 -0.41211716552E+02  0.50663990936E+02  0.30950113696E+03  0.31634422981E+03  0.41800000000E+01 0.  1.
         -5    1    3    3    0  502  0.74238372010E+02  0.50894921102E+01  0.44450828100E+03  0.45071312726E+03  0.41800000000E+01 0.  1.
        -11    1    1    2    0    0 -0.20938609406E+02 -0.81485695619E+02  0.40026031289E+03  0.40900692174E+03  0.00000000000E+00 0. -1.
         11    1    1    2    0    0 -0.12088046053E+02  0.25732212573E+02  0.14647610977E+03  0.14920964565E+03  0.00000000000E+00 0.  1.
</event>
<event>
 7    1  0.2820496E-009  0.1062576E+03  0.7561462E-02  0.1267662E+00
          1   -1    0    0  501    0  0.00000000000E+00  0.00000000000E+00  0.16964055510E+03  0.16964055510E+03  0.00000000000E+00 0. -1.
         -1   -1    0    0    0  501 -0.00000000000E+00 -0.00000000000E+00 -0.16163791950E+03  0.16163791950E+03  0.00000000000E+00 0.  1.
         25    2    1    2    0    0  0.27790799977E+02 -0.93088501956E+02  0.82478043679E+02  0.17857014900E+03  0.12508746007E+03 0.  0.
          5    1    3    3  502    0  0.37341288833E+01 -0.86111358103E+02 -0.60174862913E+01  0.86503134361E+02  0.41800000000E+01 0.  1.
         -5    1    3    3    0  502  0.24056671093E+02 -0.69771438531E+01  0.88495529970E+02  0.92067014642E+02  0.41800000000E+01 0.  1.
        -11    1    1    2    0    0 -0.32809251223E+02  0.71581319284E+02 -0.94423809356E+02  0.12294790771E+03  0.00000000000E+00 0.  1.
         11    1    1    2    0    0  0.50184512467E+01  0.21507182672E+02  0.19948401281E+02  0.29760417892E+02  0.00000000000E+00 0. -1.
</event>
<event>
 7    1  0.2820496E-009  0.5744204E+03  0.7561462E-02  0.9959944E-01
         -1   -1    0    0    0  501 -0.00000000000E+00  0.00000000000E+00  0.63689341873E+03  0.63689341873E+03  0.00000000000E+00 0.  1.
          1   -1    0    0  501    0  0.00000000000E+00 -0.00000000000E+00 -0.15100729945E+04  0.15100729945E+04  0.00000000000E+00 0. -1.
         25    2    1    2    0    0  0.17062162419E+03 -0.54688938934E+03  0.42537866293E+03  0.72442639751E+03  0.12508739235E+03 0.  0.
          5    1    3    3  502    0  0.17075150805E+03 -0.49677596423E+03  0.34129396656E+03  0.62645149864E+03  0.41800000000E+01 0.  1.
         -5    1    3    3    0  502 -0.12988386155E+00 -0.50113425113E+02  0.84084696368E+02  0.97974898875E+02  0.41800000000E+01 0.  1.
        -11    1    1    2    0    0 -0.26138621055E+02  0.62216880291E+02 -0.90523416076E+02  0.11290994891E+03  0.00000000000E+00 0. -1.
         11    1    1    2    0    0 -0.14448300313E+03  0.48467250905E+03 -0.12080348227E+04  0.13096300668E+04  0.00000000000E+00 0.  1.
</event>
<event>
 7    1  0.2820496E-009  0.1264803E+03  0.7561462E-02  0.1232774E+00
          2   -1    0    0  501    0  0.00000000000E+00  0.00000000000E+00  0.22632357761E+03  0.22632357761E+03  0.00000000000E+00 0. -1.
         -2   -1    0    0    0  501 -0.00000000000E+00 -0.00000000000E+00 -0.84045849785E+02  0.84045849785E+02  0.00000000000E+00 0.  1.
         25    2    1    2    0    0  0.88265941075E+02  0.55946209662E+01  0.79990066617E+02  0.17282245519E+03  0.12508802550E+03 0.  0.
          5    1    3    3  502    0 -0.21942064097E+02 -0.63454378696E+01 -0.14267479366E+02  0.27253479155E+02  0.41800000000E+01 0. -1.
         -5    1    3    3    0  502  0.11020800517E+03  0.11940058836E+02  0.94257545983E+02  0.14556897603E+03  0.41800000000E+01 0. -1.
        -11    1    1    2    0    0 -0.34889105638E+02  0.36751055368E+02  0.43721250691E+02  0.66928600201E+02  0.00000000000E+00 0. -1.
         11    1    1    2    0    0 -0.53376835436E+02 -0.42345676334E+02  0.18566410520E+02  0.70618372008E+02  0.00000000000E+00 0.  1.
</event>
<event>
 7    1  0.2820496E-009  0.1103685E+03  0.7561462E-02  0.1259889E+00
         -2   -1    0    0    0  501 -0.00000000000E+00  0.00000000000E+00  0.32739411114E+02  0.32739411114E+02  0.00000000000E+00 0.  1.
          2   -1    0    0  501    0  0.00000000000E+00 -0.00000000000E+00 -0.79578920626E+03  0.79578920626E+03  0.00000000000E+00 0. -1.
         25    2    1    2    0    0 -0.19304319084E+02  0.67161637982E+02 -0.64261373369E+03  0.65839561380E+03  0.12509608787E+03 0.  0.
          5    1    3    3  502    0  0.11174979101E+02  0.96047339127E+02 -0.51408162670E+03  0.52311314534E+03  0.41800000000E+01 0.  1.
         -5    1    3    3    0  502 -0.30479298184E+02 -0.28885701145E+02 -0.12853210699E+03  0.13528246847E+03  0.41800000000E+01 0.  1.
        -11    1    1    2    0    0  0.27783162791E+02 -0.21024401279E+02  0.59285053489E+01  0.35342280055E+02  0.00000000000E+00 0.  1.
         11    1    1    2    0    0 -0.84788437073E+01 -0.46137236703E+02 -0.12636456680E+03  0.13479072351E+03  0.00000000000E+00 0. -1.
</event>
<event>
 7    1  0.2820496E-009  0.1446412E+03  0.7561462E-02  0.1207217E+00
         -2   -1    0    0    0  501 -0.00000000000E+00  0.00000000000E+00  0.46305545166E+03  0.46305545166E+03  0.00000000000E+00 0.  1.
          2   -1    0    0  501    0  0.00000000000E+00 -0.00000000000E+00 -0.65262885891E+02  0.65262885891E+02  0.00000000000E+00 0. -1.
         25    2    1    2    0    0  0.13104203714E+03 -0.23767491011E+01  0.27410116808E+03  0.32857083469E+03  0.12509867558E+03 0.  0.
          5    1    3    3  502    0  0.29487347722E+02 -0.39859690692E+02  0.17434227212E+03  0.18130360963E+03  0.41800000000E+01 0. -1.
         -5    1    3    3    0  502  0.10155468941E+03  0.37482941591E+02  0.99758895962E+02  0.14726722506E+03  0.41800000000E+01 0. -1.
        -11    1    1    2    0    0 -0.16136714267E+02  0.22143666060E+01  0.71877951532E+02  0.73700318067E+02  0.00000000000E+00 0.  1.
         11    1    1    2    0    0 -0.11490532287E+03  0.16238249515E+00  0.51813446151E+02  0.12604718479E+03  0.00000000000E+00 0. -1.
</event>
<event>
 7    1  0.2820496E-009  0.1030693E+03  0.7561462E-02  0.1273971E+00
          2   -1    0    0  501    0  0.00000000000E+00  0.00000000000E+00  0.45947410233E+03  0.45947410233E+03  0.00000000000E+00 0. -1.
         -2   -1    0    0    0  501 -0.00000000000E+00 -0.00000000000E+00 -0.43477358264E+02  0.43477358264E+02  0.00000000000E+00 0.  1.
         25    2    1    2    0    0  0.71191797688E+02 -0.49921332856E+02  0.18709070143E+03  0.24126830697E+03  0.12508818431E+03 0.  0.
          5    1    3    3  502    0  0.58636790722E+02 -0.57285368989E+02  0.36352238202E+02  0.89771066323E+02  0.41800000000E+01 0. -1.
         -5    1    3    3    0  502  0.12555006966E+02  0.73640361330E+01  0.15073846322E+03  0.15149724064E+03  0.41800000000E+01 0. -1.
        -11    1    1    2    0    0 -0.26892749289E+02  0.57956277316E+02  0.19534689793E+03  0.20552995056E+03  0.00000000000E+00 0. -1.
         11    1    1    2    0    0 -0.44299048398E+02 -0.80349444598E+01  0.33559144711E+02  0.56153203072E+02  0.00000000000E+00 0.  1.
</event>
<event>
 7    1  0.2820496E-009  0.6509151E+02  0.7561462E-02  0.1377628E+00
          1   -1    0    0  501    0  0.00000000000E+00  0.00000000000E+00  0.28569559684E+03  0.28569559684E+03  0.00000000000E+00 0. -1.
         -1   -1    0    0    0  501 -0.00000000000E+00 -0.00000000000E+00 -0.47115410147E+02  0.47115410147E+02  0.00000000000E+00 0.  1.
         25    2    1    2    0    0  0.35866346966E+02  0.20356112563E+02  0.14090111198E+03  0.19287995584E+03  0.12509511519E+03 0.  0.
          5    1    3    3  502    0  0.18432837941E+02 -0.22441352457E+02  0.14343987153E+03  0.14640987999E+03  0.41800000000E+01 0. -1.
         -5    1    3    3    0  502  0.17433509025E+02  0.42797465020E+02 -0.25387595545E+01  0.46470075846E+02  0.41800000000E+01 0. -1.
        -11    1    1    2    0    0 -0.28359713341E+02 -0.30613775442E+02  0.11274446160E+03  0.12021975798E+03  0.00000000000E+00 0. -1.
         11    1    1    2    0    0 -0.75066336250E+01  0.10257662879E+02 -0.15065386887E+02  0.19711293163E+02  0.00000000000E+00 0.  1.
</event>
<event>
 7    1  0.2820496E-009  0.1195442E+03  0.7561462E-02  0.1243851E+00
          2   -1    0    0  501    0  0.00000000000E+00  0.00000000000E+00  0.75586412646E+03  0.75586412646E+03  0.00000000000E+00 0.  1.
         -2   -1    0    0    0  501 -0.00000000000E+00 -0.00000000000E+00 -0.32938230098E+02  0.32938230098E+02  0.00000000000E+00 0. -1.
         25    2    1    2    0    0 -0.73545649648E+02  0.21399209316E+02  0.60001592529E+03  0.61768498342E+03  0.12509492151E+03 0.  0.
          5    1    3    3  502    0 -0.98959810288E+02 -0.84194277453E+01  0.50724295628E+03  0.51689149723E+03  0.41800000000E+01 0.  1.
         -5    1    3    3    0  502  0.25414160639E+02  0.29818637061E+02  0.92772969015E+02  0.10079348618E+03  0.41800000000E+01 0.  1.
        -11    1    1    2    0    0  0.53249810705E+02  0.17794522053E+02  0.11255678250E+03  0.12578241786E+03  0.00000000000E+00 0.  1.
         11    1    1    2    0    0  0.20295838943E+02 -0.39193731369E+02  0.10353188565E+02  0.45334955282E+02  0.00000000000E+00 0. -1.
</event>
<event>
 7    1  0.2820496E-009  0.1227996E+03  0.7561462E-02  0.1238549E+00
          1   -1    0    0  501    0  0.00000000000E+00  0.00000000000E+00  0.13258579474E+04  0.13258579474E+04  0.00000000000E+00 0. -1.
         -1   -1    0    0    0  501 -0.00000000000E+00 -0.00000000000E+00 -0.23582752159E+02  0.23582752159E+02  0.00000000000E+00 0.  1.
         25    2    1    2    0    0 -0.10635264101E+03 -0.32755419626E+02  0.10127320131E+04  0.10264781644E+04  0.12508992767E+03 0.  0.
          5    1    3    3  502    0 -0.20754929131E+02 -0.22619930510E+02  0.73489126066E+03  0.73554406104E+03  0.41800000000E+01 0. -1.
         -5    1    3    3    0  502 -0.85597711879E+02 -0.10135489116E+02  0.27784075239E+03  0.29093410338E+03  0.41800000000E+01 0. -1.
        -11    1    1    2    0    0  0.10368769355E+03  0.46989737110E+02  0.28632831877E+03  0.30812834877E+03  0.00000000000E+00 0. -1.
         11    1    1    2    0    0  0.26649474596E+01 -0.14234317484E+02  0.32148634549E+01  0.14834186403E+02  0.00000000000E+00 0.  1.
</event>
<event>
 7    1  0.2820496E-009  0.1027998E+03  0.7561462E-02  0.1274516E+00
          2   -1    0    0  501    0  0.00000000000E+00  0.00000000000E+00  0.52472077335E+02  0.52472077335E+02  0.00000000000E+00 0. -1.
         -2   -1    0    0    0  501 -0.00000000000E+00 -0.00000000000E+00 -0.25464160708E+03  0.25464160708E+03  0.00000000000E+00 0.  1.
         25    2    1    2    0    0 -0.87346466520E+01  0.24759705872E+02 -0.11047009665E+03  0.16893491647E+03  0.12508407837E+03 0.  0.
          5    1    3    3  502    0 -0.59760095444E+02  0.14920488934E+01 -0.91902111976E+02  0.10971310680E+03  0.41800000000E+01 0. -1.
         -5    1    3    3    0  502  0.51025448792E+02  0.23267656979E+02 -0.18567984671E+02  0.59221809669E+02  0.41800000000E+01 0. -1.
        -11    1    1    2    0    0  0.37372536953E+02  0.15142629801E+02 -0.76985514324E+02  0.86906703834E+02  0.00000000000E+00 0.  1.
         11    1    1    2    0    0 -0.28637890301E+02 -0.39902335673E+02 -0.14713918775E+02  0.51272064117E+02  0.00000000000E+00 0. -1.
</event>
<event>
 6    1  0.2820496E-009  0.1586292E+03  0.7561462E-02  0.1190253E+00
         -2   -1    0    0    0  501 -0.00000000000E+00  0.00000000000E+00  0.37812400623E+02  0.37812400623E+02  0.00000000000E+00 0.  1.
          2   -1    0    0  501    0  0.00000000000E+00 -0.00000000000E+00 -0.71716875487E+03  0.71716875487E+03  0.00000000000E+00 0. -1.
          5    1    1    2  502    0 -0.10226499318E+02 -0.62919514176E+02 -0.11199384557E+03  0.12893230936E+03  0.41800000000E+01 0. -1.
         -5    1    1    2    0  502 -0.10340074042E+03  0.20094592561E+02 -0.31659734849E+03  0.33368676815E+03  0.41800000000E+01 0. -1.
        -11    1    1    2    0    0  0.39172603393E+02  0.59899017896E+02 -0.14716044912E+03  0.16364162975E+03  0.00000000000E+00 0.  1.
         11    1    1    2    0    0  0.74454636344E+02 -0.17074096281E+02 -0.10360471108E+03  0.12872044824E+03  0.00000000000E+00 0. -1.
</event>
<event>
 7    1  0.2820496E-009  0.1184534E+03  0.7561462E-02  0.1245670E+00
          2   -1    0    0  501    0  0.00000000000E+00  0.00000000000E+00  0.45173599324E+02  0.45173599324E+02  0.00000000000E+00 0. -1.
         -2   -1    0    0    0  501 -0.00000000000E+00 -0.00000000000E+00 -0.48350318891E+03  0.48350318891E+03  0.00000000000E+00 0.  1.
         25    2    1    2    0    0 -0.61737447039E+01  0.97408077713E+02 -0.28692106600E+03  0.32786411550E+03  0.12507890065E+03 0.  0.
          5    1    3    3  502    0  0.42929773999E+02  0.23294784022E+02 -0.33780982467E+02  0.59533516902E+02  0.41800000000E+01 0.  1.
         -5    1    3    3    0  502 -0.49103518703E+02  0.74113293691E+02 -0.25314008354E+03  0.26833059860E+03  0.41800000000E+01 0.  1.
        -11    1    1    2    0    0  0.11017955820E+02 -0.48491065100E+02 -0.14240644303E+03  0.15083890002E+03  0.00000000000E+00 0.  1.
         11    1    1    2    0    0 -0.48442111157E+01 -0.48917012613E+02 -0.90020805522E+01  0.49973772707E+02  0.00000000000E+00 0. -1.
</event>
<event>
 7    1  0.2820496E-009  0.9929574E+02  0.7561462E-02  0.1281784E+00
         -2   -1    0    0    0  501 -0.00000000000E+00  0.00000000000E+00  0.24011559081E+03  0.24011559081E+03  0.00000000000E+00 0.  1.
          2   -1    0    0  501    0  0.00000000000E+00 -0.00000000000E+00 -0.63300445249E+02  0.63300445249E+02  0.00000000000E+00 0. -1.
         25    2    1    2    0    0 -0.25873546988E+02  0.29868084295E+02  0.45158862844E+02  0.13873787028E+03  0.12508929156E+03 0.  0.
          5    1    3    3  502    0 -0.38541590757E+02  0.59093483786E+02  0.68968807117E+02  0.98750507843E+02  0.41800000000E+01 0. -1.
         -5    1    3    3    0  502  0.12668043769E+02 -0.29225399491E+02 -0.23809944273E+02  0.39987362436E+02  0.41800000000E+01 0. -1.
        -11    1    1    2    0    0  0.58240940274E+02 -0.23495873147E+02  0.10463682535E+03  0.12203658631E+03  0.00000000000E+00 0.  1.
         11    1    1    2    0    0 -0.32367393287E+02 -0.63722111481E+01  0.27019457359E+02  0.42641579463E+02  0.00000000000E+00 0. -1.
</event>
<event>
 7    1  0.2820496E-009  0.1493343E+03  0.7561462E-02  0.1201293E+00
          1   -1    0    0  501    0  0.00000000000E+00  0.00000000000E+00  0.35766685511E+03  0.35766685511E+03  0.00000000000E+00 0. -1.
         -1   -1    0    0    0  501 -0.00000000000E+00 -0.00000000000E+00 -0.75149510229E+02  0.75149510229E+02  0.00000000000E+00 0.  1.
         25    2    1    2    0    0  0.42069824905E+02  0.10504810824E+03  0.96132040762E+02  0.19414966657E+03  0.12509096112E+03 0.  0.
          5    1    3    3  502    0  0.66395853155E+02  0.68325984139E+01  0.30750581771E+02  0.73608181587E+02  0.41800000000E+01 0.  1.
         -5    1    3    3    0  502 -0.24326028250E+02  0.98215509828E+02  0.65381458990E+02  0.12054148498E+03  0.41800000000E+01 0.  1.
        -11    1    1    2    0    0 -0.59691002069E+02 -0.77549845759E+02  0.18072492090E+03  0.20552005094E+03  0.00000000000E+00 0. -1.
         11    1    1    2    0    0  0.17621177164E+02 -0.27498262483E+02  0.56603832221E+01  0.33146647832E+02  0.00000000000E+00 0.  1.
</event>
<event>
 7    1  0.2820496E-009  0.1372188E+03  0.7561462E-02  0.1217121E+00
         -1   -1    0    0    0  501 -0.00000000000E+00  0.00000000000E+00  0.46654449256E+02  0.46654449256E+02  0.00000000000E+00 0.  1.
          1   -1    0    0  501    0  0.00000000000E+00 -0.00000000000E+00 -0.41487330203E+03  0.41487330203E+03  0.00000000000E+00 0. -1.
         25    2    1    2    0    0 -0.77211223019E+02  0.33159788202E+02 -0.21131318739E+03  0.25954361851E+03  0.12509389366E+03 0.  0.
          5    1    3    3  502    0 -0.10889617550E+03  0.37038268190E+02 -0.18537450135E+03  0.21820034029E+03  0.41800000000E+01 0.  1.
         -5    1    3    3    0  502  0.31684952483E+02 -0.38784799877E+01 -0.25938686042E+02  0.41343278226E+02  0.41800000000E+01 0.  1.
        -11    1    1    2    0    0  0.81822117788E+02  0.11165593496E+02 -0.10455492666E+03  0.13323386254E+03  0.00000000000E+00 0.  1.
         11    1    1    2    0    0 -0.46108947688E+01 -0.44325381698E+02 -0.52350738720E+02  0.68750270238E+02  0.00000000000E+00 0. -1.
</event>
<event>
 7    1  0.2820496E-009  0.2569198E+03  0.7561462E-02  0.1109008E+00
         -1   -1    0    0    0  501 -0.00000000000E+00  0.00000000000E+00  0.93734374315E+02  0.93734374315E+02  0.00000000000E+00 0.  1.
          1   -1    0    0  501    0  0.00000000000E+00 -0.00000000000E+00 -0.85802346020E+03  0.85802346020E+03  0.00000000000E+00 0. -1.
         25    2    1    2    0    0  0.14590594684E+03  0.18778326521E+03 -0.21443422694E+03  0.34377507540E+03  0.12509262474E+03 0.  0.
          5    1    3    3  502    0  0.39013815711E+02  0.14926639832E+03 -0.13534137871E+03  0.20527371160E+03  0.41800000000E+01 0. -1.
         -5    1    3    3    0  502  0.10689213113E+03  0.38516866892E+02 -0.79092848227E+02  0.13850136380E+03  0.41800000000E+01 0. -1.
        -11    1    1    2    0    0 -0.41094392078E+02 -0.10333448686E+03 -0.15462373395E+03  0.19046066349E+03  0.00000000000E+00 0.  1.
         11    1    1    2    0    0 -0.10481155476E+03 -0.84448778352E+02 -0.39523112500E+03  0.41752209563E+03  0.00000000000E+00 0. -1.
</event>
<event>
 7    1  0.2820496E-009  0.1372324E+03  0.7561462E-02  0.1217102E+00
          2   -1    0    0  501    0  0.00000000000E+00  0.00000000000E+00  0.34097002767E+03  0.34097002767E+03  0.00000000000E+00 0. -1.
         -2   -1    0    0    0  501 -0.00000000000E+00 -0.00000000000E+00 -0.78963336582E+02  0.78963336582E+02  0.00000000000E+00 0.  1.
         25    2    1    2    0    0  0.10043405964E+03  0.66812757910E+02  0.14483595708E+03  0.22621993531E+03  0.12508820773E+03 0.  0.
          5    1    3    3  502    0 -0.17533906283E+02  0.93876196045E+01 -0.10476159087E+02  0.22864548554E+02  0.41800000000E+01 0.  1.
         -5    1    3    3    0  502  0.11796796592E+03  0.57425138306E+02  0.15531211616E+03  0.20335538675E+03  0.41800000000E+01 0.  1.
        -11    1    1    2    0    0 -0.62758598593E+02 -0.54832036233E+02  0.12798510965E+03  0.15272649472E+03  0.00000000000E+00 0. -1.
         11    1    1    2    0    0 -0.37675461048E+02 -0.11980721677E+02 -0.10814375642E+02  0.40986934230E+02  0.00000000000E+00 0.  1.
</event>
<event>
 7    1  0.3953684E-009  0.9818161E+02  0.7561462E-02  0.1284167E+00
         -4   -1    0    0    0  501 -0.00000000000E+00  0.00000000000E+00  0.37325998078E+02  0.37325998078E+02  0.00000000000E+00 0. -1.
          4   -1    0    0  501    0  0.00000000000E+00 -0.00000000000E+00 -0.42895774498E+03  0.42895774498E+03  0.00000000000E+00 0.  1.
         25    2    1    2    0    0  0.56784279889E+02 -0.60485460045E+01 -0.27764087118E+03  0.30982748211E+03  0.12509027129E+03 0.  0.
          5    1    3    3  502    0  0.64333793553E+02 -0.55284638515E+02 -0.20239635826E+03  0.21949256590E+03  0.41800000000E+01 0.  1.
         -5    1    3    3    0  502 -0.75495136634E+01  0.49236092510E+02 -0.75244512923E+02  0.90334916213E+02  0.41800000000E+01 0.  1.
        -11    1    1    2    0    0 -0.35135734228E+02  0.14764410989E+02 -0.12497953903E+03  0.13066136700E+03  0.00000000000E+00 0.  1.
         11    1    1    2    0    0 -0.21648545662E+02 -0.87158649843E+01  0.10988663315E+02  0.25794893935E+02  0.00000000000E+00 0. -1.
</event>
<event>
 7    1  0.2820496E-009  0.1095879E+03  0.7561462E-02  0.1261335E+00
          2   -1    0    0  501    0  0.00000000000E+00  0.00000000000E+00  0.28769940444E+03  0.28769940444E+03  0.00000000000E+00 0.  1.
         -2   -1    0    0    0  501 -0.00000000000E+00 -0.00000000000E+00 -0.82121561876E+02  0.82121561876E+02  0.00000000000E+00 0. -1.
         25    2    1    2    0    0  0.66010950021E+02  0.32085018265E+02  0.20472462904E+03  0.25089047606E+03  0.12508782243E+03 0.  0.
          5    1    3    3  502    0  0.61354432073E+01  0.70819698640E+02  0.12487532746E+03  0.14375115021E+03  0.41800000000E+01 0. -1.
         -5    1    3    3    0  502  0.59875506814E+02 -0.38734680375E+02  0.79849301582E+02  0.10713932585E+03  0.41800000000E+01 0. -1.
        -11    1    1    2    0    0 -0.37265267121E+02 -0.60558869801E+01 -0.45090008743E+02  0.58808866586E+02  0.00000000000E+00 0. -1.
         11    1    1    2    0    0 -0.28745682901E+02 -0.26029131284E+02  0.45943222271E+02  0.60121623676E+02  0.00000000000E+00 0.  1.
</event>
<event>
 7    1  0.2820496E-009  0.1185674E+03  0.7561462E-02  0.1245479E+00
          2   -1    0    0  501    0  0.00000000000E+00  0.00000000000E+00  0.36114609762E+03  0.36114609762E+03  0.00000000000E+00 0. -1.
         -2   -1    0    0    0  501 -0.00000000000E+00 -0.00000000000E+00 -0.59954557406E+02  0.59954557406E+02  0.00000000000E+00 0.  1.
         25    2    1    2    0    0  0.55013545096E+02  0.55197873494E+02  0.73883007672E+02  0.16485474579E+03  0.12508034620E+03 0.  0.
          5    1    3    3  502    0 -0.21529510498E+02 -0.59604418747E+01 -0.19121607360E+02  0.29701093543E+02  0.41800000000E+01 0.  1.
         -5    1    3    3    0  502  0.76543055594E+02  0.61158315368E+02  0.93004615032E+02  0.13515365225E+03  0.41800000000E+01 0.  1.
        -11    1    1    2    0    0 -0.32015441413E+02  0.19971830026E+02  0.53298990953E+02  0.65304248867E+02  0.00000000000E+00 0.  1.
         11    1    1    2    0    0 -0.22998103683E+02 -0.75169703520E+02  0.17400954159E+03  0.19094166037E+03  0.00000000000E+00 0. -1.
</event>
<event>
 7    1  0.2820496E-009  0.1270852E+03  0.7561462E-02  0.1231846E+00
         -2   -1    0    0    0  501 -0.00000000000E+00  0.00000000000E+00  0.18405030930E+03  0.18405030930E+03  0.00000000000E+00 0.  1.
          2   -1    0    0  501    0  0.00000000000E+00 -0.00000000000E+00 -0.13744173078E+03  0.13744173078E+03  0.00000000000E+00 0. -1.
         25    2    1    2    0    0  0.10611296151E+03 -0.46231464335E+02  0.17415454882E+02  0.17131010863E+03  0.12508615572E+03 0.  0.
          5    1    3    3  502    0  0.89827747520E+02 -0.51819969543E+02 -0.39995816533E+02  0.11122711544E+03  0.41800000000E+01 0. -1.
         -5    1    3    3    0  502  0.16285213989E+02  0.55885052077E+01  0.57411271415E+02  0.60082993190E+02  0.41800000000E+01 0. -1.
        -11    1    1    2    0    0  0.18031330415E+00 -0.11638511044E+02  0.26704175451E+02  0.29130747308E+02  0.00000000000E+00 0.  1.
         11    1    1    2    0    0 -0.10629327481E+03  0.57869975379E+02  0.24889481894E+01  0.12105118415E+03  0.00000000000E+00 0. -1.
</event>
<event>
 7    1  0.2820496E-009  0.8131503E+02  0.7561462E-02  0.1325360E+00
          1   -1    0    0  501    0  0.00000000000E+00  0.00000000000E+00  0.48295494661E+02  0.48295494661E+02  0.00000000000E+00 0. -1.
         -1   -1    0    0    0  501 -0.00000000000E+00 -0.00000000000E+00 -0.25481665995E+03  0.25481665995E+03  0.00000000000E+00 0.  1.
         25    2    1    2    0    0  0.72247890689E-01 -0.17260219330E+02 -0.94793715585E+02  0.15789384681E+03  0.12508676172E+03 0.  0.
          5    1    3    3  502    0  0.10160149510E+02 -0.45286210844E+02 -0.11334798544E+03  0.12255328528E+03  0.41800000000E+01 0.  1.
         -5    1    3    3    0  502 -0.10087901620E+02  0.28025991514E+02  0.18554269855E+02  0.35340561530E+02  0.41800000000E+01 0.  1.
        -11    1    1    2    0    0  0.35602621445E+02  0.31502883079E+02 -0.33776501635E+02  0.58316638781E+02  0.00000000000E+00 0. -1.
         11    1    1    2    0    0 -0.35674869336E+02 -0.14242663749E+02 -0.77950948073E+02  0.86901669019E+02  0.00000000000E+00 0.  1.
</event>
<event>
 7    1  0.2820496E-009  0.1105491E+03  0.7561462E-02  0.1259556E+00
         -2   -1    0    0    0  501 -0.00000000000E+00  0.00000000000E+00  0.30823775933E+02  0.30823775933E+02  0.00000000000E+00 0.  1.
          2   -1    0    0  501    0  0.00000000000E+00 -0.00000000000E+00 -0.57039529308E+03  0.57039529308E+03  0.00000000000E+00 0. -1.
         25    2    1    2    0    0 -0.61817981580E+02  0.41601035441E+02 -0.25781472681E+03  0.29608996689E+03  0.12509486854E+03 0.  0.
          5    1    3    3  502    0 -0.29759594204E+02 -0.36815899785E+02 -0.15856550576E+03  0.16553409299E+03  0.41800000000E+01 0. -1.
         -5    1    3    3    0  502 -0.32058387375E+02  0.78416935225E+02 -0.99249221046E+02  0.13055587390E+03  0.41800000000E+01 0. -1.
        -11    1    1    2    0    0  0.65757197400E+02 -0.22880976056E+02 -0.27672359010E+03  0.28534802154E+03  0.00000000000E+00 0. -1.
         11    1    1    2    0    0 -0.39392158207E+01 -0.18720059385E+02 -0.50332002371E+01  0.19781080590E+02  0.00000000000E+00 0.  1.
</event>
<event>
 7    1  0.2820496E-009  0.1882288E+03  0.7561462E-02  0.1160069E+00
         -2   -1    0    0    0  501 -0.00000000000E+00  0.00000000000E+00  0.21307298904E+03  0.21307298904E+03  0.00000000000E+00 0. -1.
          2   -1    0    0  501    0  0.00000000000E+00 -0.00000000000E+00 -0.20806739211E+03  0.20806739211E+03  0.00000000000E+00 0.  1.
         25    2    1    2    0    0 -0.17199167517E+03  0.15832926886E+02  0.52716660575E+02  0.21968952414E+03  0.12511044247E+03 0.  0.
          5    1    3    3  502    0 -0.84745857633E+02  0.34423621306E+02 -0.31606357937E+02  0.96867333771E+02  0.41800000000E+01 0.  1.
         -5    1    3    3    0  502 -0.87245817532E+02 -0.18590694421E+02  0.84323018513E+02  0.12282219037E+03  0.41800000000E+01 0.  1.
        -11    1    1    2    0    0  0.13788092768E+03 -0.50610105209E+02 -0.38989485968E+02  0.15196286712E+03  0.00000000000E+00 0.  1.
         11    1    1    2    0    0  0.34110747483E+02  0.34777178324E+02 -0.87215776806E+01  0.49487989889E+02  0.00000000000E+00 0. -1.
</event>
<event>
 7    1  0.2820496E-009  0.1550882E+03  0.7561462E-02  0.1194356E+00
          2   -1    0    0  501    0  0.00000000000E+00  0.00000000000E+00  0.12591176403E+04  0.12591176403E+04  0.00000000000E+00 0. -1.
         -2   -1    0    0    0  501 -0.00000000000E+00 -0.00000000000E+00 -0.25474731133E+02  0.25474731133E+02  0.00000000000E+00 0.  1.
         25    2    1    2    0    0 -0.27588193877E+02  0.12670573905E+03  0.85844005550E+03  0.87714451964E+03  0.12509087380E+03 0.  0.
          5    1    3    3  502    0 -0.54973101808E+02  0.95474090320E+02  0.34906843238E+03  0.36606500342E+03  0.41800000000E+01 0. -1.
         -5    1    3    3    0  502  0.27384907931E+02  0.31231648726E+02  0.50937162312E+03  0.51107951622E+03  0.41800000000E+01 0. -1.
        -11    1    1    2    0    0  0.53628443641E+02 -0.37987850495E+02  0.13759850433E+03  0.15248749177E+03  0.00000000000E+00 0.  1.
         11    1    1    2    0    0 -0.26040249764E+02 -0.88717888551E+02  0.23760434934E+03  0.25496036002E+03  0.00000000000E+00 0. -1.
</event>
<event>
 7    1  0.2820496E-009  0.9028246E+02  0.7561462E-02  0.1302169E+00
         -1   -1    0    0    0  501 -0.00000000000E+00  0.00000000000E+00  0.16434318762E+03  0.16434318762E+03  0.00000000000E+00 0.  1.
          1   -1    0    0  501    0  0.00000000000E+00 -0.00000000000E+00 -0.85796751848E+02  0.85796751848E+02  0.00000000000E+00 0. -1.
         25    2    1    2    0    0  0.16903999149E+02  0.36796775378E+02  0.21137693157E+02  0.13316848863E+03  0.12508915392E+03 0.  0.
          5    1    3    3  502    0 -0.29651118134E+02 -0.25770186836E+02  0.36253750526E+02  0.53619941844E+02  0.41800000000E+01 0. -1.
         -5    1    3    3    0  502  0.46555117283E+02  0.62566962214E+02 -0.15116057368E+02  0.79548546790E+02  0.41800000000E+01 0. -1.
        -11    1    1    2    0    0 -0.10190812057E+02  0.10824682915E+02  0.66401605868E+02  0.68045570557E+02  0.00000000000E+00 0.  1.
         11    1    1    2    0    0 -0.67131870927E+01 -0.47621458293E+02 -0.89928632578E+01  0.48925880272E+02  0.00000000000E+00 0. -1.
</event>
<event>
 7    1  0.2820496E-009  0.2450740E+03  0.7561462E-02  0.1116458E+00
         -1   -1    0    0    0  501 -0.00000000000E+00  0.00000000000E+00  0.12956997848E+03  0.12956997848E+03  0.00000000000E+00 0.  1.
          1   -1    0    0  501    0  0.00000000000E+00 -0.00000000000E+00 -0.75074411195E+03  0.75074411195E+03  0.00000000000E+00 0. -1.
         25    2    1    2    0    0  0.18425152393E+03 -0.15482338506E+03 -0.54886062471E+03  0.61222220835E+03  0.12509653232E+03 0.  0.
          5    1    3    3  502    0  0.60811437398E+02 -0.14741287287E+02 -0.26584335052E+03  0.27314006642E+03  0.41800000000E+01 0. -1.
         -5    1    3    3    0  502  0.12344008654E+03 -0.14008209777E+03 -0.28301727420E+03  0.33908214193E+03  0.41800000000E+01 0. -1.
        -11    1    1    2    0    0 -0.58536660083E+02  0.50886549093E+02  0.20755287161E+02  0.80291739285E+02  0.00000000000E+00 0.  1.
         11    1    1    2    0    0 -0.12571486385E+03  0.10393683596E+03 -0.93068795914E+02  0.18780014280E+03  0.00000000000E+00 0. -1.
</event>
<event>
 7    1  0.2820496E-009  0.1144819E+03  0.7561462E-02  0.1252488E+00
          2   -1    0    0  501    0  0.00000000000E+00  0.00000000000E+00  0.61914576613E+03  0.61914576613E+03  0.00000000000E+00 0. -1.
         -2   -1    0    0    0  501 -0.00000000000E+00 -0.00000000000E+00 -0.21455204717E+02  0.21455204717E+02  0.00000000000E+00 0.  1.
         25    2    1    2    0    0 -0.44588308021E+01 -0.38906332828E+02  0.33096030147E+03  0.35596995099E+03  0.12508517479E+03 0.  0.
          5    1    3    3  502    0  0.17693040005E+01  0.45255394427E+02  0.94726355578E+02  0.10507966503E+03  0.41800000000E+01 0.  1.
         -5    1    3    3    0  502 -0.62281348026E+01 -0.84161727255E+02  0.23623394590E+03  0.25089028597E+03  0.41800000000E+01 0.  1.
        -11    1    1    2    0    0  0.38657437538E+02  0.49846810669E+02  0.18136603238E+03  0.19202275832E+03  0.00000000000E+00 0.  1.
         11    1    1    2    0    0 -0.34198606736E+02 -0.10940477841E+02  0.85364227560E+02  0.92608261537E+02  0.00000000000E+00 0. -1.
</event>
<event>
 7    1  0.2820496E-009  0.9380549E+02  0.7561462E-02  0.1293889E+00
          1   -1    0    0  501    0  0.00000000000E+00  0.00000000000E+00  0.37408858171E+03  0.37408858171E+03  0.00000000000E+00 0. -1.
         -1   -1    0    0    0  501 -0.00000000000E+00 -0.00000000000E+00 -0.34177065796E+02  0.34177065796E+02  0.00000000000E+00 0.  1.
         25    2    1    2    0    0 -0.28415767570E+02 -0.93768799392E+01  0.17931214261E+03  0.22067117873E+03  0.12509013915E+03 0.  0.
          5    1    3    3  502    0  0.20343440109E+02 -0.41396131292E+02  0.19062088259E+02  0.50083239214E+02  0.41800000000E+01 0. -1.
         -5    1    3    3    0  502 -0.48759207679E+02  0.32019251353E+02  0.16025005435E+03  0.17058793952E+03  0.41800000000E+01 0. -1.
        -11    1    1    2    0    0 -0.28471831796E+01  0.39380827021E+02  0.28845442406E+02  0.48898011580E+02  0.00000000000E+00 0.  1.
         11    1    1    2    0    0  0.31262950749E+02 -0.30003947082E+02  0.13175393090E+03  0.13869645720E+03  0.00000000000E+00 0. -1.
</event>
<event>
 7    1  0.2918617E-009  0.8794979E+02  0.7561462E-02  0.1307894E+00
          2   -1    0    0  501    0  0.00000000000E+00  0.00000000000E+00  0.59280254295E+03  0.59280254295E+03  0.00000000000E+00 0. -1.
         -2   -1    0    0    0  501 -0.00000000000E+00 -0.00000000000E+00 -0.22399754362E+02  0.22399754362E+02  0.00000000000E+00 0.  1.
         25    2    1    2    0    0  0.87290388914E+01 -0.29520839590E+02  0.25834231808E+03  0.28868014028E+03  0.12509114273E+03 0.  0.
          5    1    3    3  502    0  0.30688792684E+02  0.26688088406E+02  0.25674443147E+02  0.48277380729E+02  0.41800000000E+01 0.  1.
         -5    1    3    3    0  502 -0.21959753792E+02 -0.56208927996E+02  0.23266787493E+03  0.24040275955E+03  0.41800000000E+01 0.  1.
        -11    1    1    2    0    0  0.14967028817E+02 -0.16796512686E+02  0.20760641859E+02  0.30612726772E+02  0.00000000000E+00 0.  1.
         11    1    1    2    0    0 -0.23696067708E+02  0.46317352276E+02  0.29129982865E+03  0.29590943026E+03  0.00000000000E+00 0. -1.
</event>
<event>
 7    1  0.2820496E-009  0.1229355E+03  0.7561462E-02  0.1238331E+00
          1   -1    0    0  501    0  0.00000000000E+00  0.00000000000E+00  0.46080456294E+03  0.46080456294E+03  0.00000000000E+00 0. -1.
         -1   -1    0    0    0  501 -0.00000000000E+00 -0.00000000000E+00 -0.36947078066E+02  0.36947078066E+02  0.00000000000E+00 0.  1.
         25    2    1    2    0    0 -0.16788877242E+02 -0.61039699677E+02  0.27716548802E+03  0.31060685881E+03  0.12509277218E+03 0.  0.
          5    1    3    3  502    0 -0.46724164178E+02  0.19119408494E+02  0.69825393685E+02  0.86265620629E+02  0.41800000000E+01 0.  1.
         -5    1    3    3    0  502  0.29935286936E+02 -0.80159108171E+02  0.20734009434E+03  0.22434123818E+03  0.41800000000E+01 0.  1.
        -11    1    1    2    0    0 -0.35616407144E+02  0.11490130606E+02  0.22895155791E+02  0.43871855647E+02  0.00000000000E+00 0.  1.
         11    1    1    2    0    0  0.52405284386E+02  0.49549569071E+02  0.12379684106E+03  0.14327292655E+03  0.00000000000E+00 0. -1.
</event>
<event>
 7    1  0.2820496E-009  0.1310328E+03  0.7561462E-02  0.1225931E+00
         -1   -1    0    0    0  501 -0.00000000000E+00  0.00000000000E+00  0.20958043957E+03  0.20958043957E+03  0.00000000000E+00 0.  1.
          1   -1    0    0  501    0  0.00000000000E+00 -0.00000000000E+00 -0.93864234570E+02  0.93864234570E+02  0.00000000000E+00 0. -1.
         25    2    1    2    0    0  0.62189033443E+02 -0.62467590153E+02  0.42527957324E+02  0.15882441853E+03  0.12508754162E+03 0.  0.
          5    1    3    3  502    0  0.17915033018E+02 -0.95048910265E+02  0.36089751257E+02  0.10332079315E+03  0.41800000000E+01 0.  1.
         -5    1    3    3    0  502  0.44274000425E+02  0.32581320112E+02  0.64382060674E+01  0.55503625388E+02  0.41800000000E+01 0.  1.
        -11    1    1    2    0    0 -0.58134746553E+02  0.11832413096E+02  0.49250464090E+01  0.59530755401E+02  0.00000000000E+00 0.  1.
         11    1    1    2    0    0 -0.40542868904E+01  0.50635177056E+02  0.68263201266E+02  0.85089500203E+02  0.00000000000E+00 0. -1.
</event>
<event>
 7    1  0.2820496E-009  0.9263477E+02  0.7561462E-02  0.1296594E+00
          3   -1    0    0  501    0  0.00000000000E+00  0.00000000000E+00  0.17345867573E+02  0.17345867573E+02  0.00000000000E+00 0. -1.
         -3   -1    0    0    0  501 -0.00000000000E+00 -0.00000000000E+00 -0.64885145047E+03  0.64885145047E+03  0.00000000000E+00 0.  1.
         25    2    1    2    0    0  0.16933455491E+02  0.19205222604E+02 -0.40927365417E+03  0.42873005077E+03  0.12509576312E+03 0.  0.
          5    1    3    3  502    0 -0.29311226031E+02 -0.33238221781E+02 -0.26069769921E+03  0.26447058462E+03  0.41800000000E+01 0.  1.
         -5    1    3    3    0  502  0.46244681522E+02  0.52443444385E+02 -0.14857595496E+03  0.16425946615E+03  0.41800000000E+01 0.  1.
        -11    1    1    2    0    0 -0.42170202210E+02 -0.16677286246E+02 -0.19520527608E+03  0.20040348710E+03  0.00000000000E+00 0.  1.
         11    1    1    2    0    0  0.25236746719E+02 -0.25279363576E+01 -0.27026652647E+02  0.37063780170E+02  0.00000000000E+00 0. -1.
</event>
<event>
 7    1  0.2820496E-009  0.1072335E+03  0.7561462E-02  0.1265780E+00
         -2   -1    0    0    0  501 -0.00000000000E+00  0.00000000000E+00  0.13369372647E+02  0.13369372647E+02  0.00000000000E+00 0. -1.
          2   -1    0    0  501    0  0.00000000000E+00 -0.00000000000E+00 -0.90235990869E+03  0.90235990869E+03  0.00000000000E+00 0.  1.
         25    2    1    2    0    0  0.20276567626E+02  0.84454816665E+01 -0.55725166198E+03  0.57154080903E+03  0.12508803402E+03 0.  0.
          5    1    3    3  502    0 -0.42877964251E+02 -0.30180588202E+02 -0.24921045237E+03  0.25470121651E+03  0.41800000000E+01 0.  1.
         -5    1    3    3    0  502  0.63154531877E+02  0.38626069869E+02 -0.30804120961E+03  0.31683959252E+03  0.41800000000E+01 0.  1.
        -11    1    1    2    0    0 -0.14064868785E+02 -0.46797894706E+02 -0.13312461497E+03  0.14180982545E+03  0.00000000000E+00 0.  1.
         11    1    1    2    0    0 -0.62116988414E+01  0.38352413039E+02 -0.19861425910E+03  0.20237864686E+03  0.00000000000E+00 0. -1.
</event>
<event>
 7    1  0.2820496E-009  0.1540408E+03  0.7561462E-02  0.1195594E+00
         -2   -1    0    0    0  501 -0.00000000000E+00  0.00000000000E+00  0.22153009693E+02  0.22153009693E+02  0.00000000000E+00 0.  1.
          2   -1    0    0  501    0  0.00000000000E+00 -0.00000000000E+00 -0.11971473879E+04  0.11971473879E+04  0.00000000000E+00 0. -1.
         25    2    1    2    0    0 -0.61066377516E+02 -0.10128766669E+03 -0.71357275229E+03  0.73404468744E+03  0.12508891424E+03 0.  0.
          5    1    3    3  502    0 -0.90781343292E+02 -0.70053850612E+02 -0.62503690862E+03  0.63548202477E+03  0.41800000000E+01 0. -1.
         -5    1    3    3    0  502  0.29714965776E+02 -0.31233816076E+02 -0.88535843667E+02  0.98562662665E+02  0.41800000000E+01 0. -1.
        -11    1    1    2    0    0  0.32729451005E+02 -0.10757033678E+02 -0.96107759664E+02  0.10209619094E+03  0.00000000000E+00 0. -1.
         11    1    1    2    0    0  0.28336926511E+02  0.11204470037E+03 -0.36531386624E+03  0.38315951920E+03  0.00000000000E+00 0.  1.
</event>
<event>
 7    1  0.2820496E-009  0.1007901E+03  0.7561462E-02  0.1278643E+00
          1   -1    0    0  501    0  0.00000000000E+00  0.00000000000E+00  0.22658157482E+03  0.22658157482E+03  0.00000000000E+00 0. -1.
         -1   -1    0    0    0  501 -0.00000000000E+00 -0.00000000000E+00 -0.56448421147E+02  0.56448421147E+02  0.00000000000E+00 0.  1.
         25    2    1    2    0    0 -0.28278261511E+01 -0.27786893128E+02  0.11081996669E+03  0.16943587945E+03  0.12508934487E+03 0.  0.
          5    1    3    3  502    0  0.50515010188E+02 -0.18845384573E+02  0.10062824870E+03  0.11423848568E+03  0.41800000000E+01 0.  1.
         -5    1    3    3    0  502 -0.53342836339E+02 -0.89415085553E+01  0.10191717988E+02  0.55197393775E+02  0.41800000000E+01 0.  1.
        -11    1    1    2    0    0 -0.26468419006E+02 -0.22709135206E+02  0.37662020698E+02  0.51329424598E+02  0.00000000000E+00 0. -1.
         11    1    1    2    0    0  0.29296245157E+02  0.50496028334E+02  0.21651166290E+02  0.62264691917E+02  0.00000000000E+00 0.  1.
</event>
<event>
 7    1  0.2820496E-009  0.1634150E+03  0.7561462E-02  0.1184894E+00
          1   -1    0    0  501    0  0.00000000000E+00  0.00000000000E+00  0.10335291354E+04  0.10335291354E+04  0.00000000000E+00 0. -1.
         -1   -1    0    0    0  501 -0.00000000000E+00 -0.00000000000E+00 -0.30925579649E+02  0.30925579649E+02  0.00000000000E+00 0.  1.
         25    2    1    2    0    0 -0.96967509768E+02 -0.10261634116E+03  0.54477724732E+03  0.57650893650E+03  0.12508994061E+03 0.  0.
          5    1    3    3  502    0 -0.33188998363E+02 -0.10060911564E+03  0.20529761481E+03  0.23105905481E+03  0.41800000000E+01 0. -1.
         -5    1    3    3    0  502 -0.63778511405E+02 -0.20072255227E+01  0.33947963251E+03  0.34544988169E+03  0.41800000000E+01 0. -1.
        -11    1    1    2    0    0  0.46055753238E+02  0.44432209299E+01  0.23110001898E+03  0.23568643022E+03  0.00000000000E+00 0. -1.
         11    1    1    2    0    0  0.50911756530E+02  0.98173120232E+02  0.22672628942E+03  0.25225934830E+03  0.00000000000E+00 0.  1.
</event>
<event>
 7    1  0.2820496E-009  0.1173653E+03  0.7561462E-02  0.1247508E+00
         -1   -1    0    0    0  501 -0.00000000000E+00  0.00000000000E+00  0.64856343763E+03  0.64856343763E+03  0.00000000000E+00 0.  1.
          1   -1    0    0  501    0  0.00000000000E+00 -0.00000000000E+00 -0.38146640672E+02  0.38146640672E+02  0.00000000000E+00 0. -1.
         25    2    1    2    0    0 -0.22427296564E+02  0.54971552335E+02  0.53195229934E+03  0.54967704633E+03  0.12508697490E+03 0.  0.
          5    1    3    3  502    0 -0.31665892548E+02 -0.29935895172E+02  0.97314739084E+02  0.10670762585E+03  0.41800000000E+01 0.  1.
         -5    1    3    3    0  502  0.92385959836E+01  0.84907447507E+02  0.43463756025E+03  0.44296942048E+03  0.41800000000E+01 0.  1.
        -11    1    1    2    0    0  0.44892398894E+02  0.12395160973E+01  0.57525729038E+02  0.72979951904E+02  0.00000000000E+00 0.  1.
         11    1    1    2    0    0 -0.22465102330E+02 -0.56211068432E+02  0.20938768584E+02  0.64053080073E+02  0.00000000000E+00 0. -1.
</event>
<event>
 7    1  0.2820496E-009  0.1020367E+03  0.7561462E-02  0.1276070E+00
          1   -1    0    0  501    0  0.00000000000E+00  0.00000000000E+00  0.10226598912E+03  0.10226598912E+03  0.00000000000E+00 0. -1.
         -1   -1    0    0    0  501 -0.00000000000E+00 -0.00000000000E+00 -0.13705869555E+03  0.13705869555E+03  0.00000000000E+00 0.  1.
         25    2    1    2    0    0  0.26758859039E+02  0.32454947163E+02 -0.25866364451E+01  0.13199910140E+03  0.12509081481E+03 0.  0.
          5    1    3    3  502    0  0.73603052799E+02  0.40399835520E+02 -0.52392763579E+01  0.84228727333E+02  0.41800000000E+01 0. -1.
         -5    1    3    3    0  502 -0.46844193760E+02 -0.79448883567E+01  0.26526399128E+01  0.47770374067E+02  0.41800000000E+01 0. -1.
        -11    1    1    2    0    0 -0.37716345911E+02 -0.42935306957E+02 -0.55414190804E+02  0.79603365977E+02  0.00000000000E+00 0.  1.
         11    1    1    2    0    0  0.10957486872E+02  0.10480359794E+02  0.23208120821E+02  0.27722217299E+02  0.00000000000E+00 0. -1.
</event>
<event>
 7    1  0.2820496E-009  0.1108038E+03  0.7561462E-02  0.1259089E+00
         -2   -1    0    0    0  501 -0.00000000000E+00  0.00000000000E+00  0.40816325593E+02  0.40816325593E+02  0.00000000000E+00 0.  1.
          2   -1    0    0  501    0  0.00000000000E+00 -0.00000000000E+00 -0.57988339436E+03  0.57988339436E+03  0.00000000000E+00 0. -1.
         25    2    1    2    0    0 -0.21492475103E+02 -0.10137033153E+03 -0.35997207244E+03  0.39492551668E+03  0.12509356572E+03 0.  0.
          5    1    3    3  502    0  0.43196155351E+01 -0.55534374679E+02 -0.32906147729E+03  0.33376886327E+03  0.41800000000E+01 0. -1.
         -5    1    3    3    0  502 -0.25812090638E+02 -0.45835956856E+02 -0.30910595149E+02  0.61156653411E+02  0.41800000000E+01 0. -1.
        -11    1    1    2    0    0  0.34236024586E+02  0.54114829180E+02 -0.33698496758E+02  0.72360961854E+02  0.00000000000E+00 0.  1.
         11    1    1    2    0    0 -0.12743549483E+02  0.47255502355E+02 -0.14539649956E+03  0.15341324142E+03  0.00000000000E+00 0. -1.
</event>
<event>
 7    1  0.2820496E-009  0.1247354E+03  0.7561462E-02  0.1235483E+00
          2   -1    0    0  501    0  0.00000000000E+00  0.00000000000E+00  0.77240136828E+03  0.77240136828E+03  0.00000000000E+00 0. -1.
         -2   -1    0    0    0  501 -0.00000000000E+00 -0.00000000000E+00 -0.27565961334E+02  0.27565961334E+02  0.00000000000E+00 0.  1.
         25    2    1    2    0    0  0.53346264762E+02  0.81040107567E+02  0.37884458816E+03  0.41059205151E+03  0.12509711343E+03 0.  0.
          5    1    3    3  502    0  0.73117763560E+02  0.76099333406E+02  0.16611480168E+03  0.19684744253E+03  0.41800000000E+01 0. -1.
         -5    1    3    3    0  502 -0.19771498798E+02  0.49407741609E+01  0.21272978647E+03  0.21374460898E+03  0.41800000000E+01 0. -1.
        -11    1    1    2    0    0  0.19595590971E+02 -0.18977803329E+02  0.32633891920E+02  0.42533693780E+02  0.00000000000E+00 0.  1.
         11    1    1    2    0    0 -0.72941855733E+02 -0.62062304238E+02  0.33335692687E+03  0.34684158432E+03  0.00000000000E+00 0. -1.
</event>
<event>
 7    1  0.2820496E-009  0.3014807E+03  0.7561462E-02  0.1084503E+00
          2   -1    0    0  501    0  0.00000000000E+00  0.00000000000E+00  0.12748693512E+04  0.12748693512E+04  0.00000000000E+00 0. -1.
         -2   -1    0    0    0  501 -0.00000000000E+00 -0.00000000000E+00 -0.74636035033E+02  0.74636035033E+02  0.00000000000E+00 0.  1.
         25    2    1    2    0    0 -0.22631840505E+03 -0.17663624715E+03  0.68296002474E+03  0.75133299253E+03  0.12508591449E+03 0.  0.
          5    1    3    3  502    0 -0.23433471052E+03 -0.15889508908E+03  0.56806054234E+03  0.63472092927E+03  0.41800000000E+01 0.  1.
         -5    1    3    3    0  502  0.80163054690E+01 -0.17741158069E+02  0.11489948240E+03  0.11661206327E+03  0.41800000000E+01 0.  1.
        -11    1    1    2    0    0  0.93527444252E+02  0.12788393248E+03  0.29053191808E+03  0.33092367464E+03  0.00000000000E+00 0. -1.
         11    1    1    2    0    0  0.13279096080E+03  0.48752314667E+02  0.22674137339E+03  0.26724871910E+03  0.00000000000E+00 0.  1.
</event>
<event>
 7    1  0.2820496E-009  0.2136097E+03  0.7561462E-02  0.1138739E+00
          4   -1    0    0  501    0  0.00000000000E+00  0.00000000000E+00  0.14582546019E+03  0.14582546019E+03  0.00000000000E+00 0. -1.
         -4   -1    0    0    0  501 -0.00000000000E+00 -0.00000000000E+00 -0.38915200939E+03  0.38915200939E+03  0.00000000000E+00 0.  1.
         25    2    1    2    0    0 -0.15041221007E+03  0.13902256687E+03 -0.64992648258E+02  0.24864204462E+03  0.12509082695E+03 0.  0.
          5    1    3    3  502    0 -0.96673985246E+02  0.96187091752E+02 -0.10211839718E+03  0.17042140560E+03  0.41800000000E+01 0.  1.
         -5    1    3    3    0  502 -0.53738224827E+02  0.42835475119E+02  0.37125748923E+02  0.78220639024E+02  0.41800000000E+01 0.  1.
        -11    1    1    2    0    0  0.10362985862E+03 -0.37598964845E+02 -0.69096756246E+02  0.13010454058E+03  0.00000000000E+00 0.  1.
         11    1    1    2    0    0  0.46782351454E+02 -0.10142360203E+03 -0.10923714469E+03  0.15623088439E+03  0.00000000000E+00 0. -1.
</event>
<event>
 7    1  0.2820496E-009  0.2220003E+03  0.7561462E-02  0.1132400E+00
         -2   -1    0    0    0  501 -0.00000000000E+00  0.00000000000E+00  0.29860617645E+02  0.29860617645E+02  0.00000000000E+00 0.  1.
          2   -1    0    0  501    0  0.00000000000E+00 -0.00000000000E+00 -0.22785859214E+04  0.22785859214E+04  0.00000000000E+00 0. -1.
         25    2    1    2    0    0 -0.16614927106E+03  0.97631373077E+02 -0.17556033753E+04  0.17705729003E+04  0.12509084022E+03 0.  0.
          5    1    3    3  502    0  0.16665287459E+01  0.56193934713E+02 -0.38470733907E+03  0.38881582369E+03  0.41800000000E+01 0. -1.
         -5    1    3    3    0  502 -0.16781579980E+03  0.41437438364E+02 -0.13708960363E+04  0.13817570766E+04  0.41800000000E+01 0. -1.
        -11    1    1    2    0    0  0.40272667150E+02 -0.77369389097E+02 -0.19317585019E+03  0.21195475741E+03  0.00000000000E+00 0. -1.
         11    1    1    2    0    0  0.12587660391E+03 -0.20261983980E+02 -0.29994607819E+03  0.32591888136E+03  0.00000000000E+00 0.  1.
</event>
<event>
 7    1  0.2820496E-009  0.1343834E+03  0.7561462E-02  0.1221093E+00
          1   -1    0    0  501    0  0.00000000000E+00  0.00000000000E+00  0.47790552126E+03  0.47790552126E+03  0.00000000000E+00 0. -1.
         -1   -1    0    0    0  501 -0.00000000000E+00 -0.00000000000E+00 -0.46981444134E+02  0.46981444134E+02  0.00000000000E+00 0.  1.
         25    2    1    2    0    0 -0.70275499807E+02  0.38841293632E+02  0.11960652048E+03  0.19078996232E+03  0.12509115883E+03 0.  0.
          5    1    3    3  502    0 -0.55241831848E+02  0.83992692282E+02  0.75808752897E+02  0.12597964819E+03  0.41800000000E+01 0. -1.
         -5    1    3    3    0  502 -0.15033667959E+02 -0.45151398650E+02  0.43797767584E+02  0.64810314130E+02  0.41800000000E+01 0. -1.
        -11    1    1    2    0    0 -0.14677588806E+01 -0.48026178502E+02  0.14434220977E+03  0.15212935831E+03  0.00000000000E+00 0. -1.
         11    1    1    2    0    0  0.71743258688E+02  0.91848848699E+01  0.16697534688E+03  0.18196764477E+03  0.00000000000E+00 0.  1.
</event>
<event>
 7    1  0.2820496E-009  0.1208350E+03  0.7561462E-02  0.1241726E+00
         -2   -1    0    0    0  501 -0.00000000000E+00  0.00000000000E+00  0.14005112329E+02  0.14005112329E+02  0.00000000000E+00 0.  1.
          2   -1    0    0  501    0  0.00000000000E+00 -0.00000000000E+00 -0.10790529247E+04  0.10790529247E+04  0.00000000000E+00 0. -1.
         25    2    1    2    0    0  0.15947249580E+02 -0.54641083444E+02 -0.55647151451E+03  0.57319662242E+03  0.12511538164E+03 0.  0.
          5    1    3    3  502    0 -0.53069235839E+02 -0.23418498778E+02 -0.30639909131E+03  0.31186959684E+03  0.41800000000E+01 0.  1.
         -5    1    3    3    0  502  0.69016485418E+02 -0.31222584666E+02 -0.25007242319E+03  0.26132702557E+03  0.41800000000E+01 0.  1.
        -11    1    1    2    0    0 -0.21987914786E+02 -0.21802832483E+02 -0.13716333259E+03  0.14061511906E+03  0.00000000000E+00 0.  1.
         11    1    1    2    0    0  0.60406652058E+01  0.76443915927E+02 -0.37141296529E+03  0.37924629557E+03  0.00000000000E+00 0. -1.
</event>
<event>
 7    1  0.2820496E-009  0.1915780E+03  0.7561462E-02  0.1157046E+00
         -2   -1    0    0    0  501 -0.00000000000E+00  0.00000000000E+00  0.60235756666E+02  0.60235756666E+02  0.00000000000E+00 0.  1.
          2   -1    0    0  501    0  0.00000000000E+00 -0.00000000000E+00 -0.80544648583E+03  0.80544648583E+03  0.00000000000E+00 0. -1.
         25    2    1    2    0    0  0.17671739113E+03 -0.68406122694E+02 -0.44210473586E+03  0.49700356729E+03  0.12509002549E+03 0.  0.
          5    1    3    3  502    0  0.58069667214E+02 -0.70920797212E+01 -0.34474328681E+02  0.68031871818E+02  0.41800000000E+01 0. -1.
         -5    1    3    3    0  502  0.11864772391E+03 -0.61314042973E+02 -0.40763040718E+03  0.42897169547E+03  0.41800000000E+01 0. -1.
        -11    1    1    2    0    0 -0.49813287615E+02  0.84237320563E+01 -0.23291134678E+02  0.55630925207E+02  0.00000000000E+00 0. -1.
         11    1    1    2    0    0 -0.12690410351E+03  0.59982390638E+02 -0.27981485863E+03  0.31304775000E+03  0.00000000000E+00 0.  1.
</event>
<event>
 7    1  0.2820496E-009  0.1036670E+03  0.7561462E-02  0.1272768E+00
         -2   -1    0    0    0  501 -0.00000000000E+00  0.00000000000E+00  0.34521237988E+02  0.34521237988E+02  0.00000000000E+00 0. -1.
          2   -1    0    0  501    0  0.00000000000E+00 -0.00000000000E+00 -0.63687406353E+03  0.63687406353E+03  0.00000000000E+00 0.  1.
         25    2    1    2    0    0  0.90169973868E+02  0.66007370938E+01 -0.42760605901E+03  0.45460965152E+03  0.12509516232E+03 0.  0.
          5    1    3    3  502    0  0.24155590145E+01  0.13641613251E+02 -0.29518686024E+03  0.29554133957E+03  0.41800000000E+01 0.  1.
         -5    1    3    3    0  502  0.87754414853E+02 -0.70408761572E+01 -0.13241919877E+03  0.15906831195E+03  0.41800000000E+01 0.  1.
        -11    1    1    2    0    0 -0.66963556685E+02 -0.28540464288E+02 -0.16943715376E+03  0.18441156444E+03  0.00000000000E+00 0.  1.
         11    1    1    2    0    0 -0.23206417182E+02  0.21939727195E+02 -0.53096127737E+01  0.32374085557E+02  0.00000000000E+00 0. -1.
</event>
<event>
 7    1  0.2820496E-009  0.9189475E+02  0.7561462E-02  0.1298327E+00
         -2   -1    0    0    0  501 -0.00000000000E+00  0.00000000000E+00  0.15583652934E+02  0.15583652934E+02  0.00000000000E+00 0.  1.
          2   -1    0    0  501    0  0.00000000000E+00 -0.00000000000E+00 -0.91953264215E+03  0.91953264215E+03  0.00000000000E+00 0. -1.
         25    2    1    2    0    0  0.75506134524E+01  0.23102566528E+01 -0.70592280636E+03  0.71696432254E+03  0.12509389357E+03 0.  0.
          5    1    3    3  502    0 -0.48476834134E+02 -0.92625742577E+01 -0.14730934194E+03  0.15541336285E+03  0.41800000000E+01 0.  1.
         -5    1    3    3    0  502  0.56027447586E+02  0.11572830911E+02 -0.55861346442E+03  0.56155095969E+03  0.41800000000E+01 0.  1.
        -11    1    1    2    0    0 -0.41502688364E+02 -0.85536300625E+01 -0.16508105501E+03  0.17043295588E+03  0.00000000000E+00 0. -1.
         11    1    1    2    0    0  0.33952074911E+02  0.62433734097E+01 -0.32945127860E+02  0.47719016671E+02  0.00000000000E+00 0.  1.
</event>
<event>
 7    1  0.2820496E-009  0.1258485E+03  0.7561462E-02  0.1233749E+00
         -2   -1    0    0    0  501 -0.00000000000E+00  0.00000000000E+00  0.35295854067E+02  0.35295854067E+02  0.00000000000E+00 0. -1.
          2   -1    0    0  501    0  0.00000000000E+00 -0.00000000000E+00 -0.55943024925E+03  0.55943024925E+03  0.00000000000E+00 0.  1.
         25    2    1    2    0    0 -0.82126452014E+02 -0.31669677356E+02 -0.31435655259E+03  0.34959388235E+03  0.12509243716E+03 0.  0.
          5    1    3    3  502    0  0.85155559525E+00  0.35618207332E+02 -0.33525560104E+02  0.49100075568E+02  0.41800000000E+01 0.  1.
         -5    1    3    3    0  502 -0.82978007610E+02 -0.67287884687E+02 -0.28083099249E+03  0.30049380678E+03  0.41800000000E+01 0.  1.
        -11    1    1    2    0    0  0.75599859671E+01 -0.17859594058E+02 -0.27600905276E+01  0.19589195682E+02  0.00000000000E+00 0. -1.
         11    1    1    2    0    0  0.74566466047E+02  0.49529271414E+02 -0.20701775206E+03  0.22554302528E+03  0.00000000000E+00 0.  1.
</event>
<event>
 7    1  0.2820496E-009  0.1370203E+03  0.7561462E-02  0.1217396E+00
         -3   -1    0    0    0  501 -0.00000000000E+00  0.00000000000E+00  0.13640882874E+04  0.13640882874E+04  0.00000000000E+00 0.  1.
          3   -1    0    0  501    0  0.00000000000E+00 -0.00000000000E+00 -0.17381890321E+02  0.17381890321E+02  0.00000000000E+00 0. -1.
         25    2    1    2    0    0 -0.69503261944E+02  0.45137077090E+02  0.10278848187E+04  0.10387795659E+04  0.12509087444E+03 0.  0.
          5    1    3    3  502    0 -0.12395230886E+01  0.75209554407E+02  0.51160099262E+03  0.51711803444E+03  0.41800000000E+01 0. -1.
         -5    1    3    3    0  502 -0.68263738855E+02 -0.30072477317E+02  0.51628382612E+03  0.52166153150E+03  0.41800000000E+01 0. -1.
        -11    1    1    2    0    0  0.90034234409E+02 -0.49871365472E+02  0.28296053979E+03  0.30109796336E+03  0.00000000000E+00 0.  1.
         11    1    1    2    0    0 -0.20530972465E+02  0.47342883817E+01  0.35861038516E+02  0.41592648393E+02  0.00000000000E+00 0. -1.
</event>
<event>
 7    1  0.2820496E-009  0.1038220E+03  0.7561462E-02  0.1272458E+00
          2   -1    0    0  501    0  0.00000000000E+00  0.00000000000E+00  0.23740225071E+03  0.23740225071E+03  0.00000000000E+00 0.  1.
         -2   -1    0    0    0  501 -0.00000000000E+00 -0.00000000000E+00 -0.64579803609E+02  0.64579803609E+02  0.00000000000E+00 0. -1.
         25    2    1    2    0    0 -0.32910277689E+01 -0.55434860558E+02  0.69060617445E+02  0.15330582247E+03  0.12509776853E+03 0.  0.
          5    1    3    3  502    0  0.26330833363E+02 -0.87770603247E+02  0.37422350364E+02  0.99070158406E+02  0.41800000000E+01 0. -1.
         -5    1    3    3    0  502 -0.29621861132E+02  0.32335742689E+02  0.31638267080E+02  0.54235664060E+02  0.41800000000E+01 0. -1.
        -11    1    1    2    0    0  0.19651178924E+02  0.72006052328E+01 -0.10618267618E+02  0.23468386310E+02  0.00000000000E+00 0.  1.
         11    1    1    2    0    0 -0.16360151155E+02  0.48234255325E+02  0.11438009727E+03  0.12520784554E+03  0.00000000000E+00 0. -1.
</event>
<event>
 7    1  0.2820496E-009  0.1717999E+03  0.7561462E-02  0.1175984E+00
          2   -1    0    0  501    0  0.00000000000E+00  0.00000000000E+00  0.14318027823E+03  0.14318027823E+03  0.00000000000E+00 0. -1.
         -2   -1    0    0    0  501 -0.00000000000E+00 -0.00000000000E+00 -0.22196566141E+03  0.22196566141E+03  0.00000000000E+00 0.  1.
         25    2    1    2    0    0  0.10560399201E+03  0.77589229542E+02 -0.19978321148E+02  0.18226042539E+03  0.12508971852E+03 0.  0.
          5    1    3    3  502    0  0.64403691200E+02 -0.23119620376E+02  0.10091520933E+02  0.69294036405E+02  0.41800000000E+01 0. -1.
         -5    1    3    3    0  502  0.41200300808E+02  0.10070884992E+03 -0.30069842081E+02  0.11296638899E+03  0.41800000000E+01 0. -1.
        -11    1    1    2    0    0 -0.32629225754E+02  0.24401758717E+02 -0.38091195586E+02  0.55776799684E+02  0.00000000000E+00 0.  1.
         11    1    1    2    0    0 -0.72974766254E+02 -0.10199098826E+03 -0.20715866450E+02  0.12710871457E+03  0.00000000000E+00 0. -1.
</event>
<event>
 7    1  0.2820496E-009  0.1025372E+03  0.7561462E-02  0.1275049E+00
         -2   -1    0    0    0  501 -0.00000000000E+00  0.00000000000E+00  0.78236766743E+02  0.78236766743E+02  0.00000000000E+00 0. -1.
          2   -1    0    0  501    0  0.00000000000E+00 -0.00000000000E+00 -0.19468560570E+03  0.19468560570E+03  0.00000000000E+00 0.  1.
         25    2    1    2    0    0  0.45631733035E+02 -0.35843948049E+02 -0.79190624334E+02  0.15901140362E+03  0.12508568194E+03 0.  0.
          5    1    3    3  502    0 -0.17407247359E+02 -0.49211925457E+02  0.53382977655E+01  0.52638348101E+02  0.41800000000E+01 0.  1.
         -5    1    3    3    0  502  0.63038980394E+02  0.13367977409E+02 -0.84528922099E+02  0.10637305552E+03  0.41800000000E+01 0.  1.
        -11    1    1    2    0    0 -0.30433699653E+02 -0.15804738137E+02  0.16300252704E+02  0.37969699240E+02  0.00000000000E+00 0. -1.
         11    1    1    2    0    0 -0.15198033382E+02  0.51648686185E+02 -0.53558467323E+02  0.75941269579E+02  0.00000000000E+00 0.  1.
</event>
<event>
 7    1  0.2820496E-009  0.5559400E+02  0.7561462E-02  0.1417311E+00
         -2   -1    0    0    0  501 -0.00000000000E+00  0.00000000000E+00  0.96173510576E+01  0.96173510576E+01  0.00000000000E+00 0.  1.
          2   -1    0    0  501    0  0.00000000000E+00 -0.00000000000E+00 -0.13700723873E+04  0.13700723873E+04  0.00000000000E+00 0. -1.
         25    2    1    2    0    0 -0.94795700647E+01  0.12651026019E+02 -0.97525713287E+03  0.98337643217E+03  0.12511123624E+03 0.  0.
          5    1    3    3  502    0 -0.87196514220E+01  0.16663572479E+00 -0.18089693261E+01  0.98389460009E+01  0.41800000000E+01 0. -1.
         -5    1    3    3    0  502 -0.75991864266E+00  0.12484390294E+02 -0.97344816354E+03  0.97353748617E+03  0.41800000000E+01 0. -1.
        -11    1    1    2    0    0 -0.19358003156E+02 -0.42576376690E+02 -0.13966494822E+03  0.14728807793E+03  0.00000000000E+00 0.  1.
         11    1    1    2    0    0  0.28837573220E+02  0.29925350671E+02 -0.24553295513E+03  0.24902522823E+03  0.00000000000E+00 0. -1.
</event>
<event>
 7    1  0.2820496E-009  0.1195946E+03  0.7561462E-02  0.1243767E+00
          2   -1    0    0  501    0  0.00000000000E+00  0.00000000000E+00  0.10328011375E+03  0.10328011375E+03  0.00000000000E+00 0. -1.
         -2   -1    0    0    0  501 -0.00000000000E+00 -0.00000000000E+00 -0.45060771011E+03  0.45060771011E+03  0.00000000000E+00 0.  1.
         25    2    1    2    0    0 -0.81961371291E+02 -0.67480086582E+02 -0.37609626987E+03  0.41032566682E+03  0.12509004824E+03 0.  0.
          5    1    3    3  502    0 -0.22315817909E+02  0.15533351586E+02 -0.23188860379E+03  0.23351461990E+03  0.41800000000E+01 0.  1.
         -5    1    3    3    0  502 -0.59645553382E+02 -0.83013438168E+02 -0.14420766608E+03  0.17681104691E+03  0.41800000000E+01 0.  1.
        -11    1    1    2    0    0  0.34570533801E+02  0.45477824196E+02  0.59874537558E+02  0.82754543976E+02  0.00000000000E+00 0. -1.
         11    1    1    2    0    0  0.47390837490E+02  0.22002262385E+02 -0.31105864054E+02  0.60807613065E+02  0.00000000000E+00 0.  1.
</event>
<event>
 7    1  0.2820496E-009  0.9107339E+02  0.7561462E-02  0.1300273E+00
         -2   -1    0    0    0  501 -0.00000000000E+00  0.00000000000E+00  0.26270463296E+02  0.26270463296E+02  0.00000000000E+00 0.  1.
          2   -1    0    0  501    0  0.00000000000E+00 -0.00000000000E+00 -0.62466292328E+03  0.62466292328E+03  0.00000000000E+00 0. -1.
         25    2    1    2    0    0  0.36840398936E+02 -0.48409412367E+02 -0.40272745680E+03  0.42607204718E+03  0.12508916308E+03 0.  0.
          5    1    3    3  502    0 -0.24050064146E+01  0.10419954006E+02 -0.30580172872E+03  0.30601720407E+03  0.41800000000E+01 0. -1.
         -5    1    3    3    0  502  0.39245405350E+02 -0.58829366372E+02 -0.96925728083E+02  0.12005484311E+03  0.41800000000E+01 0. -1.
        -11    1    1    2    0    0 -0.44896583553E+02 -0.55745582199E+01 -0.41775765680E+02  0.61579164595E+02  0.00000000000E+00 0.  1.
         11    1    1    2    0    0  0.80561846172E+01  0.53983970587E+02 -0.15388923750E+03  0.16328217480E+03  0.00000000000E+00 0. -1.
</event>
<event>
 7    1  0.2820496E-009  0.9640065E+02  0.7561462E-02  0.1288052E+00
          2   -1    0    0  501    0  0.00000000000E+00  0.00000000000E+00  0.56099920197E+03  0.56099920197E+03  0.00000000000E+00 0. -1.
         -2   -1    0    0    0  501 -0.00000000000E+00 -0.00000000000E+00 -0.22810498666E+02  0.22810498666E+02  0.00000000000E+00 0.  1.
         25    2    1    2    0    0 -0.19658273797E+02  0.31726833187E+02  0.28359495173E+03  0.31219614839E+03  0.12508916320E+03 0.  0.
          5    1    3    3  502    0 -0.49049781181E+02  0.45612839620E+02  0.26729709839E+03  0.27559322085E+03  0.41800000000E+01 0. -1.
         -5    1    3    3    0  502  0.29391507384E+02 -0.13886006433E+02  0.16297853340E+02  0.36602927540E+02  0.41800000000E+01 0. -1.
        -11    1    1    2    0    0 -0.30158006812E+02 -0.30778297579E+02  0.92694724639E+02  0.10222094185E+03  0.00000000000E+00 0. -1.
         11    1    1    2    0    0  0.49816280609E+02 -0.94853560769E+00  0.16189902694E+03  0.16939261040E+03  0.00000000000E+00 0.  1.
</event>
<event>
 7    1  0.2820496E-009  0.1300084E+03  0.7561462E-02  0.1227443E+00
          3   -1    0    0  501    0  0.00000000000E+00  0.00000000000E+00  0.89934831527E+03  0.89934831527E+03  0.00000000000E+00 0. -1.
         -3   -1    0    0    0  501 -0.00000000000E+00 -0.00000000000E+00 -0.31468540980E+02  0.31468540980E+02  0.00000000000E+00 0.  1.
         25    2    1    2    0    0 -0.45895676675E+02 -0.71449811005E+02  0.71971432240E+03  0.73542299180E+03  0.12508709916E+03 0.  0.
          5    1    3    3  502    0 -0.69544426932E+01 -0.10149885290E+03  0.48271903862E+03  0.49334118423E+03  0.41800000000E+01 0.  1.
         -5    1    3    3    0  502 -0.38941233982E+02  0.30049041899E+02  0.23699528378E+03  0.24208180757E+03  0.41800000000E+01 0.  1.
        -11    1    1    2    0    0  0.31758653976E+02 -0.40518165085E+01  0.42965973898E+01  0.32303096887E+02  0.00000000000E+00 0.  1.
         11    1    1    2    0    0  0.14137022699E+02  0.75501627514E+02  0.14386885450E+03  0.16309076756E+03  0.00000000000E+00 0. -1.
</event>
<event>
 7    1  0.2820496E-009  0.1793551E+03  0.7561462E-02  0.1168429E+00
         -1   -1    0    0    0  501 -0.00000000000E+00  0.00000000000E+00  0.15621217429E+03  0.15621217429E+03  0.00000000000E+00 0.  1.
          1   -1    0    0  501    0  0.00000000000E+00 -0.00000000000E+00 -0.28691588462E+03  0.28691588462E+03  0.00000000000E+00 0. -1.
         25    2    1    2    0    0 -0.12890454918E+03  0.67500111733E+02  0.44505413103E+02  0.19697974313E+03  0.12509052532E+03 0.  0.
          5    1    3    3  502    0 -0.27548207993E+02 -0.36485948167E+02  0.35488107321E+01  0.46045571284E+02  0.41800000000E+01 0.  1.
         -5    1    3    3    0  502 -0.10135634119E+03  0.10398605990E+03  0.40956602371E+02  0.15093417184E+03  0.41800000000E+01 0.  1.
        -11    1    1    2    0    0  0.16894166026E+02  0.19427976300E+02 -0.80900538165E+01  0.26987183617E+02  0.00000000000E+00 0.  1.
         11    1    1    2    0    0  0.11201038315E+03 -0.86928088033E+02 -0.16711906961E+03  0.21916113216E+03  0.00000000000E+00 0. -1.
</event>
<event>
 7    1  0.2820496E-009  0.9946059E+02  0.7561462E-02  0.1281434E+00
         -2   -1    0    0    0  501 -0.00000000000E+00  0.00000000000E+00  0.14859562189E+02  0.14859562189E+02  0.00000000000E+00 0. -1.
          2   -1    0    0  501    0  0.00000000000E+00 -0.00000000000E+00 -0.12083167488E+04  0.12083167488E+04  0.00000000000E+00 0.  1.
         25    2    1    2    0    0 -0.69007094000E+02 -0.18189975201E+02 -0.74671349519E+03  0.76047308686E+03  0.12508164417E+03 0.  0.
          5    1    3    3  502    0 -0.58655670135E+02 -0.20731319049E+01 -0.12196290394E+03  0.13541494693E+03  0.41800000000E+01 0. -1.
         -5    1    3    3    0  502 -0.10351423865E+02 -0.16116843296E+02 -0.62475059126E+03  0.62505813993E+03  0.41800000000E+01 0. -1.
        -11    1    1    2    0    0  0.92595279481E+02  0.34495055220E+01 -0.34287767450E+03  0.35517725791E+03  0.00000000000E+00 0.  1.
         11    1    1    2    0    0 -0.23588185481E+02  0.14740469679E+02 -0.10386601691E+03  0.10752596621E+03  0.00000000000E+00 0. -1.
</event>
<event>
 7    1  0.2820496E-009  0.1209468E+03  0.7561462E-02  0.1241543E+00
         -2   -1    0    0    0  501 -0.00000000000E+00  0.00000000000E+00  0.21813364380E+02  0.21813364380E+02  0.00000000000E+00 0.  1.
          2   -1    0    0  501    0  0.00000000000E+00 -0.00000000000E+00 -0.79629763033E+03  0.79629763033E+03  0.00000000000E+00 0. -1.
         25    2    1    2    0    0  0.40516790252E+02 -0.56627024125E+02 -0.50857905581E+03  0.52834424732E+03  0.12508699978E+03 0.  0.
          5    1    3    3  502    0  0.27336370984E+02  0.37056414342E+02 -0.21319993361E+03  0.21815622639E+03  0.41800000000E+01 0. -1.
         -5    1    3    3    0  502  0.13180419268E+02 -0.93683438467E+02 -0.29537912220E+03  0.31018802093E+03  0.41800000000E+01 0. -1.
        -11    1    1    2    0    0 -0.59432839624E+02  0.25803800768E+02 -0.94442267650E+02  0.11453139517E+03  0.00000000000E+00 0.  1.
         11    1    1    2    0    0  0.18916049372E+02  0.30823223357E+02 -0.17146294249E+03  0.17523535222E+03  0.00000000000E+00 0. -1.
</event>
<event>
 7    1  0.2820496E-009  0.1139043E+03  0.7561462E-02  0.1253506E+00
         -1   -1    0    0    0  501 -0.00000000000E+00  0.00000000000E+00  0.16957096136E+03  0.16957096136E+03  0.00000000000E+00 0.  1.
          1   -1    0    0  501    0  0.00000000000E+00 -0.00000000000E+00 -0.16908438950E+03  0.16908438950E+03  0.00000000000E+00 0. -1.
         25    2    1    2    0    0 -0.53324927576E+01  0.10153846925E+03  0.78805784752E+02  0.17943314724E+03  0.12508959349E+03 0.  0.
          5    1    3    3  502    0 -0.18895477559E+01  0.11255102786E+03  0.14041312328E+02  0.11351623283E+03  0.41800000000E+01 0.  1.
         -5    1    3    3    0  502 -0.34429450017E+01 -0.11012558608E+02  0.64764472423E+02  0.65916914413E+02  0.41800000000E+01 0.  1.
        -11    1    1    2    0    0  0.96049039904E+01 -0.91217593418E+02 -0.99469336111E+02  0.13530355633E+03  0.00000000000E+00 0. -1.
         11    1    1    2    0    0 -0.42724112328E+01 -0.10320875834E+02  0.21150123224E+02  0.23918647288E+02  0.00000000000E+00 0.  1.
</event>
<event>
 7    1  0.2820496E-009  0.1124480E+03  0.7561462E-02  0.1256103E+00
         -1   -1    0    0    0  501 -0.00000000000E+00  0.00000000000E+00  0.19183678229E+02  0.19183678229E+02  0.00000000000E+00 0.  1.
          1   -1    0    0  501    0  0.00000000000E+00 -0.00000000000E+00 -0.67999809503E+03  0.67999809503E+03  0.00000000000E+00 0. -1.
         25    2    1    2    0    0 -0.79237255081E+01  0.30542622978E+02 -0.43779988031E+03  0.45641068587E+03  0.12508533781E+03 0.  0.
          5    1    3    3  502    0  0.57853607113E+02  0.46739286483E+01 -0.19979299695E+03  0.20809516933E+03  0.41800000000E+01 0.  1.
         -5    1    3    3    0  502 -0.65777332621E+02  0.25868694329E+02 -0.23800688335E+03  0.24831551655E+03  0.41800000000E+01 0.  1.
        -11    1    1    2    0    0  0.67939970107E+01 -0.63028349874E+02 -0.14453216009E+03  0.15782356156E+03  0.00000000000E+00 0.  1.
         11    1    1    2    0    0  0.11297284974E+01  0.32485726896E+02 -0.78482376395E+02  0.84947525821E+02  0.00000000000E+00 0. -1.
</event>
<event>
 7    1  0.2820496E-009  0.8927495E+02  0.7561462E-02  0.1304617E+00
          2   -1    0    0  501    0  0.00000000000E+00  0.00000000000E+00  0.28256730745E+03  0.28256730745E+03  0.00000000000E+00 0. -1.
         -2   -1    0    0    0  501 -0.00000000000E+00 -0.00000000000E+00 -0.43830336164E+02  0.43830336164E+02  0.00000000000E+00 0.  1.
         25    2    1    2    0    0 -0.23446894236E+02  0.42533547333E+01  0.13780384615E+03  0.18763209019E+03  0.12509217953E+03 0.  0.
          5    1    3    3  502    0 -0.45914407250E+01  0.58634366224E+02  0.31931880259E+02  0.67053617407E+02  0.41800000000E+01 0. -1.
         -5    1    3    3    0  502 -0.18855453511E+02 -0.54381011491E+02  0.10587196589E+03  0.12057847278E+03  0.41800000000E+01 0. -1.
        -11    1    1    2    0    0  0.32417102479E+01 -0.29423912390E+02  0.10226289813E+03  0.10646114615E+03  0.00000000000E+00 0. -1.
         11    1    1    2    0    0  0.20205183988E+02  0.25170557657E+02 -0.13297729957E+01  0.32304407269E+02  0.00000000000E+00 0.  1.
</event>
<event>
 7    1  0.2820496E-009  0.4465707E+02  0.7561462E-02  0.1476494E+00
          1   -1    0    0  501    0  0.00000000000E+00  0.00000000000E+00  0.29747635621E+03  0.29747635621E+03  0.00000000000E+00 0. -1.
         -1   -1    0    0    0  501 -0.00000000000E+00 -0.00000000000E+00 -0.68971298803E+02  0.68971298803E+02  0.00000000000E+00 0.  1.
         25    2    1    2    0    0  0.93382556300E+01  0.15759946834E+02  0.24358956257E+03  0.27444219808E+03  0.12508823347E+03 0.  0.
          5    1    3    3  502    0  0.24926829800E+02 -0.53152079358E+01  0.24639898006E+03  0.24774892140E+03  0.41800000000E+01 0.  1.
         -5    1    3    3    0  502 -0.15588574170E+02  0.21075154770E+02 -0.28094174944E+01  0.26693276680E+02  0.41800000000E+01 0.  1.
        -11    1    1    2    0    0  0.60605062386E+01 -0.20058386630E+02  0.34246560148E+02  0.40148418301E+02  0.00000000000E+00 0. -1.
         11    1    1    2    0    0 -0.15398761869E+02  0.42984397960E+01 -0.49331065306E+02  0.51857038635E+02  0.00000000000E+00 0.  1.
</event>
<event>
 7    1  0.2820496E-009  0.9550706E+02  0.7561462E-02  0.1290038E+00
         -4   -1    0    0    0  501 -0.00000000000E+00  0.00000000000E+00  0.12690912566E+03  0.12690912566E+03  0.00000000000E+00 0.  1.
          4   -1    0    0  501    0  0.00000000000E+00 -0.00000000000E+00 -0.15601240880E+03  0.15601240880E+03  0.00000000000E+00 0. -1.
         25    2    1    2    0    0 -0.73586609289E+02  0.20431953515E+02 -0.62440388062E+02  0.15930728627E+03  0.12509018989E+03 0.  0.
          5    1    3    3  502    0 -0.88564501531E+02  0.33043354253E+02 -0.86365978337E+02  0.12810967491E+03  0.41800000000E+01 0. -1.
         -5    1    3    3    0  502  0.14977892241E+02 -0.12611400738E+02  0.23925590275E+02  0.31197611360E+02  0.41800000000E+01 0. -1.
        -11    1    1    2    0    0  0.59509467749E+02 -0.16304454025E+02 -0.22656602916E+02  0.65730766225E+02  0.00000000000E+00 0. -1.
         11    1    1    2    0    0  0.14077141540E+02 -0.41274994900E+01  0.55993707837E+02  0.57883481956E+02  0.00000000000E+00 0.  1.
</event>
<event>
 7    1  0.2820496E-009  0.1079905E+03  0.7561462E-02  0.1264337E+00
          1   -1    0    0  501    0  0.00000000000E+00  0.00000000000E+00  0.55623228280E+02  0.55623228280E+02  0.00000000000E+00 0. -1.
         -1   -1    0    0    0  501 -0.00000000000E+00 -0.00000000000E+00 -0.27384122400E+03  0.27384122400E+03  0.00000000000E+00 0.  1.
         25    2    1    2    0    0  0.62925288464E+01 -0.58549415805E+02 -0.10430244167E+03  0.17318907451E+03  0.12509127141E+03 0.  0.
          5    1    3    3  502    0  0.82165341385E+01  0.33586679453E+02 -0.12127899608E+01  0.34849960249E+02  0.41800000000E+01 0. -1.
         -5    1    3    3    0  502 -0.19240052921E+01 -0.92136095257E+02 -0.10308965171E+03  0.13833911426E+03  0.41800000000E+01 0. -1.
        -11    1    1    2    0    0 -0.21144302520E+02 -0.65449305543E+01  0.22924006747E+01  0.22252477297E+02  0.00000000000E+00 0. -1.
         11    1    1    2    0    0  0.14851773673E+02  0.65094346359E+02 -0.11620795472E+03  0.13402290047E+03  0.00000000000E+00 0.  1.
</event>
<event>
 7    1  0.2820496E-009  0.9694405E+02  0.7561462E-02  0.1286857E+00
          4   -1    0    0  501    0  0.00000000000E+00  0.00000000000E+00  0.41364439247E+02  0.41364439247E+02  0.00000000000E+00 0. -1.
         -4   -1    0    0    0  501 -0.00000000000E+00 -0.00000000000E+00 -0.53951040012E+03  0.53951040012E+03  0.00000000000E+00 0.  1.
         25    2    1    2    0    0 -0.66337103746E+02 -0.26778879686E+02 -0.14508095823E+03  0.20448363772E+03  0.12508938375E+03 0.  0.
          5    1    3    3  502    0 -0.16226619406E+02 -0.62241545090E+01 -0.14895368747E+03  0.15002238728E+03  0.41800000000E+01 0. -1.
         -5    1    3    3    0  502 -0.50110484340E+02 -0.20554725177E+02  0.38727292374E+01  0.54461250441E+02  0.41800000000E+01 0. -1.
        -11    1    1    2    0    0  0.20258963884E+01  0.52417239658E+02 -0.88135474836E+02  0.10256477560E+03  0.00000000000E+00 0. -1.
         11    1    1    2    0    0  0.64311207357E+02 -0.25638359972E+02 -0.26492952781E+03  0.27382642604E+03  0.00000000000E+00 0.  1.
</event>
<event>
 7    1  0.2820496E-009  0.1366208E+03  0.7561462E-02  0.1217950E+00
          2   -1    0    0  501    0  0.00000000000E+00  0.00000000000E+00  0.35305249489E+03  0.35305249489E+03  0.00000000000E+00 0. -1.
         -2   -1    0    0    0  501 -0.00000000000E+00 -0.00000000000E+00 -0.11544624483E+03  0.11544624483E+03  0.00000000000E+00 0.  1.
         25    2    1    2    0    0  0.12128799496E+03 -0.77363288959E+01  0.26051107268E+03  0.31351322540E+03  0.12511552664E+03 0.  0.
          5    1    3    3  502    0  0.72928421096E+02 -0.17045675353E+02  0.35225593029E+02  0.82869924919E+02  0.41800000000E+01 0. -1.
         -5    1    3    3    0  502  0.48359573865E+02  0.93093464572E+01  0.22528547965E+03  0.23064330049E+03  0.41800000000E+01 0. -1.
        -11    1    1    2    0    0 -0.11720825679E+03  0.34148246127E+02 -0.38120976339E+01  0.12214094425E+03  0.00000000000E+00 0.  1.
         11    1    1    2    0    0 -0.40797381665E+01 -0.26411917232E+02 -0.19092724991E+02  0.32844570068E+02  0.00000000000E+00 0. -1.
</event>
<event>
 6    1  0.2820496E-009  0.2420790E+03  0.7561462E-02  0.1118416E+00
         -2   -1    0    0    0  501 -0.00000000000E+00  0.00000000000E+00  0.84465984051E+02  0.84465984051E+02  0.00000000000E+00 0.  1.
          2   -1    0    0  501    0  0.00000000000E+00 -0.00000000000E+00 -0.10236540892E+04  0.10236540892E+04  0.00000000000E+00 0. -1.
          5    1    1    2  502    0  0.15343414931E+02 -0.69516199075E+02 -0.41068290160E+03  0.41682831044E+03  0.41800000000E+01 0.  1.
         -5    1    1    2    0  502  0.11491895218E+03 -0.12072174380E+03 -0.34610915320E+03  0.38417329855E+03  0.41800000000E+01 0.  1.
        -11    1    1    2    0    0 -0.35775958586E+02  0.24000689288E+01 -0.36708228196E+02  0.51314457621E+02  0.00000000000E+00 0. -1.
         11    1    1    2    0    0 -0.94486408526E+02  0.18783787395E+03 -0.14568782215E+03  0.25580400663E+03  0.00000000000E+00 0.  1.
</event>
<event>
 7    1  0.2820496E-009  0.1447408E+03  0.7561462E-02  0.1207089E+00
          2   -1    0    0  501    0  0.00000000000E+00  0.00000000000E+00  0.17147535436E+03  0.17147535436E+03  0.00000000000E+00 0. -1.
         -2   -1    0    0    0  501 -0.00000000000E+00 -0.00000000000E+00 -0.15019401890E+03  0.15019401890E+03  0.00000000000E+00 0.  1.
         25    2    1    2    0    0  0.43609495136E+02  0.10834767284E+03  0.28812161189E+02  0.17354562274E+03  0.12508771428E+03 0.  0.
          5    1    3    3  502    0  0.82594962045E+02  0.70134505920E+02  0.43538201210E+02  0.11684957869E+03  0.41800000000E+01 0.  1.
         -5    1    3    3    0  502 -0.38985466909E+02  0.38213166924E+02 -0.14726040021E+02  0.56696044052E+02  0.41800000000E+01 0.  1.
        -11    1    1    2    0    0 -0.39224637175E+02 -0.34263791387E+02 -0.41414202158E+02  0.66541082814E+02  0.00000000000E+00 0.  1.
         11    1    1    2    0    0 -0.43848579611E+01 -0.74083881457E+02  0.33883376436E+02  0.81582667704E+02  0.00000000000E+00 0. -1.
</event>
<event>
 7    1  0.2820496E-009  0.1108139E+03  0.7561462E-02  0.1259070E+00
         -1   -1    0    0    0  501 -0.00000000000E+00  0.00000000000E+00  0.14870080801E+03  0.14870080801E+03  0.00000000000E+00 0.  1.
          1   -1    0    0  501    0  0.00000000000E+00 -0.00000000000E+00 -0.11720958827E+03  0.11720958827E+03  0.00000000000E+00 0. -1.
         25    2    1    2    0    0 -0.21067396424E+02  0.29721708914E+02  0.85801743777E+02  0.15600201605E+03  0.12508986611E+03 0.  0.
          5    1    3    3  502    0 -0.11344996613E+02  0.77654187217E+02  0.37289043085E+02  0.86987509877E+02  0.41800000000E+01 0. -1.
         -5    1    3    3    0  502 -0.97223998105E+01 -0.47932478302E+02  0.48512700691E+02  0.69014506175E+02  0.41800000000E+01 0. -1.
        -11    1    1    2    0    0  0.21561742601E+02 -0.59954796354E+02 -0.27127241471E+02  0.69248635941E+02  0.00000000000E+00 0.  1.
         11    1    1    2    0    0 -0.49434617730E+00  0.30233087440E+02 -0.27183282569E+02  0.40659744287E+02  0.00000000000E+00 0. -1.
</event>
<event>
 7    1  0.2820496E-009  0.2306935E+03  0.7561462E-02  0.1126153E+00
         -1   -1    0    0    0  501 -0.00000000000E+00  0.00000000000E+00  0.56185232701E+03  0.56185232701E+03  0.00000000000E+00 0.  1.
          1   -1    0    0  501    0  0.00000000000E+00 -0.00000000000E+00 -0.13185382536E+03  0.13185382536E+03  0.00000000000E+00 0. -1.
         25    2    1    2    0    0 -0.12070014088E+03 -0.18585818650E+03  0.74091013087E+02  0.26504361068E+03  0.12508736085E+03 0.  0.
          5    1    3    3  502    0 -0.12117614281E+03 -0.13554101700E+03  0.82167266568E+01  0.18204398335E+03  0.41800000000E+01 0.  1.
         -5    1    3    3    0  502  0.47600193073E+00 -0.50317169499E+02  0.65874286431E+02  0.82999627330E+02  0.41800000000E+01 0.  1.
        -11    1    1    2    0    0  0.80337208506E+02  0.70727447376E+02  0.22815025610E+03  0.25200987727E+03  0.00000000000E+00 0.  1.
         11    1    1    2    0    0  0.40362932374E+02  0.11513073912E+03  0.12775723247E+03  0.17665266443E+03  0.00000000000E+00 0. -1.
</event>
<event>
 7    1  0.3702121E-009  0.1086581E+03  0.7561462E-02  0.1263075E+00
         -2   -1    0    0    0  501 -0.00000000000E+00  0.00000000000E+00  0.37929139553E+02  0.37929139553E+02  0.00000000000E+00 0.  1.
          2   -1    0    0  501    0  0.00000000000E+00 -0.00000000000E+00 -0.48831440730E+03  0.48831440730E+03  0.00000000000E+00 0. -1.
         25    2    1    2    0    0 -0.31068917561E+02 -0.69952738301E+02 -0.30314840985E+03  0.33675549897E+03  0.12508654786E+03 0.  0.
          5    1    3    3  502    0  0.39182825197E+02 -0.50079231732E+01 -0.38517432163E+02  0.55330263558E+02  0.41800000000E+01 0.  1.
         -5    1    3    3    0  502 -0.70251742758E+02 -0.64944815127E+02 -0.26463097769E+03  0.28142523541E+03  0.41800000000E+01 0.  1.
        -11    1    1    2    0    0  0.73638145545E+01  0.50867184320E+02 -0.14637561029E+02  0.53441130212E+02  0.00000000000E+00 0.  1.
         11    1    1    2    0    0  0.23705103007E+02  0.19085553981E+02 -0.13259929687E+03  0.13604691768E+03  0.00000000000E+00 0. -1.
</event>
<event>
 7    1  0.2820496E-009  0.1188210E+03  0.7561462E-02  0.1245055E+00
         -1   -1    0    0    0  501 -0.00000000000E+00  0.00000000000E+00  0.28025708875E+03  0.28025708875E+03  0.00000000000E+00 0.  1.
          1   -1    0    0  501    0  0.00000000000E+00 -0.00000000000E+00 -0.82656111699E+02  0.82656111699E+02  0.00000000000E+00 0. -1.
         25    2    1    2    0    0 -0.33200436840E+02  0.78194627937E+02  0.18318695900E+03  0.23751796080E+03  0.12506258798E+03 0.  0.
          5    1    3    3  502    0  0.38600455964E+02 -0.72284002341E+01  0.46005022613E+02  0.60631505640E+02  0.41800000000E+01 0. -1.
         -5    1    3    3    0  502 -0.71800892804E+02  0.85423028172E+02  0.13718193639E+03  0.17688645516E+03  0.41800000000E+01 0. -1.
        -11    1    1    2    0    0  0.11732652197E+02 -0.11553547696E+02  0.45798872090E+02  0.48669048446E+02  0.00000000000E+00 0.  1.
         11    1    1    2    0    0  0.21467784643E+02 -0.66641080241E+02 -0.31384854036E+02  0.76726191200E+02  0.00000000000E+00 0. -1.
</event>
<event>
 7    1  0.4298293E-009  0.8981337E+02  0.7561462E-02  0.1303304E+00
         -1   -1    0    0    0  501 -0.00000000000E+00  0.00000000000E+00  0.14369612167E+02  0.14369612167E+02  0.00000000000E+00 0.  1.
          1   -1    0    0  501    0  0.00000000000E+00 -0.00000000000E+00 -0.21451925990E+04  0.21451925990E+04  0.00000000000E+00 0. -1.
         25    2    1    2    0    0  0.45541672045E+02 -0.64558578363E+02 -0.18254654428E+04  0.18314509417E+04  0.12508642931E+03 0.  0.
          5    1    3    3  502    0  0.39761318492E+02 -0.37767820928E+02 -0.17530087118E+04  0.17538712572E+04  0.41800000000E+01 0.  1.
         -5    1    3    3    0  502  0.57803535526E+01 -0.26790757435E+02 -0.72456731073E+02  0.77579684511E+02  0.41800000000E+01 0.  1.
        -11    1    1    2    0    0 -0.72602021942E+01 -0.10430675313E+02 -0.14907996914E+01  0.12795780832E+02  0.00000000000E+00 0.  1.
         11    1    1    2    0    0 -0.38281469851E+02  0.74989253676E+02 -0.30386674427E+03  0.31531548863E+03  0.00000000000E+00 0. -1.
</event>
<event>
 7    1  0.2820496E-009  0.1147654E+03  0.7561462E-02  0.1251991E+00
          3   -1    0    0  501    0  0.00000000000E+00  0.00000000000E+00  0.19765152700E+03  0.19765152700E+03  0.00000000000E+00 0. -1.
         -3   -1    0    0    0  501 -0.00000000000E+00 -0.00000000000E+00 -0.88641503131E+02  0.88641503131E+02  0.00000000000E+00 0.  1.
         25    2    1    2    0    0  0.48733190263E+02  0.53263044021E+02  0.33595158514E+02  0.14828500914E+03  0.12509170063E+03 0.  0.
          5    1    3    3  502    0 -0.23500593999E+02  0.29303278224E+02  0.57143732284E+02  0.68511594437E+02  0.41800000000E+01 0.  1.
         -5    1    3    3    0  502  0.72233784263E+02  0.23959765797E+02 -0.23548573770E+02  0.79773414698E+02  0.41800000000E+01 0.  1.
        -11    1    1    2    0    0 -0.37157734775E+02 -0.78997307347E+02  0.55019819549E+02  0.10319133861E+03  0.00000000000E+00 0.  1.
         11    1    1    2    0    0 -0.11575455489E+02  0.25734263326E+02  0.20395045808E+02  0.34816682383E+02  0.00000000000E+00 0. -1.
</event>
<event>
 7    1  0.2820496E-009  0.2653126E+03  0.7561462E-02  0.1103993E+00
          2   -1    0    0  501    0  0.00000000000E+00  0.00000000000E+00  0.10598870743E+04  0.10598870743E+04  0.00000000000E+00 0. -1.
         -2   -1    0    0    0  501 -0.00000000000E+00 -0.00000000000E+00 -0.81712837546E+02  0.81712837546E+02  0.00000000000E+00 0.  1.
         25    2    1    2    0    0 -0.23884121980E+03  0.70778218168E+02  0.28388163030E+03  0.39785876595E+03  0.12509249849E+03 0.  0.
          5    1    3    3  502    0 -0.24658113953E+03  0.79646535230E+02  0.24356108947E+03  0.35564772690E+03  0.41800000000E+01 0. -1.
         -5    1    3    3    0  502  0.77399197250E+01 -0.88683170630E+01  0.40320540832E+02  0.42211039052E+02  0.41800000000E+01 0. -1.
        -11    1    1    2    0    0  0.18727834261E+02 -0.29624515390E+02  0.17092021173E+03  0.17447653844E+03  0.00000000000E+00 0.  1.
         11    1    1    2    0    0  0.22011338554E+03 -0.41153702778E+02  0.52337239476E+03  0.56926460749E+03  0.00000000000E+00 0. -1.
</event>
<event>
 7    1  0.2820496E-009  0.1617640E+03  0.7561462E-02  0.1186720E+00
         -2   -1    0    0    0  501 -0.00000000000E+00  0.00000000000E+00  0.13335523381E+03  0.13335523381E+03  0.00000000000E+00 0.  1.
          2   -1    0    0  501    0  0.00000000000E+00 -0.00000000000E+00 -0.27860341189E+03  0.27860341189E+03  0.00000000000E+00 0. -1.
         25    2    1    2    0    0 -0.94676678619E+02 -0.95317963857E+02 -0.16669632244E+03  0.24796000464E+03  0.12508921727E+03 0.  0.
          5    1    3    3  502    0  0.13098854481E+02  0.11435060716E+02 -0.59589807235E+02  0.62215417129E+02  0.41800000000E+01 0.  1.
         -5    1    3    3    0  502 -0.10777553310E+03 -0.10675302457E+03 -0.10710651521E+03  0.18574458751E+03  0.41800000000E+01 0.  1.
        -11    1    1    2    0    0  0.99922460539E+02  0.56640659850E+02 -0.79505906791E+01  0.11513415810E+03  0.00000000000E+00 0. -1.
         11    1    1    2    0    0 -0.52457819198E+01  0.38677304008E+02  0.29398735040E+02  0.48864482963E+02  0.00000000000E+00 0.  1.
</event>
<event>
 7    1  0.2820496E-009  0.3515934E+03  0.7561462E-02  0.1061963E+00
          2   -1    0    0  501    0  0.00000000000E+00  0.00000000000E+00  0.67660948768E+03  0.67660948768E+03  0.00000000000E+00 0. -1.
         -2   -1    0    0    0  501 -0.00000000000E+00 -0.00000000000E+00 -0.18447762350E+03  0.18447762350E+03  0.00000000000E+00 0.  1.
         25    2    1    2    0    0  0.31293764172E+03  0.11870056099E+03  0.21257759646E+03  0.41576015430E+03  0.12508989006E+03 0.  0.
          5    1    3    3  502    0  0.16457060859E+03  0.12704892626E+03  0.13668936811E+03  0.24885009670E+03  0.41800000000E+01 0.  1.
         -5    1    3    3    0  502  0.14836703313E+03 -0.83483652640E+01  0.75888228348E+02  0.16691005759E+03  0.41800000000E+01 0.  1.
        -11    1    1    2    0    0 -0.29678888972E+03 -0.84225752204E+02  0.25161482727E+03  0.39810506615E+03  0.00000000000E+00 0. -1.
         11    1    1    2    0    0 -0.16148752007E+02 -0.34474808788E+02  0.27939440446E+02  0.47221890737E+02  0.00000000000E+00 0.  1.
</event>
<event>
 7    1  0.2820496E-009  0.1313199E+03  0.7561462E-02  0.1225510E+00
         -2   -1    0    0    0  501 -0.00000000000E+00  0.00000000000E+00  0.22855878796E+03  0.22855878796E+03  0.00000000000E+00 0.  1.
          2   -1    0    0  501    0  0.00000000000E+00 -0.00000000000E+00 -0.94294744910E+02  0.94294744910E+02  0.00000000000E+00 0. -1.
         25    2    1    2    0    0  0.95452148687E+02 -0.40796370773E+01  0.10398076718E+03  0.18864533165E+03  0.12508918851E+03 0.  0.
          5    1    3    3  502    0 -0.20356950436E+02  0.26001454123E+02  0.57484166119E+01  0.33778658071E+02  0.41800000000E+01 0. -1.
         -5    1    3    3    0  502  0.11580909912E+03 -0.30081091200E+02  0.98232350570E+02  0.15486667358E+03  0.41800000000E+01 0. -1.
        -11    1    1    2    0    0 -0.55187700957E+02 -0.24368593962E+02  0.52649352238E+02  0.80071624186E+02  0.00000000000E+00 0.  1.
         11    1    1    2    0    0 -0.40264447729E+02  0.28448231040E+02 -0.22366076372E+02  0.54136577030E+02  0.00000000000E+00 0. -1.
</event>
<event>
 7    1  0.2820496E-009  0.1346527E+03  0.7561462E-02  0.1220711E+00
         -2   -1    0    0    0  501 -0.00000000000E+00  0.00000000000E+00  0.16288190395E+03  0.16288190395E+03  0.00000000000E+00 0. -1.
          2   -1    0    0  501    0  0.00000000000E+00 -0.00000000000E+00 -0.17917794646E+03  0.17917794646E+03  0.00000000000E+00 0.  1.
         25    2    1    2    0    0  0.10639196643E+03  0.20459325618E+02  0.72988921961E+02  0.18086589088E+03  0.12508898125E+03 0.  0.
          5    1    3    3  502    0 -0.11264785709E+02  0.38936608473E+02  0.40256829090E+02  0.57280359329E+02  0.41800000000E+01 0. -1.
         -5    1    3    3    0  502  0.11765675214E+03 -0.18477282855E+02  0.32732092871E+02  0.12358553156E+03  0.41800000000E+01 0. -1.
        -11    1    1    2    0    0 -0.73546145619E+02 -0.21166861240E+02 -0.10063987288E+03  0.12643360141E+03  0.00000000000E+00 0.  1.
         11    1    1    2    0    0 -0.32845820813E+02  0.70753562205E+00  0.11354908408E+02  0.34760358118E+02  0.00000000000E+00 0. -1.
</event>
<event>
 7    1  0.2820496E-009  0.1198772E+03  0.7561462E-02  0.1243300E+00
          1   -1    0    0  501    0  0.00000000000E+00  0.00000000000E+00  0.12282332521E+03  0.12282332521E+03  0.00000000000E+00 0. -1.
         -1   -1    0    0    0  501 -0.00000000000E+00 -0.00000000000E+00 -0.14171677934E+03  0.14171677934E+03  0.00000000000E+00 0.  1.
         25    2    1    2    0    0  0.68171484639E+02 -0.26898856480E+02 -0.24457859833E+02  0.14702642546E+03  0.12509069941E+03 0.  0.
          5    1    3    3  502    0  0.97050466371E+02 -0.71875608212E+01 -0.43855701306E+02  0.10682344776E+03  0.41800000000E+01 0. -1.
         -5    1    3    3    0  502 -0.28878981733E+02 -0.19711295659E+02  0.19397841474E+02  0.40202977704E+02  0.41800000000E+01 0. -1.
        -11    1    1    2    0    0 -0.15930131590E+02  0.48164743994E+02 -0.21322042075E+02  0.55029456973E+02  0.00000000000E+00 0. -1.
         11    1    1    2    0    0 -0.52241353049E+02 -0.21265887514E+02  0.26886447774E+02  0.62484222121E+02  0.00000000000E+00 0.  1.
</event>
<event>
 7    1  0.2820496E-009  0.9051915E+02  0.7561462E-02  0.1301599E+00
          1   -1    0    0  501    0  0.00000000000E+00  0.00000000000E+00  0.21069975976E+03  0.21069975976E+03  0.00000000000E+00 0. -1.
         -1   -1    0    0    0  501 -0.00000000000E+00 -0.00000000000E+00 -0.69025919137E+02  0.69025919137E+02  0.00000000000E+00 0.  1.
         25    2    1    2    0    0  0.25736682390E+02  0.46286450034E+02  0.80245737175E+02  0.15777071704E+03  0.12508960206E+03 0.  0.
          5    1    3    3  502    0 -0.21808531120E+02 -0.30453425609E+02  0.12022298200E+01  0.37708631869E+02  0.41800000000E+01 0. -1.
         -5    1    3    3    0  502  0.47545213510E+02  0.76739875642E+02  0.79043507355E+02  0.12006208517E+03  0.41800000000E+01 0. -1.
        -11    1    1    2    0    0 -0.17223504675E+02 -0.29666385250E+02 -0.19118822996E+02  0.39271782743E+02  0.00000000000E+00 0.  1.
         11    1    1    2    0    0 -0.85131777157E+01 -0.16620064784E+02  0.80546926447E+02  0.82683179113E+02  0.00000000000E+00 0. -1.
</event>
<event>
 7    1  0.2820496E-009  0.1075324E+03  0.7561462E-02  0.1265209E+00
          2   -1    0    0  501    0  0.00000000000E+00  0.00000000000E+00  0.63531303370E+03  0.63531303370E+03  0.00000000000E+00 0. -1.
         -2   -1    0    0    0  501 -0.00000000000E+00 -0.00000000000E+00 -0.29037901049E+02  0.29037901049E+02  0.00000000000E+00 0.  1.
         25    2    1    2    0    0  0.59120855512E+01 -0.80945446482E+02  0.29796011419E+03  0.33318849920E+03  0.12508888154E+03 0.  0.
          5    1    3    3  502    0  0.24879418784E+02 -0.88545621914E+02  0.10727977878E+03  0.14137091629E+03  0.41800000000E+01 0. -1.
         -5    1    3    3    0  502 -0.18967333232E+02  0.76001754322E+01  0.19068033542E+03  0.19181758291E+03  0.41800000000E+01 0. -1.
        -11    1    1    2    0    0 -0.34040817419E+02  0.47481117025E+02  0.25789476837E+03  0.26442947127E+03  0.00000000000E+00 0. -1.
         11    1    1    2    0    0  0.28128731868E+02  0.33464329457E+02  0.50420250082E+02  0.66732964275E+02  0.00000000000E+00 0.  1.
</event>
<event>
 7    1  0.2820496E-009  0.5223587E+02  0.7561462E-02  0.1433642E+00
          1   -1    0    0  501    0  0.00000000000E+00  0.00000000000E+00  0.53125773461E+02  0.53125773461E+02  0.00000000000E+00 0. -1.
         -1   -1    0    0    0  501 -0.00000000000E+00 -0.00000000000E+00 -0.22999293749E+03  0.22999293749E+03  0.00000000000E+00 0.  1.
         25    2    1    2    0    0  0.11009159761E+02 -0.14207214588E+01 -0.88079133732E+02  0.15340377841E+03  0.12510621641E+03 0.  0.
          5    1    3    3  502    0  0.98820353967E+00  0.12417121919E+02 -0.11798203764E+03  0.11871139402E+03  0.41800000000E+01 0.  1.
         -5    1    3    3    0  502  0.10020956221E+02 -0.13837843378E+02  0.29902903910E+02  0.34692384398E+02  0.41800000000E+01 0.  1.
        -11    1    1    2    0    0 -0.12991842051E+02 -0.34966667136E+02 -0.41093577979E+01  0.37527890855E+02  0.00000000000E+00 0. -1.
         11    1    1    2    0    0  0.19826822901E+01  0.36387388595E+02 -0.84678672498E+02  0.92187041680E+02  0.00000000000E+00 0.  1.
</event>
<event>
 7    1  0.2820496E-009  0.9350020E+02  0.7561462E-02  0.1294590E+00
          1   -1    0    0  501    0  0.00000000000E+00  0.00000000000E+00  0.92944041387E+03  0.92944041387E+03  0.00000000000E+00 0. -1.
         -1   -1    0    0    0  501 -0.00000000000E+00 -0.00000000000E+00 -0.13808246629E+02  0.13808246629E+02  0.00000000000E+00 0.  1.
         25    2    1    2    0    0  0.11855303639E+02  0.26908067057E+02  0.58845848447E+03  0.60232566699E+03  0.12509288099E+03 0.  0.
          5    1    3    3  502    0 -0.29707232459E+02 -0.29591365944E+02  0.95482001158E+02  0.10436691786E+03  0.41800000000E+01 0.  1.
         -5    1    3    3    0  502  0.41562536098E+02  0.56499433001E+02  0.49297648331E+03  0.49795874913E+03  0.41800000000E+01 0.  1.
        -11    1    1    2    0    0 -0.18252915971E+02 -0.48635458706E+02  0.30441042731E+03  0.30881108309E+03  0.00000000000E+00 0. -1.
         11    1    1    2    0    0  0.63976123325E+01  0.21727391649E+02  0.22763255464E+02  0.32111910419E+02  0.00000000000E+00 0.  1.
</event>
<event>
 7    1  0.2820496E-009  0.1127957E+03  0.7561462E-02  0.1255479E+00
         -2   -1    0    0    0  501 -0.00000000000E+00  0.00000000000E+00  0.39427529009E+02  0.39427529009E+02  0.00000000000E+00 0.  1.
          2   -1    0    0  501    0  0.00000000000E+00 -0.00000000000E+00 -0.52329177571E+03  0.52329177571E+03  0.00000000000E+00 0. -1.
         25    2    1    2    0    0 -0.66290728016E+01 -0.57432735281E+02 -0.40693058537E+03  0.42963111781E+03  0.12509169592E+03 0.  0.
          5    1    3    3  502    0 -0.20767524222E+02 -0.94644766831E+02 -0.30803303483E+03  0.32294077615E+03  0.41800000000E+01 0. -1.
         -5    1    3    3    0  502  0.14138451421E+02  0.37212031550E+02 -0.98897550541E+02  0.10669034166E+03  0.41800000000E+01 0. -1.
        -11    1    1    2    0    0  0.17989809617E+01 -0.15440756596E+02 -0.54519938087E+02  0.56692829756E+02  0.00000000000E+00 0. -1.
         11    1    1    2    0    0  0.48300918399E+01  0.72873491876E+02 -0.22413723243E+02  0.76395357156E+02  0.00000000000E+00 0.  1.
</event>
<event>
 7    1  0.2820496E-009  0.1251045E+03  0.7561462E-02  0.1234906E+00
         -1   -1    0    0    0  501 -0.00000000000E+00  0.00000000000E+00  0.66042204890E+02  0.66042204890E+02  0.00000000000E+00 0.  1.
          1   -1    0    0  501    0  0.00000000000E+00 -0.00000000000E+00 -0.29314404176E+03  0.29314404176E+03  0.00000000000E+00 0. -1.
         25    2    1    2    0    0 -0.51186170481E+02  0.44032174692E+02 -0.55113495583E+02  0.15245911348E+03  0.12508967756E+03 0.  0.
          5    1    3    3  502    0 -0.51594941712E+02  0.85460884958E+02 -0.32465369951E+02  0.10505747719E+03  0.41800000000E+01 0. -1.
         -5    1    3    3    0  502  0.40877123103E+00 -0.41428710266E+02 -0.22648125632E+02  0.47401636289E+02  0.41800000000E+01 0. -1.
        -11    1    1    2    0    0 -0.23425591973E+02 -0.18306854657E+02 -0.21138874475E+02  0.36479464097E+02  0.00000000000E+00 0.  1.
         11    1    1    2    0    0  0.74611762453E+02 -0.25725320035E+02 -0.15084946682E+03  0.17024766908E+03  0.00000000000E+00 0. -1.
</event>
<event>
 7    1  0.2820496E-009  0.1286728E+03  0.7561462E-02  0.1229438E+00
         -1   -1    0    0    0  501 -0.00000000000E+00  0.00000000000E+00  0.13034424731E+03  0.13034424731E+03  0.00000000000E+00 0.  1.
          1   -1    0    0  501    0  0.00000000000E+00 -0.00000000000E+00 -0.17770828469E+03  0.17770828469E+03  0.00000000000E+00 0. -1.
         25    2    1    2    0    0 -0.10422472697E+03 -0.61165036385E+01 -0.15214523263E+01  0.16294030954E+03  0.12508806628E+03 0.  0.
          5    1    3    3  502    0 -0.81183771554E+02  0.21599924599E+02 -0.53400523541E+02  0.99631570403E+02  0.41800000000E+01 0.  1.
         -5    1    3    3    0  502 -0.23040955413E+02 -0.27716428237E+02  0.51879071215E+02  0.63308739134E+02  0.41800000000E+01 0.  1.
        -11    1    1    2    0    0  0.67899896864E+02 -0.39564604289E+02 -0.33659605390E+02  0.85491069368E+02  0.00000000000E+00 0.  1.
         11    1    1    2    0    0  0.36324830103E+02  0.45681107927E+02 -0.12182979664E+02  0.59621153100E+02  0.00000000000E+00 0. -1.
</event>
<event>
 7    1  0.2820496E-009  0.6918588E+02  0.7561462E-02  0.1362884E+00
          1   -1    0    0  501    0  0.00000000000E+00  0.00000000000E+00  0.98015670631E+02  0.98015670631E+02  0.00000000000E+00 0. -1.
         -1   -1    0    0    0  501 -0.00000000000E+00 -0.00000000000E+00 -0.16294744825E+03  0.16294744825E+03  0.00000000000E+00 0.  1.
         25    2    1    2    0    0  0.24278372991E+02 -0.53942525159E+02 -0.62811526844E+02  0.15198099633E+03  0.12511474704E+03 0.  0.
          5    1    3    3  502    0  0.23916564093E+02 -0.61615823883E+02  0.19631686304E+02  0.69075229265E+02  0.41800000000E+01 0. -1.
         -5    1    3    3    0  502  0.36180889876E+00  0.76732987241E+01 -0.82443213148E+02  0.82905767069E+02  0.41800000000E+01 0. -1.
        -11    1    1    2    0    0 -0.15795035145E+02  0.10109766182E+02  0.42134258374E+02  0.46119261011E+02  0.00000000000E+00 0. -1.
         11    1    1    2    0    0 -0.84833378467E+01  0.43832758977E+02 -0.44254509151E+02  0.62862861538E+02  0.00000000000E+00 0.  1.
</event>
<event>
 7    1  0.2820496E-009  0.1139320E+03  0.7561462E-02  0.1253457E+00
          1   -1    0    0  501    0  0.00000000000E+00  0.00000000000E+00  0.15890128448E+03  0.15890128448E+03  0.00000000000E+00 0. -1.
         -1   -1    0    0    0  501 -0.00000000000E+00 -0.00000000000E+00 -0.17783146298E+03  0.17783146298E+03  0.00000000000E+00 0.  1.
         25    2    1    2    0    0  0.65794974229E+02  0.66584950559E+02  0.74663739928E+02  0.17316115800E+03  0.12509028061E+03 0.  0.
          5    1    3    3  502    0  0.81880408505E+02  0.76068003849E+02  0.17905677318E+02  0.11326441713E+03  0.41800000000E+01 0.  1.
         -5    1    3    3    0  502 -0.16085434277E+02 -0.94830532901E+01  0.56758062611E+02  0.59896740870E+02  0.41800000000E+01 0.  1.
        -11    1    1    2    0    0 -0.44957267902E+02 -0.27792891340E+02  0.74239745596E+01  0.53373365497E+02  0.00000000000E+00 0. -1.
         11    1    1    2    0    0 -0.20837706327E+02 -0.38792059219E+02 -0.10101789299E+03  0.11019822397E+03  0.00000000000E+00 0.  1.
</event>
<event>
 7    1  0.2820496E-009  0.1289421E+03  0.7561462E-02  0.1229034E+00
         -2   -1    0    0    0  501 -0.00000000000E+00  0.00000000000E+00  0.60470957247E+02  0.60470957247E+02  0.00000000000E+00 0.  1.
          2   -1    0    0  501    0  0.00000000000E+00 -0.00000000000E+00 -0.27761240632E+03  0.27761240632E+03  0.00000000000E+00 0. -1.
         25    2    1    2    0    0  0.68912296839E+01 -0.72339193268E+02 -0.11801751207E+03  0.18669799925E+03  0.12509021480E+03 0.  0.
          5    1    3    3  502    0 -0.53268535963E+02 -0.58002888207E+01 -0.33195155242E+02  0.63170966477E+02  0.41800000000E+01 0.  1.
         -5    1    3    3    0  502  0.60159765647E+02 -0.66538904447E+02 -0.84822356825E+02  0.12352703277E+03  0.41800000000E+01 0.  1.
        -11    1    1    2    0    0  0.32376983832E+02  0.40052621449E+00 -0.25513598424E+02  0.41223454584E+02  0.00000000000E+00 0.  1.
         11    1    1    2    0    0 -0.39268213516E+02  0.71938667053E+02 -0.73610338579E+02  0.11016190973E+03  0.00000000000E+00 0. -1.
</event>
<event>
 7    1  0.2820496E-009  0.9123181E+02  0.7561462E-02  0.1299896E+00
          1   -1    0    0  501    0  0.00000000000E+00  0.00000000000E+00  0.58539365124E+02  0.58539365124E+02  0.00000000000E+00 0. -1.
         -1   -1    0    0    0  501 -0.00000000000E+00 -0.00000000000E+00 -0.23163720707E+03  0.23163720707E+03  0.00000000000E+00 0.  1.
         25    2    1    2    0    0  0.24377051014E+02 -0.11243108914E+01 -0.14490683630E+03  0.19297910883E+03  0.12508972998E+03 0.  0.
          5    1    3    3  502    0 -0.47102181979E+02 -0.62176473777E+01 -0.26632751036E+02  0.54626463494E+02  0.41800000000E+01 0.  1.
         -5    1    3    3    0  502  0.71479232993E+02  0.50933364863E+01 -0.11827408526E+03  0.13835264533E+03  0.41800000000E+01 0.  1.
        -11    1    1    2    0    0 -0.29277834400E+02  0.25070149829E+02  0.19805708638E+02  0.43335552313E+02  0.00000000000E+00 0. -1.
         11    1    1    2    0    0  0.49007833866E+01 -0.23945838938E+02 -0.47996714281E+02  0.53861911050E+02  0.00000000000E+00 0.  1.
</event>
<event>
 7    1  0.2820496E-009  0.1629234E+03  0.7561462E-02  0.1185435E+00
          2   -1    0    0  501    0  0.00000000000E+00  0.00000000000E+00  0.40536969600E+03  0.40536969600E+03  0.00000000000E+00 0. -1.
         -2   -1    0    0    0  501 -0.00000000000E+00 -0.00000000000E+00 -0.82179954908E+02  0.82179954908E+02  0.00000000000E+00 0.  1.
         25    2    1    2    0    0 -0.14095718040E+03  0.32963018868E+02  0.13445368381E+03  0.23383890805E+03  0.12508938608E+03 0.  0.
          5    1    3    3  502    0 -0.40784837609E+02  0.58694240758E+02  0.10517528655E+02  0.72363718022E+02  0.41800000000E+01 0.  1.
         -5    1    3    3    0  502 -0.10017234279E+03 -0.25731221890E+02  0.12393615516E+03  0.16147519003E+03  0.41800000000E+01 0.  1.
        -11    1    1    2    0    0  0.30748721186E+02 -0.26080216967E+02  0.68029570333E+01  0.40889384882E+02  0.00000000000E+00 0.  1.
         11    1    1    2    0    0  0.11020845922E+03 -0.68828019007E+01  0.18193310025E+03  0.21282135798E+03  0.00000000000E+00 0. -1.
</event>
<event>
 7    1  0.2820496E-009  0.1442734E+03  0.7561462E-02  0.1207692E+00
          2   -1    0    0  501    0  0.00000000000E+00  0.00000000000E+00  0.25020060815E+03  0.25020060815E+03  0.00000000000E+00 0. -1.
         -2   -1    0    0    0  501 -0.00000000000E+00 -0.00000000000E+00 -0.11849696921E+03  0.11849696921E+03  0.00000000000E+00 0.  1.
         25    2    1    2    0    0  0.86572893366E+02  0.52320930261E+02 -0.23540177168E+02  0.16259113124E+03  0.12509752359E+03 0.  0.
          5    1    3    3  502    0  0.14057335471E+02 -0.36210382394E+02 -0.27876858855E+02  0.47993667637E+02  0.41800000000E+01 0.  1.
         -5    1    3    3    0  502  0.72515557896E+02  0.88531312655E+02  0.43366816871E+01  0.11459746361E+03  0.41800000000E+01 0.  1.
        -11    1    1    2    0    0 -0.64676380836E+02  0.13087814095E+02  0.66186148649E+02  0.93460854848E+02  0.00000000000E+00 0.  1.
         11    1    1    2    0    0 -0.21896512530E+02 -0.65408744356E+02  0.89057667453E+02  0.11264559126E+03  0.00000000000E+00 0. -1.
</event>
<event>
 7    1  0.2820496E-009  0.1678966E+03  0.7561462E-02  0.1180059E+00
         -1   -1    0    0    0  501 -0.00000000000E+00  0.00000000000E+00  0.85042164809E+03  0.85042164809E+03  0.00000000000E+00 0.  1.
          1   -1    0    0  501    0  0.00000000000E+00 -0.00000000000E+00 -0.33187559244E+02  0.33187559244E+02  0.00000000000E+00 0. -1.
         25    2    1    2    0    0 -0.10402290912E+03 -0.75215237347E+02  0.43127838742E+03  0.46703973921E+03  0.12508786109E+03 0.  0.
          5    1    3    3  502    0 -0.10260266151E+03  0.11967793847E+01  0.24764960560E+03  0.26809800071E+03  0.41800000000E+01 0.  1.
         -5    1    3    3    0  502 -0.14202476093E+01 -0.76412016732E+02  0.18362878183E+03  0.19894173851E+03  0.41800000000E+01 0.  1.
        -11    1    1    2    0    0 -0.16164791498E+02  0.32980328931E+01  0.34824729256E+02  0.38534909794E+02  0.00000000000E+00 0.  1.
         11    1    1    2    0    0  0.12018770062E+03  0.71917204454E+02  0.35113097216E+03  0.37803455832E+03  0.00000000000E+00 0. -1.
</event>
<event>
 7    1  0.2820496E-009  0.9820064E+02  0.7561462E-02  0.1284126E+00
         -1   -1    0    0    0  501 -0.00000000000E+00  0.00000000000E+00  0.43625414127E+02  0.43625414127E+02  0.00000000000E+00 0.  1.
          1   -1    0    0  501    0  0.00000000000E+00 -0.00000000000E+00 -0.39962918586E+03  0.39962918586E+03  0.00000000000E+00 0. -1.
         25    2    1    2    0    0  0.49107081920E+00 -0.14191982266E+02 -0.32198627176E+03  0.34572300933E+03  0.12509031324E+03 0.  0.
          5    1    3    3  502    0 -0.15180482481E+02  0.52523582945E+02 -0.17705271031E+03  0.18534915280E+03  0.41800000000E+01 0.  1.
         -5    1    3    3    0  502  0.15671553301E+02 -0.66715565212E+02 -0.14493356145E+03  0.16037385653E+03  0.41800000000E+01 0.  1.
        -11    1    1    2    0    0  0.31686362568E+02 -0.93529009190E+01  0.13335697432E+02  0.35627842405E+02  0.00000000000E+00 0.  1.
         11    1    1    2    0    0 -0.32177433387E+02  0.23544883185E+02 -0.47353197403E+02  0.61903748254E+02  0.00000000000E+00 0. -1.
</event>
<event>
 7    1  0.2820496E-009  0.1298053E+03  0.7561462E-02  0.1227745E+00
          1   -1    0    0  501    0  0.00000000000E+00  0.00000000000E+00  0.30677893017E+03  0.30677893017E+03  0.00000000000E+00 0. -1.
         -1   -1    0    0    0  501 -0.00000000000E+00 -0.00000000000E+00 -0.85020642698E+02  0.85020642698E+02  0.00000000000E+00 0.  1.
         25    2    1    2    0    0  0.78014412027E+02 -0.29732783251E+02  0.22193938465E+03  0.26809380540E+03  0.12508761391E+03 0.  0.
          5    1    3    3  502    0  0.11062652515E+03 -0.20027481470E+02  0.14238154036E+03  0.18146433125E+03  0.41800000000E+01 0. -1.
         -5    1    3    3    0  502 -0.32612113118E+02 -0.97053017810E+01  0.79557844283E+02  0.86629474150E+02  0.41800000000E+01 0. -1.
        -11    1    1    2    0    0 -0.18167040973E+02  0.47123276991E+02  0.25164743076E+02  0.56426136729E+02  0.00000000000E+00 0. -1.
         11    1    1    2    0    0 -0.59847371054E+02 -0.17390493740E+02 -0.25345840249E+02  0.67279630740E+02  0.00000000000E+00 0.  1.
</event>
<event>
 7    1  0.2820496E-009  0.1303534E+03  0.7561462E-02  0.1226932E+00
          2   -1    0    0  501    0  0.00000000000E+00  0.00000000000E+00  0.11311168291E+03  0.11311168291E+03  0.00000000000E+00 0. -1.
         -2   -1    0    0    0  501 -0.00000000000E+00 -0.00000000000E+00 -0.18136564386E+03  0.18136564386E+03  0.00000000000E+00 0.  1.
         25    2    1    2    0    0  0.20529231786E+02  0.71709951916E+02 -0.91848066014E+02  0.17218333320E+03  0.12508903406E+03 0.  0.
          5    1    3    3  502    0 -0.49209716436E+02  0.17310500827E+02 -0.56027439687E+02  0.76666785693E+02  0.41800000000E+01 0. -1.
         -5    1    3    3    0  502  0.69738948221E+02  0.54399451089E+02 -0.35820626327E+02  0.95516547510E+02  0.41800000000E+01 0. -1.
        -11    1    1    2    0    0  0.13336763505E+02 -0.83050272669E+02  0.19507022315E+02  0.86346632654E+02  0.00000000000E+00 0.  1.
         11    1    1    2    0    0 -0.33865995290E+02  0.11340320752E+02  0.40870827501E+01  0.35947360921E+02  0.00000000000E+00 0. -1.
</event>
<event>
 7    1  0.2820496E-009  0.1035452E+03  0.7561462E-02  0.1273013E+00
         -2   -1    0    0    0  501 -0.00000000000E+00  0.00000000000E+00  0.24693604418E+03  0.24693604418E+03  0.00000000000E+00 0.  1.
          2   -1    0    0  501    0  0.00000000000E+00 -0.00000000000E+00 -0.51251896838E+02  0.51251896838E+02  0.00000000000E+00 0. -1.
         25    2    1    2    0    0  0.78969554521E+01  0.27381374584E+02  0.13177712128E+03  0.18391603447E+03  0.12509115261E+03 0.  0.
          5    1    3    3  502    0  0.62243019906E+01 -0.45058386565E+02  0.18287495769E+02  0.49202693388E+02  0.41800000000E+01 0.  1.
         -5    1    3    3    0  502  0.16726534616E+01  0.72439761149E+02  0.11348962551E+03  0.13471334108E+03  0.41800000000E+01 0.  1.
        -11    1    1    2    0    0  0.24874169113E+02  0.19518497852E+02  0.42964588480E+02  0.53344652129E+02  0.00000000000E+00 0.  1.
         11    1    1    2    0    0 -0.32771124566E+02 -0.46899872436E+02  0.20942437576E+02  0.60927254422E+02  0.00000000000E+00 0. -1.
</event>
<event>
 7    1  0.2820496E-009  0.1018804E+03  0.7561462E-02  0.1276391E+00
          1   -1    0    0  501    0  0.00000000000E+00  0.00000000000E+00  0.68515428078E+03  0.68515428078E+03  0.00000000000E+00 0. -1.
         -1   -1    0    0    0  501 -0.00000000000E+00 -0.00000000000E+00 -0.24286220050E+02  0.24286220050E+02  0.00000000000E+00 0.  1.
         25    2    1    2    0    0  0.44426186105E+02 -0.43235165174E+02  0.45194986404E+03  0.47302138296E+03  0.12509030183E+03 0.  0.
          5    1    3    3  502    0  0.81580562485E+01  0.43622399908E+02  0.16994299255E+03  0.17569166393E+03  0.41800000000E+01 0. -1.
         -5    1    3    3    0  502  0.36268129856E+02 -0.86857565081E+02  0.28200687149E+03  0.29732971904E+03  0.41800000000E+01 0. -1.
        -11    1    1    2    0    0 -0.25155928353E+02  0.11097391512E+02  0.36236974665E+01  0.27732724587E+02  0.00000000000E+00 0.  1.
         11    1    1    2    0    0 -0.19270257751E+02  0.32137773662E+02  0.20529449922E+03  0.20868639328E+03  0.00000000000E+00 0. -1.
</event>
<event>
 7    1  0.2820496E-009  0.1851965E+03  0.7561462E-02  0.1162866E+00
          2   -1    0    0  501    0  0.00000000000E+00  0.00000000000E+00  0.10978562585E+04  0.10978562585E+04  0.00000000000E+00 0. -1.
         -2   -1    0    0    0  501 -0.00000000000E+00 -0.00000000000E+00 -0.33997959734E+02  0.33997959734E+02  0.00000000000E+00 0.  1.
         25    2    1    2    0    0 -0.90286248613E+01 -0.15967781620E+03  0.60159457222E+03  0.63493486974E+03  0.12509092070E+03 0.  0.
          5    1    3    3  502    0  0.50758377687E+02 -0.11933229863E+03  0.35463392518E+03  0.37762322980E+03  0.41800000000E+01 0. -1.
         -5    1    3    3    0  502 -0.59787002548E+02 -0.40345517575E+02  0.24696064704E+03  0.25731163994E+03  0.41800000000E+01 0. -1.
        -11    1    1    2    0    0 -0.21110820661E+02  0.43158373508E+02  0.59047990603E+02  0.76124747271E+02  0.00000000000E+00 0.  1.
         11    1    1    2    0    0  0.30139445522E+02  0.11651944269E+03  0.40321573596E+03  0.42079460124E+03  0.00000000000E+00 0. -1.
</event>
<event>
 7    1  0.2820496E-009  0.1339525E+03  0.7561462E-02  0.1221706E+00
         -2   -1    0    0    0  501 -0.00000000000E+00  0.00000000000E+00  0.90515331340E+02  0.90515331340E+02  0.00000000000E+00 0.  1.
          2   -1    0    0  501    0  0.00000000000E+00 -0.00000000000E+00 -0.26688560948E+03  0.26688560948E+03  0.00000000000E+00 0. -1.
         25    2    1    2    0    0  0.50959307145E+02  0.98898005707E+02 -0.86305840283E+02  0.18834535209E+03  0.12509039560E+03 0.  0.
          5    1    3    3  502    0 -0.12036396692E+02  0.45331784666E+02  0.22035114198E+02  0.51989077738E+02  0.41800000000E+01 0.  1.
         -5    1    3    3    0  502  0.62995703837E+02  0.53566221041E+02 -0.10834095448E+03  0.13635627436E+03  0.41800000000E+01 0.  1.
        -11    1    1    2    0    0 -0.38825307565E+02 -0.45077182157E+00 -0.46877570139E+02  0.60869649949E+02  0.00000000000E+00 0. -1.
         11    1    1    2    0    0 -0.12133999581E+02 -0.98447233885E+02 -0.43186867716E+02  0.10818593877E+03  0.00000000000E+00 0.  1.
</event>
<event>
 7    1  0.2820496E-009  0.4132831E+03  0.7561462E-02  0.1039275E+00
         -2   -1    0    0    0  501 -0.00000000000E+00  0.00000000000E+00  0.29209543863E+03  0.29209543863E+03  0.00000000000E+00 0.  1.
          2   -1    0    0  501    0  0.00000000000E+00 -0.00000000000E+00 -0.61447877120E+03  0.61447877120E+03  0.00000000000E+00 0. -1.
         25    2    1    2    0    0  0.30927587669E+03  0.26781020317E+03 -0.16940425696E+03  0.46013025884E+03  0.12509268565E+03 0.  0.
          5    1    3    3  502    0  0.70378131706E+02  0.33411073182E+02  0.12764276706E+02  0.79055552578E+02  0.41800000000E+01 0. -1.
         -5    1    3    3    0  502  0.23889774499E+03  0.23439912999E+03 -0.18216853366E+03  0.38107470627E+03  0.41800000000E+01 0. -1.
        -11    1    1    2    0    0 -0.88100279201E+02 -0.11560557028E+03 -0.19638261004E+02  0.14666958911E+03  0.00000000000E+00 0. -1.
         11    1    1    2    0    0 -0.22117559749E+03 -0.15220463289E+03 -0.13334081461E+03  0.29977436188E+03  0.00000000000E+00 0.  1.
</event>
<event>
 7    1  0.2820496E-009  0.1031075E+03  0.7561462E-02  0.1273894E+00
         -1   -1    0    0    0  501 -0.00000000000E+00  0.00000000000E+00  0.15328448645E+03  0.15328448645E+03  0.00000000000E+00 0.  1.
          1   -1    0    0  501    0  0.00000000000E+00 -0.00000000000E+00 -0.40605801017E+03  0.40605801017E+03  0.00000000000E+00 0. -1.
         25    2    1    2    0    0 -0.64599981435E+01 -0.19432597982E+01 -0.37666348027E+03  0.39694919745E+03  0.12509108741E+03 0.  0.
          5    1    3    3  502    0  0.24868406777E+02 -0.51515493555E+02 -0.11197235364E+03  0.12580764727E+03  0.41800000000E+01 0. -1.
         -5    1    3    3    0  502 -0.31328404921E+02  0.49572233757E+02 -0.26469112664E+03  0.27114155018E+03  0.41800000000E+01 0. -1.
        -11    1    1    2    0    0  0.45247955594E+02 -0.15099523645E+02  0.22974674105E+02  0.52945337377E+02  0.00000000000E+00 0. -1.
         11    1    1    2    0    0 -0.38787957451E+02  0.17042783443E+02  0.10091528244E+03  0.10944796179E+03  0.00000000000E+00 0.  1.
</event>
<event>
 7    1  0.2820496E-009  0.1003377E+03  0.7561462E-02  0.1279587E+00
          1   -1    0    0  501    0  0.00000000000E+00  0.00000000000E+00  0.34032628040E+02  0.34032628040E+02  0.00000000000E+00 0. -1.
         -1   -1    0    0    0  501 -0.00000000000E+00 -0.00000000000E+00 -0.60876561714E+03  0.60876561714E+03  0.00000000000E+00 0.  1.
         25    2    1    2    0    0 -0.86841120343E+02 -0.42587935473E+02 -0.32863413689E+03  0.36469584417E+03  0.12509016908E+03 0.  0.
          5    1    3    3  502    0 -0.37769895044E+02 -0.36392621996E+02 -0.30538356759E+03  0.30988317745E+03  0.41800000000E+01 0. -1.
         -5    1    3    3    0  502 -0.49071225299E+02 -0.61953134766E+01 -0.23250569292E+02  0.54812666728E+02  0.41800000000E+01 0. -1.
        -11    1    1    2    0    0  0.54520909380E+02  0.36289659858E+02 -0.23404702510E+03  0.24303801952E+03  0.00000000000E+00 0.  1.
         11    1    1    2    0    0  0.32320210963E+02  0.62982756145E+01 -0.12051827113E+02  0.35064381488E+02  0.00000000000E+00 0. -1.
</event>
<event>
 7    1  0.2820496E-009  0.8970598E+02  0.7561462E-02  0.1303565E+00
         -1   -1    0    0    0  501 -0.00000000000E+00  0.00000000000E+00  0.45943076561E+02  0.45943076561E+02  0.00000000000E+00 0.  1.
          1   -1    0    0  501    0  0.00000000000E+00 -0.00000000000E+00 -0.37582171351E+03  0.37582171351E+03  0.00000000000E+00 0. -1.
         25    2    1    2    0    0  0.13642079938E+02 -0.72237134959E+02 -0.13463631878E+03  0.19792731652E+03  0.12507587408E+03 0.  0.
          5    1    3    3  502    0  0.47863439816E+00 -0.50458938082E+02  0.94868756253E+01  0.51515111690E+02  0.41800000000E+01 0.  1.
         -5    1    3    3    0  502  0.13163445539E+02 -0.21778196876E+02 -0.14412319440E+03  0.14641220483E+03  0.41800000000E+01 0.  1.
        -11    1    1    2    0    0 -0.35176840432E+02  0.91775546451E+01 -0.35761203835E+02  0.50995110666E+02  0.00000000000E+00 0.  1.
         11    1    1    2    0    0  0.21534760495E+02  0.63059580313E+02 -0.15948111434E+03  0.17284236289E+03  0.00000000000E+00 0. -1.
</event>
<event>
 7    1  0.2820496E-009  0.1465286E+03  0.7561462E-02  0.1204805E+00
         -4   -1    0    0    0  501 -0.00000000000E+00  0.00000000000E+00  0.24439452826E+03  0.24439452826E+03  0.00000000000E+00 0.  1.
          4   -1    0    0  501    0  0.00000000000E+00 -0.00000000000E+00 -0.11366432125E+03  0.11366432125E+03  0.00000000000E+00 0. -1.
         25    2    1    2    0    0 -0.10891548470E+03  0.60951729338E+02  0.59469005731E+02  0.18644573719E+03  0.12509098351E+03 0.  0.
          5    1    3    3  502    0 -0.18456077353E+02  0.48133497163E+02 -0.28919581624E+02  0.59256011861E+02  0.41800000000E+01 0. -1.
         -5    1    3    3    0  502 -0.90459407346E+02  0.12818232176E+02  0.88388587355E+02  0.12718972532E+03  0.41800000000E+01 0. -1.
        -11    1    1    2    0    0  0.33454086911E+02 -0.66264599598E+02  0.11305001640E+02  0.75086457854E+02  0.00000000000E+00 0. -1.
         11    1    1    2    0    0  0.75461397788E+02  0.53128702597E+01  0.59956199642E+02  0.96526654464E+02  0.00000000000E+00 0.  1.
</event>
<event>
 7    1  0.2820496E-009  0.7187475E+02  0.7561462E-02  0.1353831E+00
          1   -1    0    0  501    0  0.00000000000E+00  0.00000000000E+00  0.48722563672E+02  0.48722563672E+02  0.00000000000E+00 0. -1.
         -1   -1    0    0    0  501 -0.00000000000E+00 -0.00000000000E+00 -0.29663931152E+03  0.29663931152E+03  0.00000000000E+00 0.  1.
         25    2    1    2    0    0 -0.17667759284E+02  0.45888721856E+02 -0.11147838317E+03  0.17463829032E+03  0.12511266131E+03 0.  0.
          5    1    3    3  502    0 -0.48641867324E+02  0.35230493158E+02 -0.12516514279E+03  0.13889205980E+03  0.41800000000E+01 0. -1.
         -5    1    3    3    0  502  0.30974108040E+02  0.10658228697E+02  0.13686759618E+02  0.35746230524E+02  0.41800000000E+01 0. -1.
        -11    1    1    2    0    0  0.16089216757E+01 -0.19947806562E+02  0.91268198122E+01  0.21995509894E+02  0.00000000000E+00 0. -1.
         11    1    1    2    0    0  0.16058837608E+02 -0.25940915294E+02 -0.14556518449E+03  0.14872807498E+03  0.00000000000E+00 0.  1.
</event>
<event>
 7    1  0.2820496E-009  0.1880065E+03  0.7561462E-02  0.1160272E+00
          1   -1    0    0  501    0  0.00000000000E+00  0.00000000000E+00  0.49547711936E+03  0.49547711936E+03  0.00000000000E+00 0. -1.
         -1   -1    0    0    0  501 -0.00000000000E+00 -0.00000000000E+00 -0.73213058601E+02  0.73213058601E+02  0.00000000000E+00 0.  1.
         25    2    1    2    0    0  0.15346104268E+03  0.16399728662E+02  0.24932793050E+03  0.31879672496E+03  0.12509073585E+03 0.  0.
          5    1    3    3  502    0  0.10072903484E+03  0.68221088292E+02  0.12788332941E+03  0.17655614883E+03  0.41800000000E+01 0. -1.
         -5    1    3    3    0  502  0.52732007845E+02 -0.51821359631E+02  0.12144460108E+03  0.14224057613E+03  0.41800000000E+01 0. -1.
        -11    1    1    2    0    0 -0.58802757826E+02 -0.52593046972E+02  0.70573226008E+02  0.10585071160E+03  0.00000000000E+00 0.  1.
         11    1    1    2    0    0 -0.94658284857E+02  0.36193318310E+02  0.10236290426E+03  0.14404274140E+03  0.00000000000E+00 0. -1.
</event>
<event>
 7    1  0.2820496E-009  0.1584335E+03  0.7561462E-02  0.1190477E+00
         -4   -1    0    0    0  501 -0.00000000000E+00  0.00000000000E+00  0.59477654064E+03  0.59477654064E+03  0.00000000000E+00 0.  1.
          4   -1    0    0  501    0  0.00000000000E+00 -0.00000000000E+00 -0.63657384765E+02  0.63657384765E+02  0.00000000000E+00 0. -1.
         25    2    1    2    0    0  0.14157415991E+03  0.46927899143E+02  0.36980009878E+03  0.41791031868E+03  0.12510575896E+03 0.  0.
          5    1    3    3  502    0  0.33793240681E+02 -0.73912224040E+01  0.70027017209E+01  0.35540449008E+02  0.41800000000E+01 0. -1.
         -5    1    3    3    0  502  0.10778091923E+03  0.54319121547E+02  0.36279739706E+03  0.38236986967E+03  0.41800000000E+01 0. -1.
        -11    1    1    2    0    0 -0.96328169584E+02 -0.36263804307E+00  0.42850088085E+02  0.10542949213E+03  0.00000000000E+00 0. -1.
         11    1    1    2    0    0 -0.45245990325E+02 -0.46565261100E+02  0.11846896901E+03  0.13509411460E+03  0.00000000000E+00 0.  1.
</event>
<event>
 7    1  0.2820496E-009  0.3338644E+03  0.7561462E-02  0.1069440E+00
          2   -1    0    0  501    0  0.00000000000E+00  0.00000000000E+00  0.36500386983E+03  0.36500386983E+03  0.00000000000E+00 0. -1.
         -2   -1    0    0    0  501 -0.00000000000E+00 -0.00000000000E+00 -0.43188969817E+03  0.43188969817E+03  0.00000000000E+00 0.  1.
         25    2    1    2    0    0 -0.29046334020E+03 -0.13394485390E+03 -0.24332246595E+03  0.42090738673E+03  0.12508808851E+03 0.  0.
          5    1    3    3  502    0 -0.21610018000E+03 -0.15496314575E+03 -0.18402822226E+03  0.32341416686E+03  0.41800000000E+01 0. -1.
         -5    1    3    3    0  502 -0.74363160198E+02  0.21018291853E+02 -0.59294243689E+02  0.97493219876E+02  0.41800000000E+01 0. -1.
        -11    1    1    2    0    0  0.14317154377E+03  0.95702184410E+02  0.13341789554E+03  0.21784704243E+03  0.00000000000E+00 0. -1.
         11    1    1    2    0    0  0.14729179643E+03  0.38242669488E+02  0.43018742070E+02  0.15813913884E+03  0.00000000000E+00 0.  1.
</event>
<event>
 6    1  0.2820496E-009  0.1058824E+03  0.7561462E-02  0.1268391E+00
          1   -1    0    0  501    0  0.00000000000E+00  0.00000000000E+00  0.34463383823E+03  0.34463383823E+03  0.00000000000E+00 0. -1.
         -1   -1    0    0    0  501 -0.00000000000E+00 -0.00000000000E+00 -0.59682130919E+02  0.59682130919E+02  0.00000000000E+00 0.  1.
          5    1    1    2  502    0 -0.41487727812E+02 -0.57539261340E+02  0.11902750411E+03  0.13862545686E+03  0.41800000000E+01 0. -1.
         -5    1    1    2    0  502  0.58409796257E+02  0.15718117376E+02  0.14050460489E+03  0.15302868982E+03  0.41800000000E+01 0. -1.
        -11    1    1    2    0    0 -0.26151114701E+02  0.56770742380E+02 -0.18643268949E+02  0.65225527729E+02  0.00000000000E+00 0.  1.
         11    1    1    2    0    0  0.92290462557E+01 -0.14949598416E+02  0.44062867269E+02  0.47436294749E+02  0.00000000000E+00 0. -1.
</event>
<event>
 7    1  0.2820496E-009  0.1247041E+03  0.7561462E-02  0.1235532E+00
         -2   -1    0    0    0  501 -0.00000000000E+00  0.00000000000E+00  0.11581722621E+03  0.11581722621E+03  0.00000000000E+00 0.  1.
          2   -1    0    0  501    0  0.00000000000E+00 -0.00000000000E+00 -0.23224077131E+03  0.23224077131E+03  0.00000000000E+00 0. -1.
         25    2    1    2    0    0 -0.10903940254E+03 -0.42534832751E+02 -0.30818814733E+02  0.17405831248E+03  0.12509074107E+03 0.  0.
          5    1    3    3  502    0 -0.55711452406E+02 -0.28604557904E+02 -0.78884141148E+02  0.10080757306E+03  0.41800000000E+01 0.  1.
         -5    1    3    3    0  502 -0.53327950132E+02 -0.13930274846E+02  0.48065326415E+02  0.73250739423E+02  0.41800000000E+01 0.  1.
        -11    1    1    2    0    0  0.94717784240E+01  0.29459713506E+02 -0.64276030569E+02  0.71337209170E+02  0.00000000000E+00 0. -1.
         11    1    1    2    0    0  0.99567624114E+02  0.13075119244E+02 -0.21328699805E+02  0.10266247586E+03  0.00000000000E+00 0.  1.
</event>
<event>
 7    1  0.2820496E-009  0.1558060E+03  0.7561462E-02  0.1193515E+00
         -2   -1    0    0    0  501 -0.00000000000E+00  0.00000000000E+00  0.58534761321E+02  0.58534761321E+02  0.00000000000E+00 0.  1.
          2   -1    0    0  501    0  0.00000000000E+00 -0.00000000000E+00 -0.47694391963E+03  0.47694391963E+03  0.00000000000E+00 0. -1.
         25    2    1    2    0    0 -0.18057337886E+02  0.12371887428E+03 -0.25813095620E+03  0.31290804389E+03  0.12508967213E+03 0.  0.
          5    1    3    3  502    0  0.47632442764E+02  0.80462614325E+02 -0.17455814459E+03  0.19806842290E+03  0.41800000000E+01 0.  1.
         -5    1    3    3    0  502 -0.65689780650E+02  0.43256259958E+02 -0.83572811611E+02  0.11483962098E+03  0.41800000000E+01 0.  1.
        -11    1    1    2    0    0  0.39498771509E+02 -0.98644777347E+02 -0.15677711410E+03  0.18939379228E+03  0.00000000000E+00 0. -1.
         11    1    1    2    0    0 -0.21441433623E+02 -0.25074096936E+02 -0.35010880126E+01  0.33176844791E+02  0.00000000000E+00 0.  1.
</event>
<event>
 7    1  0.2820496E-009  0.1472218E+03  0.7561462E-02  0.1203929E+00
          2   -1    0    0  501    0  0.00000000000E+00  0.00000000000E+00  0.54999743918E+03  0.54999743918E+03  0.00000000000E+00 0. -1.
         -2   -1    0    0    0  501 -0.00000000000E+00 -0.00000000000E+00 -0.47642386427E+02  0.47642386427E+02  0.00000000000E+00 0.  1.
         25    2    1    2    0    0 -0.99736662345E+02 -0.64190708925E+02  0.27849179335E+03  0.32752473532E+03  0.12508766666E+03 0.  0.
          5    1    3    3  502    0 -0.10216909628E+03  0.44796711667E+01  0.18494619775E+03  0.21137918571E+03  0.41800000000E+01 0.  1.
         -5    1    3    3    0  502  0.24324339374E+01 -0.68670380092E+02  0.93545595600E+02  0.11614554960E+03  0.41800000000E+01 0.  1.
        -11    1    1    2    0    0  0.73571927544E+02  0.28282635479E+02  0.56563551511E+02  0.97016345797E+02  0.00000000000E+00 0.  1.
         11    1    1    2    0    0  0.26164734801E+02  0.35908073446E+02  0.16729970788E+03  0.17309874449E+03  0.00000000000E+00 0. -1.
</event>
<event>
 7    1  0.2820496E-009  0.1213762E+03  0.7561462E-02  0.1240844E+00
          2   -1    0    0  501    0  0.00000000000E+00  0.00000000000E+00  0.49511760132E+03  0.49511760132E+03  0.00000000000E+00 0.  1.
         -2   -1    0    0    0  501 -0.00000000000E+00 -0.00000000000E+00 -0.35957566023E+02  0.35957566023E+02  0.00000000000E+00 0. -1.
         25    2    1    2    0    0  0.66502721158E+02  0.36878761247E+02  0.23325290851E+03  0.27538553792E+03  0.12509044814E+03 0.  0.
          5    1    3    3  502    0  0.38529407155E+02 -0.43666721217E+02  0.12109852210E+03  0.13443817246E+03  0.41800000000E+01 0. -1.
         -5    1    3    3    0  502  0.27973314003E+02  0.80545482464E+02  0.11215438641E+03  0.14094736547E+03  0.41800000000E+01 0. -1.
        -11    1    1    2    0    0 -0.17589754714E+02 -0.45996487524E+02  0.18449757598E+03  0.19095662302E+03  0.00000000000E+00 0.  1.
         11    1    1    2    0    0 -0.48912966444E+02  0.91177262768E+01  0.41409550808E+02  0.64733006395E+02  0.00000000000E+00 0. -1.
</event>
<event>
 7    1  0.2820496E-009  0.1823285E+03  0.7561462E-02  0.1165568E+00
          1   -1    0    0  501    0  0.00000000000E+00  0.00000000000E+00  0.30099351561E+03  0.30099351561E+03  0.00000000000E+00 0.  1.
         -1   -1    0    0    0  501 -0.00000000000E+00 -0.00000000000E+00 -0.18439599465E+03  0.18439599465E+03  0.00000000000E+00 0. -1.
         25    2    1    2    0    0 -0.14492529620E+03  0.60152585358E+02  0.20356998473E+03  0.28584814005E+03  0.12508695169E+03 0.  0.
          5    1    3    3  502    0  0.11215976606E+02  0.29788971942E+02  0.68440801348E+01  0.32825216123E+02  0.41800000000E+01 0.  1.
         -5    1    3    3    0  502 -0.15614127281E+03  0.30363613416E+02  0.19672590459E+03  0.25302292392E+03  0.41800000000E+01 0.  1.
        -11    1    1    2    0    0  0.13336048454E+03 -0.24036221375E+02 -0.44561185687E+02  0.14264802152E+03  0.00000000000E+00 0.  1.
         11    1    1    2    0    0  0.11564811664E+02 -0.36116363983E+02 -0.42411278082E+02  0.56893348686E+02  0.00000000000E+00 0. -1.
</event>
<event>
 7    1  0.2820496E-009  0.1582448E+03  0.7561462E-02  0.1190693E+00
         -2   -1    0    0    0  501 -0.00000000000E+00  0.00000000000E+00  0.42646650825E+03  0.42646650825E+03  0.00000000000E+00 0.  1.
          2   -1    0    0  501    0  0.00000000000E+00 -0.00000000000E+00 -0.60592920820E+02  0.60592920820E+02  0.00000000000E+00 0. -1.
         25    2    1    2    0    0  0.71602452609E+02 -0.93934538079E+02  0.20305256642E+03  0.26613650654E+03  0.12509071395E+03 0.  0.
          5    1    3    3  502    0  0.29036747368E+02 -0.11692779860E+03  0.12107509874E+03  0.17085635698E+03  0.41800000000E+01 0.  1.
         -5    1    3    3    0  502  0.42565705241E+02  0.22993260525E+02  0.81977467679E+02  0.95280149556E+02  0.41800000000E+01 0.  1.
        -11    1    1    2    0    0  0.13985887472E+02 -0.64997613379E+01  0.29799868402E+02  0.33554196497E+02  0.00000000000E+00 0. -1.
         11    1    1    2    0    0 -0.85588340081E+02  0.10043429942E+03  0.13302115261E+03  0.18736872604E+03  0.00000000000E+00 0.  1.
</event>
<event>
 7    1  0.2820496E-009  0.2532355E+03  0.7561462E-02  0.1111277E+00
         -2   -1    0    0    0  501 -0.00000000000E+00  0.00000000000E+00  0.12119230493E+03  0.12119230493E+03  0.00000000000E+00 0. -1.
          2   -1    0    0  501    0  0.00000000000E+00 -0.00000000000E+00 -0.12901882720E+04  0.12901882720E+04  0.00000000000E+00 0.  1.
         25    2    1    2    0    0  0.24581842103E+03 -0.17610886086E+02 -0.75101876354E+02  0.28639922827E+03  0.12508951472E+03 0.  0.
          5    1    3    3  502    0  0.11930589071E+03  0.11002648633E+02 -0.97721849818E+02  0.15466734033E+03  0.41800000000E+01 0.  1.
         -5    1    3    3    0  502  0.12651253033E+03 -0.28613534718E+02  0.22619973464E+02  0.13173188793E+03  0.41800000000E+01 0.  1.
        -11    1    1    2    0    0 -0.16585785257E+03 -0.22459660773E+02 -0.81816743446E+03  0.83511149821E+03  0.00000000000E+00 0.  1.
         11    1    1    2    0    0 -0.79960568458E+02  0.40070546859E+02 -0.27572665623E+03  0.28986985043E+03  0.00000000000E+00 0. -1.
</event>
<event>
 7    1  0.2820496E-009  0.1896405E+03  0.7561462E-02  0.1158786E+00
         -2   -1    0    0    0  501 -0.00000000000E+00  0.00000000000E+00  0.13435891872E+03  0.13435891872E+03  0.00000000000E+00 0.  1.
          2   -1    0    0  501    0  0.00000000000E+00 -0.00000000000E+00 -0.33606143060E+03  0.33606143060E+03  0.00000000000E+00 0. -1.
         25    2    1    2    0    0  0.93991409843E+02 -0.14021736790E+03 -0.29317656437E+02  0.21213349902E+03  0.12508317650E+03 0.  0.
          5    1    3    3  502    0  0.81757559190E+02 -0.50116744903E+02 -0.63293050626E+02  0.11497595080E+03  0.41800000000E+01 0.  1.
         -5    1    3    3    0  502  0.12233850653E+02 -0.90100623000E+02  0.33975394188E+02  0.97157548225E+02  0.41800000000E+01 0.  1.
        -11    1    1    2    0    0 -0.47682217757E+02  0.13789196428E+03 -0.13379070245E+03  0.19795893454E+03  0.00000000000E+00 0. -1.
         11    1    1    2    0    0 -0.46309192086E+02  0.23254036256E+01 -0.38594152994E+02  0.60327915752E+02  0.00000000000E+00 0.  1.
</event>
<event>
 7    1  0.2820496E-009  0.1081818E+03  0.7561462E-02  0.1263974E+00
         -2   -1    0    0    0  501 -0.00000000000E+00  0.00000000000E+00  0.18529527052E+02  0.18529527052E+02  0.00000000000E+00 0.  1.
          2   -1    0    0  501    0  0.00000000000E+00 -0.00000000000E+00 -0.70688412748E+03  0.70688412748E+03  0.00000000000E+00 0. -1.
         25    2    1    2    0    0 -0.13741774851E+02 -0.44200204187E+02 -0.41021102806E+03  0.43135031382E+03  0.12509001266E+03 0.  0.
          5    1    3    3  502    0 -0.27724259578E+01  0.43770082647E+02 -0.11786358754E+03  0.12582847114E+03  0.41800000000E+01 0. -1.
         -5    1    3    3    0  502 -0.10969348894E+02 -0.87970286834E+02 -0.29234744051E+03  0.30552184268E+03  0.41800000000E+01 0. -1.
        -11    1    1    2    0    0 -0.27328140602E+02  0.71581658088E+01 -0.36413524492E+02  0.46086997868E+02  0.00000000000E+00 0.  1.
         11    1    1    2    0    0  0.41069915454E+02  0.37042038378E+02 -0.24173004788E+03  0.24797634284E+03  0.00000000000E+00 0. -1.
</event>
<event>
 7    1  0.2820496E-009  0.1051708E+03  0.7561462E-02  0.1269784E+00
         -1   -1    0    0    0  501 -0.00000000000E+00  0.00000000000E+00  0.26948875520E+02  0.26948875520E+02  0.00000000000E+00 0.  1.
          1   -1    0    0  501    0  0.00000000000E+00 -0.00000000000E+00 -0.49685135719E+03  0.49685135719E+03  0.00000000000E+00 0. -1.
         25    2    1    2    0    0  0.11132347548E+02 -0.37923187075E+02 -0.25413912689E+03  0.28600142386E+03  0.12509205152E+03 0.  0.
          5    1    3    3  502    0  0.26963782084E+02 -0.72207581243E+02 -0.22572281523E+03  0.23855658040E+03  0.41800000000E+01 0. -1.
         -5    1    3    3    0  502 -0.15831434536E+02  0.34284394168E+02 -0.28416311655E+02  0.47444843460E+02  0.41800000000E+01 0. -1.
        -11    1    1    2    0    0 -0.32720495323E+02 -0.16473109699E+02 -0.49825113304E+02  0.61842833643E+02  0.00000000000E+00 0. -1.
         11    1    1    2    0    0  0.21588147775E+02  0.54396296774E+02 -0.16593824148E+03  0.17595597521E+03  0.00000000000E+00 0.  1.
</event>
<event>
 7    1  0.2820496E-009  0.1093282E+03  0.7561462E-02  0.1261819E+00
          2   -1    0    0  501    0  0.00000000000E+00  0.00000000000E+00  0.32983571993E+03  0.32983571993E+03  0.00000000000E+00 0. -1.
         -2   -1    0    0    0  501 -0.00000000000E+00 -0.00000000000E+00 -0.97940100109E+02  0.97940100109E+02  0.00000000000E+00 0.  1.
         25    2    1    2    0    0 -0.44499044748E+02  0.71833798381E+02 -0.13691968627E+02  0.15157505298E+03  0.12508903672E+03 0.  0.
          5    1    3    3  502    0  0.10898603602E+02 -0.10454375687E+02  0.36938504877E+02  0.40124793757E+02  0.41800000000E+01 0. -1.
         -5    1    3    3    0  502 -0.55397648351E+02  0.82288174068E+02 -0.50630473503E+02  0.11145025923E+03  0.41800000000E+01 0. -1.
        -11    1    1    2    0    0  0.58590820697E+02 -0.46859157650E+02  0.86297145022E+02  0.11434973618E+03  0.00000000000E+00 0. -1.
         11    1    1    2    0    0 -0.14091775949E+02 -0.24974640731E+02  0.15929044343E+03  0.16185103088E+03  0.00000000000E+00 0.  1.
</event>
<event>
 7    1  0.2820496E-009  0.3572719E+03  0.7561462E-02  0.1059669E+00
          1   -1    0    0  501    0  0.00000000000E+00  0.00000000000E+00  0.29860680515E+03  0.29860680515E+03  0.00000000000E+00 0. -1.
         -1   -1    0    0    0  501 -0.00000000000E+00 -0.00000000000E+00 -0.44683716505E+03  0.44683716505E+03  0.00000000000E+00 0.  1.
         25    2    1    2    0    0  0.28507610772E+03  0.19943787120E+03 -0.54663507836E+02  0.37373734538E+03  0.12509057751E+03 0.  0.
          5    1    3    3  502    0  0.20187340163E+02  0.66982831666E+02  0.93659413605E+01  0.70706588791E+02  0.41800000000E+01 0.  1.
         -5    1    3    3    0  502  0.26488876755E+03  0.13245503953E+03 -0.64029449196E+02  0.30303075659E+03  0.41800000000E+01 0.  1.
        -11    1    1    2    0    0 -0.10495277789E+03 -0.64219347667E+02 -0.78549300393E+02  0.14597672004E+03  0.00000000000E+00 0.  1.
         11    1    1    2    0    0 -0.18012332983E+03 -0.13521852353E+03 -0.15017551680E+02  0.22572990478E+03  0.00000000000E+00 0. -1.
</event>
<event>
 7    1  0.2820496E-009  0.1717929E+03  0.7561462E-02  0.1175991E+00
          1   -1    0    0  501    0  0.00000000000E+00  0.00000000000E+00  0.96206471535E+03  0.96206471535E+03  0.00000000000E+00 0. -1.
         -1   -1    0    0    0  501 -0.00000000000E+00 -0.00000000000E+00 -0.33821554988E+02  0.33821554988E+02  0.00000000000E+00 0.  1.
         25    2    1    2    0    0 -0.92041824701E+02  0.10180410625E+03  0.60794164878E+03  0.63566998910E+03  0.12509002030E+03 0.  0.
          5    1    3    3  502    0  0.20780784815E+02  0.62017051950E+02  0.19432984244E+03  0.20508416763E+03  0.41800000000E+01 0.  1.
         -5    1    3    3    0  502 -0.11282260952E+03  0.39787054300E+02  0.41361180634E+03  0.43058582147E+03  0.41800000000E+01 0.  1.
        -11    1    1    2    0    0  0.22002783556E+02 -0.82935552917E+02  0.12272925629E+03  0.14974945332E+03  0.00000000000E+00 0. -1.
         11    1    1    2    0    0  0.70039041145E+02 -0.18868553332E+02  0.19757225529E+03  0.21046682791E+03  0.00000000000E+00 0.  1.
</event>
<event>
 7    1  0.2820496E-009  0.1694963E+03  0.7561462E-02  0.1178374E+00
          1   -1    0    0  501    0  0.00000000000E+00  0.00000000000E+00  0.15060805520E+04  0.15060805520E+04  0.00000000000E+00 0. -1.
         -1   -1    0    0    0  501 -0.00000000000E+00 -0.00000000000E+00 -0.55114113574E+02  0.55114113574E+02  0.00000000000E+00 0.  1.
         25    2    1    2    0    0 -0.93315715495E+02  0.12692967999E+03  0.13250691429E+04  0.13402519458E+04  0.12509227894E+03 0.  0.
          5    1    3    3  502    0 -0.39779937491E+02  0.73055356369E+01  0.71956045831E+03  0.72070835977E+03  0.41800000000E+01 0. -1.
         -5    1    3    3    0  502 -0.53535778005E+02  0.11962414436E+03  0.60550868459E+03  0.61954358600E+03  0.41800000000E+01 0. -1.
        -11    1    1    2    0    0  0.89043067472E+02 -0.78844396052E+02  0.12516879879E+03  0.17266248823E+03  0.00000000000E+00 0. -1.
         11    1    1    2    0    0  0.42726480232E+01 -0.48085283942E+02  0.72849673886E+00  0.48280231569E+02  0.00000000000E+00 0.  1.
</event>
<event>
 7    1  0.2820496E-009  0.1830685E+03  0.7561462E-02  0.1164866E+00
         -1   -1    0    0    0  501 -0.00000000000E+00  0.00000000000E+00  0.22914506716E+02  0.22914506716E+02  0.00000000000E+00 0.  1.
          1   -1    0    0  501    0  0.00000000000E+00 -0.00000000000E+00 -0.18469498470E+04  0.18469498470E+04  0.00000000000E+00 0. -1.
         25    2    1    2    0    0  0.15511467173E+03 -0.65583658078E+02 -0.10812118360E+04  0.11013754960E+04  0.12508865436E+03 0.  0.
          5    1    3    3  502    0  0.56851947237E+02 -0.14135488199E+02 -0.74508917181E+03  0.74740036278E+03  0.41800000000E+01 0.  1.
         -5    1    3    3    0  502  0.98262724494E+02 -0.51448169879E+02 -0.33612266416E+03  0.35397513327E+03  0.41800000000E+01 0.  1.
        -11    1    1    2    0    0 -0.15791556453E+03  0.30029206791E+02 -0.62856583955E+03  0.64879433832E+03  0.00000000000E+00 0.  1.
         11    1    1    2    0    0  0.28008928019E+01  0.35554451287E+02 -0.11425766479E+03  0.11969451938E+03  0.00000000000E+00 0. -1.
</event>
<event>
 7    1  0.2820496E-009  0.1186514E+03  0.7561462E-02  0.1245339E+00
         -2   -1    0    0    0  501 -0.00000000000E+00  0.00000000000E+00  0.20887362824E+02  0.20887362824E+02  0.00000000000E+00 0.  1.
          2   -1    0    0  501    0  0.00000000000E+00 -0.00000000000E+00 -0.79506706975E+03  0.79506706975E+03  0.00000000000E+00 0. -1.
         25    2    1    2    0    0  0.53274178829E+02  0.15442825982E+02 -0.54790935305E+03  0.56473791036E+03  0.12509048420E+03 0.  0.
          5    1    3    3  502    0  0.81162526411E+02  0.40702623054E+02 -0.28571148959E+03  0.29982092472E+03  0.41800000000E+01 0.  1.
         -5    1    3    3    0  502 -0.27888347583E+02 -0.25259797072E+02 -0.26219786346E+03  0.26491698564E+03  0.41800000000E+01 0.  1.
        -11    1    1    2    0    0  0.26069348039E+02  0.51624090467E+01 -0.44791843483E+02  0.52082344580E+02  0.00000000000E+00 0. -1.
         11    1    1    2    0    0 -0.79343526867E+02 -0.20605235029E+02 -0.18147851040E+03  0.19913417764E+03  0.00000000000E+00 0.  1.
</event>
<event>
 7    1  0.2820496E-009  0.5688785E+02  0.7561462E-02  0.1411376E+00
         -1   -1    0    0    0  501 -0.00000000000E+00  0.00000000000E+00  0.46331021269E+02  0.46331021269E+02  0.00000000000E+00 0.  1.
          1   -1    0    0  501    0  0.00000000000E+00 -0.00000000000E+00 -0.25157578117E+03  0.25157578117E+03  0.00000000000E+00 0. -1.
         25    2    1    2    0    0  0.47870102029E+01 -0.44720617466E+01 -0.13774405141E+03  0.18618621312E+03  0.12509583308E+03 0.  0.
          5    1    3    3  502    0  0.21912382788E+02  0.14243768979E+02  0.15586104967E+02  0.30715412129E+02  0.41800000000E+01 0.  1.
         -5    1    3    3    0  502 -0.17125372585E+02 -0.18715830726E+02 -0.15333015638E+03  0.15547080099E+03  0.41800000000E+01 0.  1.
        -11    1    1    2    0    0  0.67893272537E+01  0.31485182282E+02  0.58188062522E+01  0.32730263886E+02  0.00000000000E+00 0.  1.
         11    1    1    2    0    0 -0.11576337457E+02 -0.27013120535E+02 -0.73319514746E+02  0.78990325436E+02  0.00000000000E+00 0. -1.
</event>
<event>
 7    1  0.2820496E-009  0.9181990E+02  0.7561462E-02  0.1298503E+00
          1   -1    0    0  501    0  0.00000000000E+00  0.00000000000E+00  0.28661558076E+02  0.28661558076E+02  0.00000000000E+00 0. -1.
         -1   -1    0    0    0  501 -0.00000000000E+00 -0.00000000000E+00 -0.47549424425E+03  0.47549424425E+03  0.00000000000E+00 0.  1.
         25    2    1    2    0    0 -0.23818728251E+02  0.21476907081E+02 -0.32032828072E+03  0.34537836060E+03  0.12508962863E+03 0.  0.
          5    1    3    3  502    0 -0.67876510614E+02  0.35403179703E+02 -0.24681839411E+03  0.25845192569E+03  0.41800000000E+01 0. -1.
         -5    1    3    3    0  502  0.44057782363E+02 -0.13926272622E+02 -0.73509886613E+02  0.86926434908E+02  0.41800000000E+01 0. -1.
        -11    1    1    2    0    0  0.38996500123E+02 -0.23078890036E+02 -0.13422933569E+03  0.14167172176E+03  0.00000000000E+00 0.  1.
         11    1    1    2    0    0 -0.15177771872E+02  0.16019829544E+01  0.77249302335E+01  0.17105719964E+02  0.00000000000E+00 0. -1.
</event>
<event>
 7    1  0.2820496E-009  0.1086864E+03  0.7561462E-02  0.1263022E+00
          1   -1    0    0  501    0  0.00000000000E+00  0.00000000000E+00  0.10868024422E+04  0.10868024422E+04  0.00000000000E+00 0. -1.
         -1   -1    0    0    0  501 -0.00000000000E+00 -0.00000000000E+00 -0.18591061102E+02  0.18591061102E+02  0.00000000000E+00 0.  1.
         25    2    1    2    0    0 -0.81733495801E+02 -0.48440739176E+00  0.41986930632E+03  0.44566582164E+03  0.12508873331E+03 0.  0.
          5    1    3    3  502    0 -0.15068307536E+02  0.21633732071E+02  0.80532122983E+01  0.27881873747E+02  0.41800000000E+01 0. -1.
         -5    1    3    3    0  502 -0.66665188265E+02 -0.22118139463E+02  0.41181609402E+03  0.41778394789E+03  0.41800000000E+01 0. -1.
        -11    1    1    2    0    0  0.87023774471E+02  0.28680644693E+02  0.53629846666E+03  0.54406962977E+03  0.00000000000E+00 0. -1.
         11    1    1    2    0    0 -0.52902786704E+01 -0.28196237301E+02  0.11204360814E+03  0.11565805191E+03  0.00000000000E+00 0.  1.
</event>
<event>
 7    1  0.2820496E-009  0.1162912E+03  0.7561462E-02  0.1249344E+00
         -2   -1    0    0    0  501 -0.00000000000E+00  0.00000000000E+00  0.15299147064E+03  0.15299147064E+03  0.00000000000E+00 0.  1.
          2   -1    0    0  501    0  0.00000000000E+00 -0.00000000000E+00 -0.12853708145E+03  0.12853708145E+03  0.00000000000E+00 0. -1.
         25    2    1    2    0    0  0.46378287983E+02 -0.74985718009E+02  0.23498125776E+01  0.15306061106E+03  0.12509286765E+03 0.  0.
          5    1    3    3  502    0  0.77327621583E+02 -0.18711178670E+02  0.27032534242E+02  0.84130253622E+02  0.41800000000E+01 0.  1.
         -5    1    3    3    0  502 -0.30949333600E+02 -0.56274539338E+02 -0.24682721665E+02  0.68930357440E+02  0.41800000000E+01 0.  1.
        -11    1    1    2    0    0 -0.21773999490E+02  0.27538374949E+02 -0.35472446383E+02  0.49907550542E+02  0.00000000000E+00 0. -1.
         11    1    1    2    0    0 -0.24604288493E+02  0.47447343059E+02  0.57577022999E+02  0.78560390484E+02  0.00000000000E+00 0.  1.
</event>
<event>
 7    1  0.2820496E-009  0.1607474E+03  0.7561462E-02  0.1187856E+00
         -1   -1    0    0    0  501 -0.00000000000E+00  0.00000000000E+00  0.24727475045E+03  0.24727475045E+03  0.00000000000E+00 0.  1.
          1   -1    0    0  501    0  0.00000000000E+00 -0.00000000000E+00 -0.13292802815E+03  0.13292802815E+03  0.00000000000E+00 0. -1.
         25    2    1    2    0    0 -0.73302680069E+02  0.12209629490E+03  0.83232744734E+02  0.20701303188E+03  0.12508364177E+03 0.  0.
          5    1    3    3  502    0 -0.28831980772E+02 -0.13688417303E+02  0.51275300584E+02  0.60541595069E+02  0.41800000000E+01 0.  1.
         -5    1    3    3    0  502 -0.44470699297E+02  0.13578471221E+03  0.31957444150E+02  0.14647143681E+03  0.41800000000E+01 0.  1.
        -11    1    1    2    0    0  0.17932478599E+02 -0.62469005278E+02 -0.29845422411E+02  0.71517128354E+02  0.00000000000E+00 0.  1.
         11    1    1    2    0    0  0.55370201471E+02 -0.59627289625E+02  0.60959399986E+02  0.10167261837E+03  0.00000000000E+00 0. -1.
</event>
<event>
 7    1  0.2820496E-009  0.9254272E+02  0.7561462E-02  0.1296808E+00
         -1   -1    0    0    0  501 -0.00000000000E+00  0.00000000000E+00  0.88862066900E+02  0.88862066900E+02  0.00000000000E+00 0.  1.
          1   -1    0    0  501    0  0.00000000000E+00 -0.00000000000E+00 -0.13653609910E+03  0.13653609910E+03  0.00000000000E+00 0. -1.
         25    2    1    2    0    0 -0.12115284734E+02 -0.89909267129E+01 -0.18198742855E+02  0.12730511778E+03  0.12509109434E+03 0.  0.
          5    1    3    3  502    0 -0.50511738241E+02  0.87761549605E+01 -0.51886227927E+02  0.73062368183E+02  0.41800000000E+01 0. -1.
         -5    1    3    3    0  502  0.38396453507E+02 -0.17767081673E+02  0.33687485072E+02  0.54242749595E+02  0.41800000000E+01 0. -1.
        -11    1    1    2    0    0 -0.24611020809E+02 -0.29173148319E+02 -0.23426163928E+02  0.44783480040E+02  0.00000000000E+00 0.  1.
         11    1    1    2    0    0  0.36726305543E+02  0.38164075032E+02 -0.60491254209E+01  0.53309568187E+02  0.00000000000E+00 0. -1.
</event>
<event>
 7    1  0.2820496E-009  0.1099956E+03  0.7561462E-02  0.1260578E+00
         -1   -1    0    0    0  501 -0.00000000000E+00  0.00000000000E+00  0.34931585453E+03  0.34931585453E+03  0.00000000000E+00 0.  1.
          1   -1    0    0  501    0  0.00000000000E+00 -0.00000000000E+00 -0.72546312472E+02  0.72546312472E+02  0.00000000000E+00 0. -1.
         25    2    1    2    0    0  0.70518674907E+02 -0.25642327582E+02  0.31198073337E+02  0.14916674985E+03  0.12508791710E+03 0.  0.
          5    1    3    3  502    0  0.10182518452E+03 -0.95804753848E+01  0.44101602864E+02  0.11145661706E+03  0.41800000000E+01 0.  1.
         -5    1    3    3    0  502 -0.31306509616E+02 -0.16061852198E+02 -0.12903529527E+02  0.37710132784E+02  0.41800000000E+01 0.  1.
        -11    1    1    2    0    0 -0.44777176582E+02  0.32769532833E+02  0.23877079109E+03  0.24513328722E+03  0.00000000000E+00 0.  1.
         11    1    1    2    0    0 -0.25741498324E+02 -0.71272052505E+01  0.68006776351E+01  0.27562129942E+02  0.00000000000E+00 0. -1.
</event>
<event>
 7    1  0.2820496E-009  0.2045419E+03  0.7561462E-02  0.1145963E+00
          1   -1    0    0  501    0  0.00000000000E+00  0.00000000000E+00  0.13071271220E+03  0.13071271220E+03  0.00000000000E+00 0. -1.
         -1   -1    0    0    0  501 -0.00000000000E+00 -0.00000000000E+00 -0.43458645977E+03  0.43458645977E+03  0.00000000000E+00 0.  1.
         25    2    1    2    0    0 -0.11349716269E+03 -0.15150062397E+03 -0.27060005431E+03  0.35313894205E+03  0.12509467614E+03 0.  0.
          5    1    3    3  502    0  0.63007523103E+01 -0.17900493522E+01 -0.87951769407E+02  0.88294336727E+02  0.41800000000E+01 0.  1.
         -5    1    3    3    0  502 -0.11979791500E+03 -0.14971057461E+03 -0.18264828490E+03  0.26484460532E+03  0.41800000000E+01 0.  1.
        -11    1    1    2    0    0  0.51011044195E+02  0.13584828795E+03 -0.22178369604E+02  0.14679497283E+03  0.00000000000E+00 0. -1.
         11    1    1    2    0    0  0.62486118498E+02  0.15652336018E+02 -0.11095323663E+02  0.65365257094E+02  0.00000000000E+00 0.  1.
</event>
<event>
 7    1  0.3177122E-009  0.2597329E+03  0.7561462E-02  0.1107304E+00
         -2   -1    0    0    0  501 -0.00000000000E+00  0.00000000000E+00  0.66429104468E+02  0.66429104468E+02  0.00000000000E+00 0. -1.
          2   -1    0    0  501    0  0.00000000000E+00 -0.00000000000E+00 -0.13394040359E+04  0.13394040359E+04  0.00000000000E+00 0.  1.
         25    2    1    2    0    0 -0.22229800850E+03  0.13344502647E+03 -0.88205889463E+03  0.92784697014E+03  0.12509247265E+03 0.  0.
          5    1    3    3  502    0 -0.18777803633E+03  0.11757901211E+03 -0.84858506667E+03  0.87704019451E+03  0.41800000000E+01 0. -1.
         -5    1    3    3    0  502 -0.34519972172E+02  0.15866014367E+02 -0.33473827964E+02  0.50806775623E+02  0.41800000000E+01 0. -1.
        -11    1    1    2    0    0  0.13864392420E+03 -0.75257760147E+02 -0.31013389531E+03  0.34794956703E+03  0.00000000000E+00 0.  1.
         11    1    1    2    0    0  0.83654084308E+02 -0.58187266325E+02 -0.80782141449E+02  0.13003660316E+03  0.00000000000E+00 0. -1.
</event>
<event>
 7    1  0.2820496E-009  0.1211897E+03  0.7561462E-02  0.1241147E+00
          1   -1    0    0  501    0  0.00000000000E+00  0.00000000000E+00  0.28830913650E+03  0.28830913650E+03  0.00000000000E+00 0. -1.
         -1   -1    0    0    0  501 -0.00000000000E+00 -0.00000000000E+00 -0.79749258860E+02  0.79749258860E+02  0.00000000000E+00 0.  1.
         25    2    1    2    0    0  0.29252447710E+02 -0.92373607637E+02  0.16601159841E+03  0.22933675996E+03  0.12508760761E+03 0.  0.
          5    1    3    3  502    0  0.25794368931E+02 -0.10437053504E+03  0.18026537352E+03  0.20993245424E+03  0.41800000000E+01 0.  1.
         -5    1    3    3    0  502  0.34580787793E+01  0.11996927400E+02 -0.14253775107E+02  0.19404305725E+02  0.41800000000E+01 0.  1.
        -11    1    1    2    0    0  0.88527296799E+01  0.81521183265E+02  0.19925436511E+01  0.82024657109E+02  0.00000000000E+00 0.  1.
         11    1    1    2    0    0 -0.38105177390E+02  0.10852424372E+02  0.40555735576E+02  0.56696978286E+02  0.00000000000E+00 0. -1.
</event>
<event>
 7    1  0.2820496E-009  0.2312952E+03  0.7561462E-02  0.1125731E+00
          1   -1    0    0  501    0  0.00000000000E+00  0.00000000000E+00  0.57434803896E+03  0.57434803896E+03  0.00000000000E+00 0.  1.
         -1   -1    0    0    0  501 -0.00000000000E+00 -0.00000000000E+00 -0.10129370976E+03  0.10129370976E+03  0.00000000000E+00 0. -1.
         25    2    1    2    0    0  0.11209697275E+02 -0.21004208000E+03  0.30854368785E+03  0.39381248880E+03  0.12508291785E+03 0.  0.
          5    1    3    3  502    0 -0.48766071173E+02 -0.36955326965E+02  0.83688754721E+02  0.10375502858E+03  0.41800000000E+01 0. -1.
         -5    1    3    3    0  502  0.59975768448E+02 -0.17308675304E+03  0.22485493313E+03  0.29005746022E+03  0.41800000000E+01 0. -1.
        -11    1    1    2    0    0  0.22989040693E+02  0.10766578849E+03  0.40212303718E+02  0.11720685720E+03  0.00000000000E+00 0.  1.
         11    1    1    2    0    0 -0.34198737968E+02  0.10237629151E+03  0.12429833763E+03  0.16462240272E+03  0.00000000000E+00 0. -1.
</event>
<event>
 7    1  0.2820496E-009  0.1426018E+03  0.7561462E-02  0.1209870E+00
         -2   -1    0    0    0  501 -0.00000000000E+00  0.00000000000E+00  0.29543586976E+02  0.29543586976E+02  0.00000000000E+00 0.  1.
          2   -1    0    0  501    0  0.00000000000E+00 -0.00000000000E+00 -0.10372821327E+04  0.10372821327E+04  0.00000000000E+00 0. -1.
         25    2    1    2    0    0 -0.20025586527E+02  0.13466122885E+03 -0.56421798532E+03  0.59373336260E+03  0.12507078092E+03 0.  0.
          5    1    3    3  502    0 -0.25528056397E+02  0.16504227959E+02 -0.19617347684E+02  0.36419554282E+02  0.41800000000E+01 0.  1.
         -5    1    3    3    0  502  0.55024698700E+01  0.11815700089E+03 -0.54460063763E+03  0.55731380832E+03  0.41800000000E+01 0.  1.
        -11    1    1    2    0    0  0.25912380963E+01 -0.23080861983E+02 -0.10324399733E+02  0.25417197615E+02  0.00000000000E+00 0.  1.
         11    1    1    2    0    0  0.17434348431E+02 -0.11158036686E+03 -0.43319616070E+03  0.44767515948E+03  0.00000000000E+00 0. -1.
</event>
<event>
 7    1  0.2820496E-009  0.1162436E+03  0.7561462E-02  0.1249426E+00
          2   -1    0    0  501    0  0.00000000000E+00  0.00000000000E+00  0.10442382278E+04  0.10442382278E+04  0.00000000000E+00 0. -1.
         -2   -1    0    0    0  501 -0.00000000000E+00 -0.00000000000E+00 -0.16491323267E+02  0.16491323267E+02  0.00000000000E+00 0.  1.
         25    2    1    2    0    0 -0.22678336410E+02 -0.58459663475E+02  0.41094854524E+03  0.43411650262E+03  0.12508633747E+03 0.  0.
          5    1    3    3  502    0  0.99983066143E+01 -0.81243550125E+02  0.36050281116E+03  0.36970289400E+03  0.41800000000E+01 0. -1.
         -5    1    3    3    0  502 -0.32676643024E+02  0.22783886649E+02  0.50445734073E+02  0.64413608627E+02  0.41800000000E+01 0. -1.
        -11    1    1    2    0    0 -0.19136956941E+02 -0.16084354343E+02  0.14039202383E+03  0.14260031532E+03  0.00000000000E+00 0. -1.
         11    1    1    2    0    0  0.41815293351E+02  0.74544017819E+02  0.47640633551E+03  0.48401273317E+03  0.00000000000E+00 0.  1.
</event>
<event>
 7    1  0.2820496E-009  0.8852868E+02  0.7561462E-02  0.1306454E+00
         -4   -1    0    0    0  501 -0.00000000000E+00  0.00000000000E+00  0.28595286723E+03  0.28595286723E+03  0.00000000000E+00 0. -1.
          4   -1    0    0  501    0  0.00000000000E+00 -0.00000000000E+00 -0.65363682646E+02  0.65363682646E+02  0.00000000000E+00 0.  1.
         25    2    1    2    0    0 -0.35504720512E+02  0.50635009366E+01  0.21585627500E+03  0.25204663711E+03  0.12508937446E+03 0.  0.
          5    1    3    3  502    0  0.24914261223E+02  0.48961548207E+02  0.99095761901E+02  0.11338163891E+03  0.41800000000E+01 0.  1.
         -5    1    3    3    0  502 -0.60418981735E+02 -0.43898047270E+02  0.11676051310E+03  0.13866499820E+03  0.41800000000E+01 0.  1.
        -11    1    1    2    0    0  0.96126298663E+01 -0.16311647191E+02  0.45729478565E+02  0.49494016778E+02  0.00000000000E+00 0. -1.
         11    1    1    2    0    0  0.25892090645E+02  0.11248146254E+02 -0.40996568984E+02  0.49775895980E+02  0.00000000000E+00 0.  1.
</event>
<event>
 7    1  0.2820496E-009  0.1913520E+03  0.7561462E-02  0.1157248E+00
         -2   -1    0    0    0  501 -0.00000000000E+00  0.00000000000E+00  0.44223885282E+03  0.44223885282E+03  0.00000000000E+00 0. -1.
          2   -1    0    0  501    0  0.00000000000E+00 -0.00000000000E+00 -0.13976721163E+03  0.13976721163E+03  0.00000000000E+00 0.  1.
         25    2    1    2    0    0 -0.83005782995E+02  0.15073921879E+03  0.32372030102E+03  0.38736785735E+03  0.12508697583E+03 0.  0.
          5    1    3    3  502    0 -0.60441604835E+02  0.22935715207E+02  0.19102662326E+03  0.20171236407E+03  0.41800000000E+01 0.  1.
         -5    1    3    3    0  502 -0.22564178160E+02  0.12780350359E+03  0.13269367776E+03  0.18565549328E+03  0.41800000000E+01 0.  1.
        -11    1    1    2    0    0  0.96721412106E+02 -0.11797479302E+03  0.13097490077E+01  0.15256080358E+03  0.00000000000E+00 0. -1.
         11    1    1    2    0    0 -0.13715629110E+02 -0.32764425778E+02 -0.22558408839E+02  0.42077403530E+02  0.00000000000E+00 0.  1.
</event>
<event>
 7    1  0.2820496E-009  0.1281454E+03  0.7561462E-02  0.1230234E+00
          2   -1    0    0  501    0  0.00000000000E+00  0.00000000000E+00  0.18237881285E+04  0.18237881285E+04  0.00000000000E+00 0. -1.
         -2   -1    0    0    0  501 -0.00000000000E+00 -0.00000000000E+00 -0.11322149100E+02  0.11322149100E+02  0.00000000000E+00 0.  1.
         25    2    1    2    0    0  0.63160649692E+02 -0.30836872593E+02  0.13780231724E+04  0.13854730628E+04  0.12509022174E+03 0.  0.
          5    1    3    3  502    0  0.80459268122E+02 -0.65060587676E+02  0.91349830878E+03  0.91934933863E+03  0.41800000000E+01 0. -1.
         -5    1    3    3    0  502 -0.17298618430E+02  0.34223715083E+02  0.46452486362E+03  0.46612372413E+03  0.41800000000E+01 0. -1.
        -11    1    1    2    0    0 -0.32397277214E+02 -0.31159675441E+02  0.21040453183E+03  0.21515244818E+03  0.00000000000E+00 0. -1.
         11    1    1    2    0    0 -0.30763372478E+02  0.61996548034E+02  0.22403827517E+03  0.23448476666E+03  0.00000000000E+00 0.  1.
</event>
<event>
 7    1  0.2820496E-009  0.1346870E+03  0.7561462E-02  0.1220662E+00
          3   -1    0    0  501    0  0.00000000000E+00  0.00000000000E+00  0.11378364607E+03  0.11378364607E+03  0.00000000000E+00 0. -1.
         -3   -1    0    0    0  501 -0.00000000000E+00 -0.00000000000E+00 -0.20219188120E+03  0.20219188120E+03  0.00000000000E+00 0.  1.
         25    2    1    2    0    0  0.66162436048E+01  0.80132449454E+02  0.22430717946E+02  0.15038490589E+03  0.12508996234E+03 0.  0.
          5    1    3    3  502    0 -0.59120350663E+02  0.40501286058E+02  0.12687335474E+02  0.72897262749E+02  0.41800000000E+01 0.  1.
         -5    1    3    3    0  502  0.65736594268E+02  0.39631163396E+02  0.97433824716E+01  0.77487643144E+02  0.41800000000E+01 0.  1.
        -11    1    1    2    0    0 -0.36572584846E+02 -0.15358881510E+01 -0.19697082687E+02  0.41567871982E+02  0.00000000000E+00 0.  1.
         11    1    1    2    0    0  0.29956341241E+02 -0.78596561303E+02 -0.91141870384E+02  0.12402274939E+03  0.00000000000E+00 0. -1.
</event>
<event>
 7    1  0.2820496E-009  0.9372339E+02  0.7561462E-02  0.1294077E+00
          2   -1    0    0  501    0  0.00000000000E+00  0.00000000000E+00  0.68804821937E+03  0.68804821937E+03  0.00000000000E+00 0. -1.
         -2   -1    0    0    0  501 -0.00000000000E+00 -0.00000000000E+00 -0.20155687261E+02  0.20155687261E+02  0.00000000000E+00 0.  1.
         25    2    1    2    0    0  0.19145903661E+02 -0.35325586297E+02  0.47146942591E+03  0.48943643894E+03  0.12510054164E+03 0.  0.
          5    1    3    3  502    0  0.33715173593E+02 -0.58764432219E+02  0.12843881011E+03  0.14527206121E+03  0.41800000000E+01 0.  1.
         -5    1    3    3    0  502 -0.14569269931E+02  0.23438845922E+02  0.34303061580E+03  0.34416437773E+03  0.41800000000E+01 0.  1.
        -11    1    1    2    0    0 -0.20147818661E+02 -0.24557314984E+02  0.10307376131E+03  0.10785729732E+03  0.00000000000E+00 0.  1.
         11    1    1    2    0    0  0.10019149996E+01  0.59882901281E+02  0.93349344892E+02  0.11091017037E+03  0.00000000000E+00 0. -1.
</event>
<event>
 7    1  0.2820496E-009  0.2089185E+03  0.7561462E-02  0.1142425E+00
          2   -1    0    0  501    0  0.00000000000E+00  0.00000000000E+00  0.11038773682E+03  0.11038773682E+03  0.00000000000E+00 0. -1.
         -2   -1    0    0    0  501 -0.00000000000E+00 -0.00000000000E+00 -0.45707437531E+03  0.45707437531E+03  0.00000000000E+00 0.  1.
         25    2    1    2    0    0  0.91539322457E+02  0.16306710459E+03 -0.10399153211E+03  0.24785445356E+03  0.12508902127E+03 0.  0.
          5    1    3    3  502    0  0.27477892293E+02  0.15787867218E+03 -0.79623304062E+02  0.17899176698E+03  0.41800000000E+01 0.  1.
         -5    1    3    3    0  502  0.64061430165E+02  0.51884324097E+01 -0.24368228043E+02  0.68862686584E+02  0.41800000000E+01 0.  1.
        -11    1    1    2    0    0 -0.44066424824E+02 -0.12414660874E+03 -0.10368064658E+03  0.16764219855E+03  0.00000000000E+00 0. -1.
         11    1    1    2    0    0 -0.47472897633E+02 -0.38920495848E+02 -0.13901445981E+03  0.15196546003E+03  0.00000000000E+00 0.  1.
</event>
<event>
 7    1  0.2820496E-009  0.9771048E+02  0.7561462E-02  0.1285185E+00
         -2   -1    0    0    0  501 -0.00000000000E+00  0.00000000000E+00  0.12967614492E+02  0.12967614492E+02  0.00000000000E+00 0.  1.
          2   -1    0    0  501    0  0.00000000000E+00 -0.00000000000E+00 -0.12674686098E+04  0.12674686098E+04  0.00000000000E+00 0. -1.
         25    2    1    2    0    0  0.28773688571E+00 -0.21514829411E+02 -0.10437939414E+04  0.10514827343E+04  0.12508867976E+03 0.  0.
          5    1    3    3  502    0 -0.59679678670E+02 -0.89593073775E+00 -0.63032342554E+03  0.63315682096E+03  0.41800000000E+01 0.  1.
         -5    1    3    3    0  502  0.59967415556E+02 -0.20618898673E+02 -0.41347051587E+03  0.41832591338E+03  0.41800000000E+01 0.  1.
        -11    1    1    2    0    0  0.28495382021E+02  0.30640085898E+02 -0.48923656854E+02  0.64376438705E+02  0.00000000000E+00 0.  1.
         11    1    1    2    0    0 -0.28783118907E+02 -0.91252564868E+01 -0.16178339708E+03  0.16457705129E+03  0.00000000000E+00 0. -1.
</event>
<event>
 7    1  0.2820496E-009  0.1084895E+03  0.7561462E-02  0.1263393E+00
          2   -1    0    0  501    0  0.00000000000E+00  0.00000000000E+00  0.88917407843E+03  0.88917407843E+03  0.00000000000E+00 0. -1.
         -2   -1    0    0    0  501 -0.00000000000E+00 -0.00000000000E+00 -0.29788882209E+02  0.29788882209E+02  0.00000000000E+00 0.  1.
         25    2    1    2    0    0  0.18358282537E+02 -0.97327202718E+02  0.67738449193E+03  0.69592870174E+03  0.12512952119E+03 0.  0.
          5    1    3    3  502    0  0.33164003976E+02 -0.20800067935E+02  0.50686972050E+03  0.50839638074E+03  0.41800000000E+01 0. -1.
         -5    1    3    3    0  502 -0.14805721439E+02 -0.76527134783E+02  0.17051477143E+03  0.18753232101E+03  0.41800000000E+01 0. -1.
        -11    1    1    2    0    0 -0.44076581324E+00  0.26141741028E+02 -0.68285382304E+00  0.26154372251E+02  0.00000000000E+00 0.  1.
         11    1    1    2    0    0 -0.17917516723E+02  0.71185461690E+02  0.18268355811E+03  0.19687988665E+03  0.00000000000E+00 0. -1.
</event>
<event>
 7    1  0.3185560E-009  0.8593278E+02  0.7561462E-02  0.1313011E+00
          2   -1    0    0  501    0  0.00000000000E+00  0.00000000000E+00  0.10634102820E+04  0.10634102820E+04  0.00000000000E+00 0. -1.
         -2   -1    0    0    0  501 -0.00000000000E+00 -0.00000000000E+00 -0.14095234254E+02  0.14095234254E+02  0.00000000000E+00 0.  1.
         25    2    1    2    0    0 -0.34037983999E+02 -0.24160189288E+02  0.75448524890E+03  0.76592274942E+03  0.12508944070E+03 0.  0.
          5    1    3    3  502    0  0.30424321380E+01 -0.42028690109E+02  0.83129332574E+02  0.93293223333E+02  0.41800000000E+01 0.  1.
         -5    1    3    3    0  502 -0.37080416137E+02  0.17868500821E+02  0.67135591632E+03  0.67262952609E+03  0.41800000000E+01 0.  1.
        -11    1    1    2    0    0  0.47501920575E+02 -0.12478004980E+02  0.85134069069E+02  0.98285007925E+02  0.00000000000E+00 0.  1.
         11    1    1    2    0    0 -0.13463936577E+02  0.36638194268E+02  0.20969572976E+03  0.21329775889E+03  0.00000000000E+00 0. -1.
</event>
<event>
 7    1  0.2820496E-009  0.1050926E+03  0.7561462E-02  0.1269937E+00
         -1   -1    0    0    0  501 -0.00000000000E+00  0.00000000000E+00  0.73742797006E+03  0.73742797006E+03  0.00000000000E+00 0.  1.
          1   -1    0    0  501    0  0.00000000000E+00 -0.00000000000E+00 -0.18956237306E+02  0.18956237306E+02  0.00000000000E+00 0. -1.
         25    2    1    2    0    0 -0.78802190938E+01 -0.47244429866E+02  0.39472627003E+03  0.41683375339E+03  0.12508963069E+03 0.  0.
          5    1    3    3  502    0 -0.29332213222E+02  0.32407531020E+02  0.77952444580E+02  0.89468893004E+02  0.41800000000E+01 0.  1.
         -5    1    3    3    0  502  0.21451994128E+02 -0.79651960886E+02  0.31677382545E+03  0.32736486038E+03  0.41800000000E+01 0.  1.
        -11    1    1    2    0    0  0.20831874499E+02  0.61194782336E+02  0.30839309461E+03  0.31509533348E+03  0.00000000000E+00 0.  1.
         11    1    1    2    0    0 -0.12951655405E+02 -0.13950352470E+02  0.15352368122E+02  0.24455120501E+02  0.00000000000E+00 0. -1.
</event>
<event>
 7    1  0.2820496E-009  0.1112742E+03  0.7561462E-02  0.1258228E+00
          3   -1    0    0  501    0  0.00000000000E+00  0.00000000000E+00  0.15516439116E+03  0.15516439116E+03  0.00000000000E+00 0. -1.
         -3   -1    0    0    0  501 -0.00000000000E+00 -0.00000000000E+00 -0.17595133729E+03  0.17595133729E+03  0.00000000000E+00 0.  1.
         25    2    1    2    0    0  0.32913617836E+02  0.38049054752E+02 -0.12544752408E+03  0.18416184154E+03  0.12508983083E+03 0.  0.
          5    1    3    3  502    0 -0.24217134128E+02 -0.31384398225E+02 -0.63203953108E+02  0.74723905986E+02  0.41800000000E+01 0.  1.
         -5    1    3    3    0  502  0.57130751964E+02  0.69433452977E+02 -0.62243570969E+02  0.10943793556E+03  0.41800000000E+01 0.  1.
        -11    1    1    2    0    0  0.25019957790E+02 -0.19884656207E+02  0.82304707243E+01  0.33002098246E+02  0.00000000000E+00 0.  1.
         11    1    1    2    0    0 -0.57933575626E+02 -0.18164398544E+02  0.96430107220E+02  0.11395178866E+03  0.00000000000E+00 0. -1.
</event>
<event>
 7    1  0.2820496E-009  0.1401708E+03  0.7561462E-02  0.1213099E+00
          2   -1    0    0  501    0  0.00000000000E+00  0.00000000000E+00  0.68192265153E+03  0.68192265153E+03  0.00000000000E+00 0.  1.
         -2   -1    0    0    0  501 -0.00000000000E+00 -0.00000000000E+00 -0.93528179484E+02  0.93528179484E+02  0.00000000000E+00 0. -1.
         25    2    1    2    0    0  0.20628121045E+02  0.11766345038E+03  0.59886700925E+03  0.62334567536E+03  0.12509168358E+03 0.  0.
          5    1    3    3  502    0 -0.15294001067E+02  0.75795374184E+02  0.52695656460E+03  0.53261575136E+03  0.41800000000E+01 0. -1.
         -5    1    3    3    0  502  0.35922122112E+02  0.41868076200E+02  0.71910444642E+02  0.90729924007E+02  0.41800000000E+01 0. -1.
        -11    1    1    2    0    0  0.33148183114E+02 -0.61239300781E+02 -0.22622960030E+02  0.73217841572E+02  0.00000000000E+00 0. -1.
         11    1    1    2    0    0 -0.53776304158E+02 -0.56424149602E+02  0.12150422831E+02  0.78887314077E+02  0.00000000000E+00 0.  1.
</event>
<event>
 7    1  0.2820496E-009  0.7736038E+02  0.7561462E-02  0.1336714E+00
         -1   -1    0    0    0  501 -0.00000000000E+00  0.00000000000E+00  0.47624009575E+03  0.47624009575E+03  0.00000000000E+00 0.  1.
          1   -1    0    0  501    0  0.00000000000E+00 -0.00000000000E+00 -0.65720002110E+02  0.65720002110E+02  0.00000000000E+00 0. -1.
         25    2    1    2    0    0  0.39298963623E+02 -0.26790433450E+02  0.41597872710E+03  0.43697812499E+03  0.12509773962E+03 0.  0.
          5    1    3    3  502    0  0.10382854015E+01 -0.53781365582E+01  0.38012150384E+03  0.38018394557E+03  0.41800000000E+01 0. -1.
         -5    1    3    3    0  502  0.38260678222E+02 -0.21412296892E+02  0.35857223256E+02  0.56794179419E+02  0.41800000000E+01 0. -1.
        -11    1    1    2    0    0 -0.14079408948E+02 -0.34634196234E+02  0.51494506929E+01  0.37739556801E+02  0.00000000000E+00 0. -1.
         11    1    1    2    0    0 -0.25219554675E+02  0.61424629684E+02 -0.10608084147E+02  0.67242416071E+02  0.00000000000E+00 0.  1.
</event>
<event>
 7    1  0.2820496E-009  0.1060584E+03  0.7561462E-02  0.1268048E+00
         -1   -1    0    0    0  501 -0.00000000000E+00  0.00000000000E+00  0.12840040812E+02  0.12840040812E+02  0.00000000000E+00 0.  1.
          1   -1    0    0  501    0  0.00000000000E+00 -0.00000000000E+00 -0.17410389316E+04  0.17410389316E+04  0.00000000000E+00 0. -1.
         25    2    1    2    0    0 -0.51633579573E+02 -0.12165244640E+02 -0.13785621415E+04  0.13852423788E+04  0.12509536458E+03 0.  0.
          5    1    3    3  502    0 -0.25587470315E+02  0.34386817137E+02 -0.16584088186E+03  0.17134130362E+03  0.41800000000E+01 0. -1.
         -5    1    3    3    0  502 -0.26046109258E+02 -0.46552061776E+02 -0.12127212596E+04  0.12139010751E+04  0.41800000000E+01 0. -1.
        -11    1    1    2    0    0 -0.50108396231E+01  0.48167195644E+02 -0.17397604461E+03  0.18059028587E+03  0.00000000000E+00 0. -1.
         11    1    1    2    0    0  0.56644419196E+02 -0.36001951004E+02 -0.17566070468E+03  0.18804630779E+03  0.00000000000E+00 0.  1.
</event>
<event>
 7    1  0.2820496E-009  0.1100191E+03  0.7561462E-02  0.1260534E+00
         -4   -1    0    0    0  501 -0.00000000000E+00  0.00000000000E+00  0.69099760397E+02  0.69099760397E+02  0.00000000000E+00 0.  1.
          4   -1    0    0  501    0  0.00000000000E+00 -0.00000000000E+00 -0.26024103052E+03  0.26024103052E+03  0.00000000000E+00 0. -1.
         25    2    1    2    0    0  0.37284831451E+02  0.63609090592E+02 -0.67712013658E+02  0.16021140903E+03  0.12508598534E+03 0.  0.
          5    1    3    3  502    0 -0.36361146007E+02  0.10789916710E+02  0.11414256995E+02  0.39828543838E+02  0.41800000000E+01 0.  1.
         -5    1    3    3    0  502  0.73645977458E+02  0.52819173881E+02 -0.79126270653E+02  0.12038286520E+03  0.41800000000E+01 0.  1.
        -11    1    1    2    0    0 -0.49170947983E+02 -0.62044706893E+02 -0.13232648548E+03  0.15419995635E+03  0.00000000000E+00 0. -1.
         11    1    1    2    0    0  0.11886116531E+02 -0.15643836988E+01  0.88972290157E+01  0.14929425532E+02  0.00000000000E+00 0.  1.
</event>
<event>
 7    1  0.2820496E-009  0.1121418E+03  0.7561462E-02  0.1256654E+00
         -2   -1    0    0    0  501 -0.00000000000E+00  0.00000000000E+00  0.58221775549E+02  0.58221775549E+02  0.00000000000E+00 0.  1.
          2   -1    0    0  501    0  0.00000000000E+00 -0.00000000000E+00 -0.38373988419E+03  0.38373988419E+03  0.00000000000E+00 0. -1.
         25    2    1    2    0    0  0.48089974082E+02 -0.42582488958E+02 -0.29069706457E+03  0.32292110156E+03  0.12508933012E+03 0.  0.
          5    1    3    3  502    0  0.57753008638E+02 -0.64691286158E+02 -0.28479136290E+03  0.29773136431E+03  0.41800000000E+01 0. -1.
         -5    1    3    3    0  502 -0.96630345554E+01  0.22108797200E+02 -0.59057016693E+01  0.25189737249E+02  0.41800000000E+01 0. -1.
        -11    1    1    2    0    0 -0.50705724965E+02 -0.16890352002E+02 -0.23773175886E+02  0.58493746903E+02  0.00000000000E+00 0. -1.
         11    1    1    2    0    0  0.26157508832E+01  0.59472840960E+02 -0.11047868188E+02  0.60546811279E+02  0.00000000000E+00 0.  1.
</event>
<event>
 7    1  0.2820496E-009  0.1865034E+03  0.7561462E-02  0.1161653E+00
          3   -1    0    0  501    0  0.00000000000E+00  0.00000000000E+00  0.10931758377E+03  0.10931758377E+03  0.00000000000E+00 0. -1.
         -3   -1    0    0    0  501 -0.00000000000E+00 -0.00000000000E+00 -0.41098128344E+03  0.41098128344E+03  0.00000000000E+00 0.  1.
         25    2    1    2    0    0 -0.87981602807E+02  0.15129041632E+03 -0.21908770211E+03  0.30704479672E+03  0.12509010144E+03 0.  0.
          5    1    3    3  502    0 -0.94269529254E+00  0.72161498755E+02 -0.18738544826E+02  0.74677814907E+02  0.41800000000E+01 0. -1.
         -5    1    3    3    0  502 -0.87038907515E+02  0.79128917564E+02 -0.20034915728E+03  0.23236698182E+03  0.41800000000E+01 0. -1.
        -11    1    1    2    0    0  0.43761824701E+02 -0.12291162160E+03 -0.92301960633E+02  0.15981869716E+03  0.00000000000E+00 0.  1.
         11    1    1    2    0    0  0.44219778107E+02 -0.28378794715E+02  0.97259630678E+01  0.53435373330E+02  0.00000000000E+00 0. -1.
</event>
<event>
 7    1  0.2820496E-009  0.7309320E+02  0.7561462E-02  0.1349880E+00
         -1   -1    0    0    0  501 -0.00000000000E+00  0.00000000000E+00  0.29332418242E+03  0.29332418242E+03  0.00000000000E+00 0.  1.
          1   -1    0    0  501    0  0.00000000000E+00 -0.00000000000E+00 -0.52426843728E+02  0.52426843728E+02  0.00000000000E+00 0. -1.
         25    2    1    2    0    0  0.12432989089E+02  0.18429735972E+02  0.55763271121E+02  0.13875232945E+03  0.12509369344E+03 0.  0.
          5    1    3    3  502    0 -0.22161264118E+00  0.34935447945E+02  0.91031812659E+02  0.97595071347E+02  0.41800000000E+01 0. -1.
         -5    1    3    3    0  502  0.12654601730E+02 -0.16505711973E+02 -0.35268541538E+02  0.41157258107E+02  0.41800000000E+01 0. -1.
        -11    1    1    2    0    0 -0.47427074414E+02 -0.25850306058E+02  0.13505160148E+03  0.14545274413E+03  0.00000000000E+00 0.  1.
         11    1    1    2    0    0  0.34994085325E+02  0.74205700858E+01  0.50082466091E+02  0.61545952571E+02  0.00000000000E+00 0. -1.
</event>
<event>
 7    1  0.2820496E-009  0.1253229E+03  0.7561462E-02  0.1234565E+00
          1   -1    0    0  501    0  0.00000000000E+00  0.00000000000E+00  0.47844786993E+03  0.47844786993E+03  0.00000000000E+00 0. -1.
         -1   -1    0    0    0  501 -0.00000000000E+00 -0.00000000000E+00 -0.37677851799E+02  0.37677851799E+02  0.00000000000E+00 0.  1.
         25    2    1    2    0    0 -0.53949899700E+02 -0.57048224706E+02  0.23272287268E+03  0.27563082415E+03  0.12508926465E+03 0.  0.
          5    1    3    3  502    0  0.12829194484E+02  0.28635599009E+02  0.22100937596E+02  0.38607118570E+02  0.41800000000E+01 0.  1.
         -5    1    3    3    0  502 -0.66779094184E+02 -0.85683823715E+02  0.21062193509E+03  0.23702370558E+03  0.41800000000E+01 0.  1.
        -11    1    1    2    0    0  0.73510852168E+02  0.37114536917E+02  0.19043469886E+03  0.20747700780E+03  0.00000000000E+00 0.  1.
         11    1    1    2    0    0 -0.19560952468E+02  0.19933687789E+02  0.17612446587E+02  0.33017889774E+02  0.00000000000E+00 0. -1.
</event>
<event>
 7    1  0.2820496E-009  0.1061415E+03  0.7561462E-02  0.1267887E+00
         -3   -1    0    0    0  501 -0.00000000000E+00  0.00000000000E+00  0.15127920455E+03  0.15127920455E+03  0.00000000000E+00 0.  1.
          3   -1    0    0  501    0  0.00000000000E+00 -0.00000000000E+00 -0.13234541087E+03  0.13234541087E+03  0.00000000000E+00 0. -1.
         25    2    1    2    0    0 -0.56387014578E+02  0.39076082012E+02  0.69581252467E+02  0.15873264757E+03  0.12509223441E+03 0.  0.
          5    1    3    3  502    0 -0.54798226226E+02 -0.22867414090E+02 -0.72219220687E+01  0.59961594234E+02  0.41800000000E+01 0. -1.
         -5    1    3    3    0  502 -0.15887883523E+01  0.61943496101E+02  0.76803174535E+02  0.98771053332E+02  0.41800000000E+01 0. -1.
        -11    1    1    2    0    0  0.63566605976E+02 -0.14703114211E+02 -0.67910456257E+02  0.94173908445E+02  0.00000000000E+00 0. -1.
         11    1    1    2    0    0 -0.71795913980E+01 -0.24372967801E+02  0.17262997470E+02  0.30718059407E+02  0.00000000000E+00 0.  1.
</event>
<event>
 7    1  0.2820496E-009  0.8972704E+02  0.7561462E-02  0.1303514E+00
         -1   -1    0    0    0  501 -0.00000000000E+00  0.00000000000E+00  0.33900253741E+03  0.33900253741E+03  0.00000000000E+00 0.  1.
          1   -1    0    0  501    0  0.00000000000E+00 -0.00000000000E+00 -0.60688487924E+02  0.60688487924E+02  0.00000000000E+00 0. -1.
         25    2    1    2    0    0  0.45326690577E+02  0.59502395589E+02  0.22958014112E+03  0.27193450042E+03  0.12508512045E+03 0.  0.
          5    1    3    3  502    0  0.16481917051E+02  0.30383953944E+02  0.22806489979E+03  0.23070741029E+03  0.41800000000E+01 0. -1.
         -5    1    3    3    0  502  0.28844773526E+02  0.29118441646E+02  0.15152413295E+01  0.41227090122E+02  0.41800000000E+01 0. -1.
        -11    1    1    2    0    0 -0.45139565748E+02 -0.12222103274E+01 -0.86385993712E+01  0.45974988777E+02  0.00000000000E+00 0. -1.
         11    1    1    2    0    0 -0.18712482961E+00 -0.58280185262E+02  0.57372507735E+02  0.81781536142E+02  0.00000000000E+00 0.  1.
</event>
<event>
 7    1  0.2820496E-009  0.1225660E+03  0.7561462E-02  0.1238923E+00
          2   -1    0    0  501    0  0.00000000000E+00  0.00000000000E+00  0.56058809878E+03  0.56058809878E+03  0.00000000000E+00 0. -1.
         -2   -1    0    0    0  501 -0.00000000000E+00 -0.00000000000E+00 -0.53808589006E+02  0.53808589006E+02  0.00000000000E+00 0.  1.
         25    2    1    2    0    0  0.45694173150E+02  0.91674179507E+02  0.11205781124E+03  0.19671576475E+03  0.12509207166E+03 0.  0.
          5    1    3    3  502    0  0.51061053130E+02  0.52671746563E+02  0.13298473564E+03  0.15193405262E+03  0.41800000000E+01 0.  1.
         -5    1    3    3    0  502 -0.53668799800E+01  0.39002432944E+02 -0.20926924398E+02  0.44781712127E+02  0.41800000000E+01 0.  1.
        -11    1    1    2    0    0 -0.23894326713E+02  0.11565733979E+02  0.13043610263E+03  0.13311003689E+03  0.00000000000E+00 0.  1.
         11    1    1    2    0    0 -0.21799846437E+02 -0.10323991349E+03  0.26428559590E+03  0.28457088614E+03  0.00000000000E+00 0. -1.
</event>
<event>
 7    1  0.2820496E-009  0.1046073E+03  0.7561462E-02  0.1270895E+00
         -2   -1    0    0    0  501 -0.00000000000E+00  0.00000000000E+00  0.18145613555E+02  0.18145613555E+02  0.00000000000E+00 0.  1.
          2   -1    0    0  501    0  0.00000000000E+00 -0.00000000000E+00 -0.90364015292E+03  0.90364015292E+03  0.00000000000E+00 0. -1.
         25    2    1    2    0    0  0.23531447809E+01  0.53617069049E+02 -0.64226599991E+03  0.65653119294E+03  0.12508902941E+03 0.  0.
          5    1    3    3  502    0 -0.38275707502E+02 -0.25416560014E+02 -0.25886427701E+03  0.26294337341E+03  0.41800000000E+01 0.  1.
         -5    1    3    3    0  502  0.40628852283E+02  0.79033629063E+02 -0.38340172290E+03  0.39358781953E+03  0.41800000000E+01 0.  1.
        -11    1    1    2    0    0 -0.64690429025E+01  0.91542359866E+01  0.25984132420E+01  0.11506533099E+02  0.00000000000E+00 0.  1.
         11    1    1    2    0    0  0.41158981217E+01 -0.62771305035E+02 -0.24582695270E+03  0.25374804044E+03  0.00000000000E+00 0. -1.
</event>
<event>
 7    1  0.2820496E-009  0.1078928E+03  0.7561462E-02  0.1264523E+00
          2   -1    0    0  501    0  0.00000000000E+00  0.00000000000E+00  0.45445557806E+02  0.45445557806E+02  0.00000000000E+00 0. -1.
         -2   -1    0    0    0  501 -0.00000000000E+00 -0.00000000000E+00 -0.36059010834E+03  0.36059010834E+03  0.00000000000E+00 0.  1.
         25    2    1    2    0    0 -0.53425593397E+02  0.31131372180E+02 -0.13236436150E+03  0.19232882476E+03  0.12508635528E+03 0.  0.
          5    1    3    3  502    0  0.10862715379E+02  0.39466205439E+02 -0.11912691948E+03  0.12603283422E+03  0.41800000000E+01 0.  1.
         -5    1    3    3    0  502 -0.64288308777E+02 -0.83348332587E+01 -0.13237442018E+02  0.66295990542E+02  0.41800000000E+01 0.  1.
        -11    1    1    2    0    0  0.59295955848E+02  0.16608815437E+02 -0.87794763540E+02  0.10723704414E+03  0.00000000000E+00 0. -1.
         11    1    1    2    0    0 -0.58703624505E+01 -0.47740187617E+02 -0.94985425495E+02  0.10646979725E+03  0.00000000000E+00 0.  1.
</event>
<event>
 7    1  0.2820496E-009  0.1071525E+03  0.7561462E-02  0.1265936E+00
         -1   -1    0    0    0  501 -0.00000000000E+00  0.00000000000E+00  0.48555835818E+03  0.48555835818E+03  0.00000000000E+00 0.  1.
          1   -1    0    0  501    0  0.00000000000E+00 -0.00000000000E+00 -0.30567059441E+02  0.30567059441E+02  0.00000000000E+00 0. -1.
         25    2    1    2    0    0 -0.26052079538E+02 -0.36556864728E+02  0.21032561593E+03  0.24879598850E+03  0.12508982361E+03 0.  0.
          5    1    3    3  502    0 -0.71624186492E+02 -0.13791346754E+02  0.77659612378E+02  0.10662416767E+03  0.41800000000E+01 0. -1.
         -5    1    3    3    0  502  0.45572106954E+02 -0.22765517974E+02  0.13266600355E+03  0.14217182084E+03  0.41800000000E+01 0. -1.
        -11    1    1    2    0    0  0.52933746377E+02  0.34474264999E+02  0.22567782436E+03  0.23435216419E+03  0.00000000000E+00 0.  1.
         11    1    1    2    0    0 -0.26881666839E+02  0.20825997287E+01  0.18987858442E+02  0.32977264924E+02  0.00000000000E+00 0. -1.
</event>
<event>
 7    1  0.2820496E-009  0.1276072E+03  0.7561462E-02  0.1231050E+00
         -2   -1    0    0    0  501 -0.00000000000E+00  0.00000000000E+00  0.33618473796E+02  0.33618473796E+02  0.00000000000E+00 0.  1.
          2   -1    0    0  501    0  0.00000000000E+00 -0.00000000000E+00 -0.67222514237E+03  0.67222514237E+03  0.00000000000E+00 0. -1.
         25    2    1    2    0    0  0.87138686732E+02  0.58447951667E+02 -0.31829317953E+03  0.35773155717E+03  0.12510797370E+03 0.  0.
          5    1    3    3  502    0  0.26008712775E+01  0.38045723780E+02 -0.23198931951E+03  0.23513986986E+03  0.41800000000E+01 0. -1.
         -5    1    3    3    0  502  0.84537815455E+02  0.20402227887E+02 -0.86303860015E+02  0.12259168731E+03  0.41800000000E+01 0. -1.
        -11    1    1    2    0    0 -0.74966477930E+02 -0.77084498903E+02 -0.29705993548E+03  0.31592182269E+03  0.00000000000E+00 0.  1.
         11    1    1    2    0    0 -0.12172208803E+02  0.18636547236E+02 -0.23253553573E+02  0.32190236311E+02  0.00000000000E+00 0. -1.
</event>
<event>
 7    1  0.2820496E-009  0.6213771E+02  0.7561462E-02  0.1389074E+00
          2   -1    0    0  501    0  0.00000000000E+00  0.00000000000E+00  0.63431597076E+03  0.63431597076E+03  0.00000000000E+00 0. -1.
         -2   -1    0    0    0  501 -0.00000000000E+00 -0.00000000000E+00 -0.19329475388E+02  0.19329475388E+02  0.00000000000E+00 0.  1.
         25    2    1    2    0    0 -0.28374043462E+01 -0.19538954589E+02  0.40748688139E+03  0.42670937386E+03  0.12508201159E+03 0.  0.
          5    1    3    3  502    0 -0.20640618461E+02  0.51322023057E+01  0.39833780237E+01  0.22038927638E+02  0.41800000000E+01 0.  1.
         -5    1    3    3    0  502  0.17803214115E+02 -0.24671156894E+02  0.40350350337E+03  0.40467044622E+03  0.41800000000E+01 0.  1.
        -11    1    1    2    0    0 -0.32618595186E+02  0.29708353971E+01  0.27608973316E+02  0.42837530537E+02  0.00000000000E+00 0.  1.
         11    1    1    2    0    0  0.35455999533E+02  0.16568119191E+02  0.17989064066E+03  0.18409854175E+03  0.00000000000E+00 0. -1.
</event>
<event>
 7    1  0.2820496E-009  0.1892738E+03  0.7561462E-02  0.1159118E+00
          3   -1    0    0  501    0  0.00000000000E+00  0.00000000000E+00  0.36447199805E+03  0.36447199805E+03  0.00000000000E+00 0. -1.
         -3   -1    0    0    0  501 -0.00000000000E+00 -0.00000000000E+00 -0.11610240763E+03  0.11610240763E+03  0.00000000000E+00 0.  1.
         25    2    1    2    0    0  0.14351411170E+02 -0.16634287756E+03  0.68560564212E+02  0.21960020161E+03  0.12509109346E+03 0.  0.
          5    1    3    3  502    0 -0.30154553322E+02 -0.12451386400E+03  0.87868924351E+02  0.15540727036E+03  0.41800000000E+01 0. -1.
         -5    1    3    3    0  502  0.44505964492E+02 -0.41829013569E+02 -0.19308360138E+02  0.64192931252E+02  0.41800000000E+01 0. -1.
        -11    1    1    2    0    0  0.36191702257E+02  0.45355451252E+02  0.55340385907E+02  0.80184253958E+02  0.00000000000E+00 0.  1.
         11    1    1    2    0    0 -0.50543113427E+02  0.12098742631E+03  0.12446864031E+03  0.18078995011E+03  0.00000000000E+00 0. -1.
</event>
<event>
 7    1  0.2820496E-009  0.1260585E+03  0.7561462E-02  0.1233424E+00
         -2   -1    0    0    0  501 -0.00000000000E+00  0.00000000000E+00  0.35296882322E+02  0.35296882322E+02  0.00000000000E+00 0.  1.
          2   -1    0    0  501    0  0.00000000000E+00 -0.00000000000E+00 -0.59024262664E+03  0.59024262664E+03  0.00000000000E+00 0. -1.
         25    2    1    2    0    0 -0.77909235540E+02  0.36805708519E+02 -0.33371430214E+03  0.36665650258E+03  0.12508895343E+03 0.  0.
          5    1    3    3  502    0 -0.10012739659E+03  0.60787750162E+02 -0.23542756933E+03  0.26299098638E+03  0.41800000000E+01 0.  1.
         -5    1    3    3    0  502  0.22218161053E+02 -0.23982041643E+02 -0.98286732807E+02  0.10366551619E+03  0.41800000000E+01 0.  1.
        -11    1    1    2    0    0  0.67525640808E+02 -0.41174014823E+01 -0.49671006831E+02  0.83927790874E+02  0.00000000000E+00 0.  1.
         11    1    1    2    0    0  0.10383594732E+02 -0.32688307036E+02 -0.17156043535E+03  0.17495521551E+03  0.00000000000E+00 0. -1.
</event>
<event>
 7    1  0.2820496E-009  0.9255154E+02  0.7561462E-02  0.1296788E+00
         -1   -1    0    0    0  501 -0.00000000000E+00  0.00000000000E+00  0.68853445164E+02  0.68853445164E+02  0.00000000000E+00 0.  1.
          1   -1    0    0  501    0  0.00000000000E+00 -0.00000000000E+00 -0.19162347032E+03  0.19162347032E+03  0.00000000000E+00 0. -1.
         25    2    1    2    0    0 -0.33620711821E+02 -0.58856853137E+01 -0.91407011827E+02  0.15864430409E+03  0.12509108623E+03 0.  0.
          5    1    3    3  502    0  0.21202559771E+02 -0.26676522918E+02 -0.93726667677E+02  0.99816562001E+02  0.41800000000E+01 0.  1.
         -5    1    3    3    0  502 -0.54823271592E+02  0.20790837605E+02  0.23196558507E+01  0.58827742092E+02  0.41800000000E+01 0.  1.
        -11    1    1    2    0    0  0.60760527075E+02  0.16318194042E+02 -0.59113379466E+01  0.63190735267E+02  0.00000000000E+00 0.  1.
         11    1    1    2    0    0 -0.27139815255E+02 -0.10432508728E+02 -0.25451675380E+02  0.38641876120E+02  0.00000000000E+00 0. -1.
</event>
<event>
 7    1  0.2820496E-009  0.2554627E+03  0.7561462E-02  0.1109900E+00
          2   -1    0    0  501    0  0.00000000000E+00  0.00000000000E+00  0.99197729082E+03  0.99197729082E+03  0.00000000000E+00 0. -1.
         -2   -1    0    0    0  501 -0.00000000000E+00 -0.00000000000E+00 -0.71422300267E+02  0.71422300267E+02  0.00000000000E+00 0.  1.
         25    2    1    2    0    0 -0.21864121835E+03 -0.90974272245E+02  0.36468805545E+03  0.45246927385E+03  0.12510301925E+03 0.  0.
          5    1    3    3  502    0 -0.10888576288E+03  0.17463167819E+02  0.18673578078E+03  0.21690734384E+03  0.41800000000E+01 0.  1.
         -5    1    3    3    0  502 -0.10975545546E+03 -0.10843744006E+03  0.17795227467E+03  0.23556193001E+03  0.41800000000E+01 0.  1.
        -11    1    1    2    0    0  0.11493411292E+02 -0.10490394198E+02  0.87182421912E+02  0.88560270799E+02  0.00000000000E+00 0.  1.
         11    1    1    2    0    0  0.20714780706E+03  0.10146466644E+03  0.46868451319E+03  0.52237004643E+03  0.00000000000E+00 0. -1.
</event>
<event>
 7    1  0.2820496E-009  0.1224895E+03  0.7561462E-02  0.1239046E+00
         -1   -1    0    0    0  501 -0.00000000000E+00  0.00000000000E+00  0.20536988585E+03  0.20536988585E+03  0.00000000000E+00 0.  1.
          1   -1    0    0  501    0  0.00000000000E+00 -0.00000000000E+00 -0.11435243358E+03  0.11435243358E+03  0.00000000000E+00 0. -1.
         25    2    1    2    0    0  0.47453158645E+02  0.95160028878E+02  0.30993360226E+02  0.16708074196E+03  0.12509257610E+03 0.  0.
          5    1    3    3  502    0 -0.34346768396E+01  0.30303968052E+02  0.69489204302E+02  0.76002298644E+02  0.41800000000E+01 0. -1.
         -5    1    3    3    0  502  0.50887835485E+02  0.64856060826E+02 -0.38495844076E+02  0.91078443319E+02  0.41800000000E+01 0. -1.
        -11    1    1    2    0    0  0.17304533207E+02 -0.94724168413E+00  0.29665842831E+02  0.34357042468E+02  0.00000000000E+00 0.  1.
         11    1    1    2    0    0 -0.64757691852E+02 -0.94212787194E+02  0.30358249214E+02  0.11828453500E+03  0.00000000000E+00 0. -1.
</event>
<event>
 7    1  0.2820496E-009  0.8076475E+02  0.7561462E-02  0.1326895E+00
          3   -1    0    0  501    0  0.00000000000E+00  0.00000000000E+00  0.56528309186E+02  0.56528309186E+02  0.00000000000E+00 0. -1.
         -3   -1    0    0    0  501 -0.00000000000E+00 -0.00000000000E+00 -0.29163538094E+03  0.29163538094E+03  0.00000000000E+00 0.  1.
         25    2    1    2    0    0  0.49216940638E+02  0.34817742816E+02 -0.18776719072E+03  0.23353608239E+03  0.12509197179E+03 0.  0.
          5    1    3    3  502    0  0.21255096563E+02  0.80727638352E+01  0.14678216935E+02  0.27383774361E+02  0.41800000000E+01 0.  1.
         -5    1    3    3    0  502  0.27961844074E+02  0.26744978981E+02 -0.20244540765E+03  0.20615230802E+03  0.41800000000E+01 0.  1.
        -11    1    1    2    0    0  0.11331249957E+02 -0.37211208495E+02 -0.20042930043E+01  0.38949819687E+02  0.00000000000E+00 0. -1.
         11    1    1    2    0    0 -0.60548190595E+02  0.23934656784E+01 -0.45335588033E+02  0.75677788053E+02  0.00000000000E+00 0.  1.
</event>
<event>
 7    1  0.2820496E-009  0.1443864E+03  0.7561462E-02  0.1207546E+00
          2   -1    0    0  501    0  0.00000000000E+00  0.00000000000E+00  0.22633047175E+03  0.22633047175E+03  0.00000000000E+00 0. -1.
         -2   -1    0    0    0  501 -0.00000000000E+00 -0.00000000000E+00 -0.10891045411E+03  0.10891045411E+03  0.00000000000E+00 0.  1.
         25    2    1    2    0    0 -0.33829868931E+02  0.10401176539E+03  0.93202195842E+02  0.19051751660E+03  0.12508943781E+03 0.  0.
          5    1    3    3  502    0  0.44559238970E+02  0.25344101677E+02  0.48614158826E+02  0.70771873691E+02  0.41800000000E+01 0. -1.
         -5    1    3    3    0  502 -0.78389107901E+02  0.78667663715E+02  0.44588037017E+02  0.11974564291E+03  0.41800000000E+01 0. -1.
        -11    1    1    2    0    0  0.45372658340E+02 -0.37975103691E+02  0.45224012890E+02  0.74471457398E+02  0.00000000000E+00 0. -1.
         11    1    1    2    0    0 -0.11542789409E+02 -0.66036661701E+02 -0.21006191086E+02  0.70251951858E+02  0.00000000000E+00 0.  1.
</event>
<event>
 7    1  0.2820496E-009  0.1699504E+03  0.7561462E-02  0.1177900E+00
         -1   -1    0    0    0  501 -0.00000000000E+00  0.00000000000E+00  0.33926407656E+03  0.33926407656E+03  0.00000000000E+00 0.  1.
          1   -1    0    0  501    0  0.00000000000E+00 -0.00000000000E+00 -0.10034001625E+03  0.10034001625E+03  0.00000000000E+00 0. -1.
         25    2    1    2    0    0  0.57879021330E+02 -0.13673204430E+03  0.16491651638E+03  0.25473177832E+03  0.12508072779E+03 0.  0.
          5    1    3    3  502    0  0.73392924545E+02 -0.68760601305E+02  0.15408912312E+03  0.18405290524E+03  0.41800000000E+01 0.  1.
         -5    1    3    3    0  502 -0.15513903215E+02 -0.67971442991E+02  0.10827393268E+02  0.70678873082E+02  0.41800000000E+01 0.  1.
        -11    1    1    2    0    0 -0.37925313123E+02  0.75315252569E+01  0.17911150846E+02  0.42612939030E+02  0.00000000000E+00 0.  1.
         11    1    1    2    0    0 -0.19953708207E+02  0.12920051904E+03  0.56096393079E+02  0.14225937546E+03  0.00000000000E+00 0. -1.
</event>
<event>
 7    1  0.2820496E-009  0.8363757E+02  0.7561462E-02  0.1319034E+00
          1   -1    0    0  501    0  0.00000000000E+00  0.00000000000E+00  0.25767362547E+03  0.25767362547E+03  0.00000000000E+00 0. -1.
         -1   -1    0    0    0  501 -0.00000000000E+00 -0.00000000000E+00 -0.70934284200E+02  0.70934284200E+02  0.00000000000E+00 0.  1.
         25    2    1    2    0    0 -0.22637287082E+02  0.12192299768E+02  0.97626212840E+01  0.12807896902E+03  0.12509122508E+03 0.  0.
          5    1    3    3  502    0  0.47279950163E+02  0.26734636312E+02  0.14543167460E+02  0.56383602101E+02  0.41800000000E+01 0.  1.
         -5    1    3    3    0  502 -0.69917237245E+02 -0.14542336544E+02 -0.47805461759E+01  0.71695366920E+02  0.41800000000E+01 0.  1.
        -11    1    1    2    0    0 -0.79160126986E+01 -0.63694650536E+01 -0.80147181863E+01  0.12940983337E+02  0.00000000000E+00 0.  1.
         11    1    1    2    0    0  0.30553299780E+02 -0.58228347145E+01  0.18499143817E+03  0.18758795731E+03  0.00000000000E+00 0. -1.
</event>
<event>
 7    1  0.2820496E-009  0.1504459E+03  0.7561462E-02  0.1199926E+00
          1   -1    0    0  501    0  0.00000000000E+00  0.00000000000E+00  0.41046148916E+03  0.41046148916E+03  0.00000000000E+00 0. -1.
         -1   -1    0    0    0  501 -0.00000000000E+00 -0.00000000000E+00 -0.77894708900E+02  0.77894708900E+02  0.00000000000E+00 0.  1.
         25    2    1    2    0    0 -0.89904659613E+02 -0.75164278619E+02  0.30450481836E+03  0.34943274490E+03  0.12509013630E+03 0.  0.
          5    1    3    3  502    0  0.18027102331E+02 -0.57000462085E+02  0.13383576906E+03  0.14664076710E+03  0.41800000000E+01 0. -1.
         -5    1    3    3    0  502 -0.10793176194E+03 -0.18163816535E+02  0.17066904930E+03  0.20279197779E+03  0.41800000000E+01 0. -1.
        -11    1    1    2    0    0  0.72131851822E+02  0.22053584216E+02  0.33741223283E+02  0.82630713253E+02  0.00000000000E+00 0. -1.
         11    1    1    2    0    0  0.17772807791E+02  0.53110694403E+02 -0.56792613869E+01  0.56292739911E+02  0.00000000000E+00 0.  1.
</event>
<event>
 7    1  0.2820496E-009  0.1003605E+03  0.7561462E-02  0.1279540E+00
         -2   -1    0    0    0  501 -0.00000000000E+00  0.00000000000E+00  0.18397662043E+03  0.18397662043E+03  0.00000000000E+00 0.  1.
          2   -1    0    0  501    0  0.00000000000E+00 -0.00000000000E+00 -0.88777502959E+02  0.88777502959E+02  0.00000000000E+00 0. -1.
         25    2    1    2    0    0 -0.53730904166E+02 -0.33802268417E+02  0.32794714862E+02  0.14405727970E+03  0.12508958030E+03 0.  0.
          5    1    3    3  502    0 -0.44626348945E+02  0.21502669719E+02 -0.31349999915E+02  0.58772193424E+02  0.41800000000E+01 0. -1.
         -5    1    3    3    0  502 -0.91045552209E+01 -0.55304938135E+02  0.64144714778E+02  0.85285086280E+02  0.41800000000E+01 0. -1.
        -11    1    1    2    0    0  0.57476054934E+01 -0.21111091644E+02  0.50197357757E+02  0.54758450353E+02  0.00000000000E+00 0.  1.
         11    1    1    2    0    0  0.47983298673E+02  0.54913360060E+02  0.12207044854E+02  0.73938393333E+02  0.00000000000E+00 0. -1.
</event>
<event>
 7    1  0.2820496E-009  0.2625177E+03  0.7561462E-02  0.1105640E+00
         -1   -1    0    0    0  501 -0.00000000000E+00  0.00000000000E+00  0.58073566572E+03  0.58073566572E+03  0.00000000000E+00 0.  1.
          1   -1    0    0  501    0  0.00000000000E+00 -0.00000000000E+00 -0.13787627233E+03  0.13787627233E+03  0.00000000000E+00 0. -1.
         25    2    1    2    0    0 -0.17833642527E+03 -0.17892203939E+03  0.14389454280E+03  0.31649604612E+03  0.12508849271E+03 0.  0.
          5    1    3    3  502    0 -0.15564461659E+03 -0.17626843604E+03  0.79855090387E+02  0.24837495058E+03  0.41800000000E+01 0.  1.
         -5    1    3    3    0  502 -0.22691808676E+02 -0.26536033479E+01  0.64039452417E+02  0.68121095540E+02  0.41800000000E+01 0.  1.
        -11    1    1    2    0    0  0.60094921428E+02  0.10759870117E+02  0.91947025836E+02  0.11036951548E+03  0.00000000000E+00 0.  1.
         11    1    1    2    0    0  0.11824150384E+03  0.16816216927E+03  0.20701782476E+03  0.29174637645E+03  0.00000000000E+00 0. -1.
</event>
<event>
 7    1  0.2820496E-009  0.1212303E+03  0.7561462E-02  0.1241081E+00
         -2   -1    0    0    0  501 -0.00000000000E+00  0.00000000000E+00  0.32558701521E+03  0.32558701521E+03  0.00000000000E+00 0. -1.
          2   -1    0    0  501    0  0.00000000000E+00 -0.00000000000E+00 -0.68672239728E+02  0.68672239728E+02  0.00000000000E+00 0.  1.
         25    2    1    2    0    0 -0.31036712119E+02 -0.68190042086E+02  0.24030925643E+03  0.28107042031E+03  0.12505552010E+03 0.  0.
          5    1    3    3  502    0  0.43514882770E+02  0.63582217656E+00  0.61865817170E+02  0.75754874605E+02  0.41800000000E+01 0.  1.
         -5    1    3    3    0  502 -0.74551594889E+02 -0.68825864262E+02  0.17844343926E+03  0.20531554571E+03  0.41800000000E+01 0.  1.
        -11    1    1    2    0    0  0.43702619858E+02  0.21293839059E+02  0.36402720381E+02  0.60733060317E+02  0.00000000000E+00 0. -1.
         11    1    1    2    0    0 -0.12665907740E+02  0.46896203027E+02 -0.19797201337E+02  0.52455774305E+02  0.00000000000E+00 0.  1.
</event>
<event>
 7    1  0.2820496E-009  0.1754274E+03  0.7561462E-02  0.1172303E+00
         -2   -1    0    0    0  501 -0.00000000000E+00  0.00000000000E+00  0.66577359389E+02  0.66577359389E+02  0.00000000000E+00 0.  1.
          2   -1    0    0  501    0  0.00000000000E+00 -0.00000000000E+00 -0.59879078039E+03  0.59879078039E+03  0.00000000000E+00 0. -1.
         25    2    1    2    0    0 -0.12603230939E+03 -0.96807806819E+02 -0.36242400996E+03  0.41503422869E+03  0.12508538491E+03 0.  0.
          5    1    3    3  502    0 -0.97863761647E+02 -0.11099397071E+03 -0.19614152534E+03  0.24573552397E+03  0.41800000000E+01 0.  1.
         -5    1    3    3    0  502 -0.28168547746E+02  0.14186163895E+02 -0.16628248462E+03  0.16929870472E+03  0.41800000000E+01 0.  1.
        -11    1    1    2    0    0  0.54894130664E+00  0.27785528170E+02 -0.71294748076E+02  0.76519788392E+02  0.00000000000E+00 0.  1.
         11    1    1    2    0    0  0.12548336809E+03  0.69022278649E+02 -0.98494662964E+02  0.17381412270E+03  0.00000000000E+00 0. -1.
</event>
<event>
 7    1  0.2820496E-009  0.1106549E+03  0.7561462E-02  0.1259362E+00
         -4   -1    0    0    0  501 -0.00000000000E+00  0.00000000000E+00  0.30723008045E+02  0.30723008045E+02  0.00000000000E+00 0.  1.
          4   -1    0    0  501    0  0.00000000000E+00 -0.00000000000E+00 -0.53846458506E+03  0.53846458506E+03  0.00000000000E+00 0. -1.
         25    2    1    2    0    0 -0.28229393492E+02 -0.45264550264E+02 -0.37755084523E+03  0.40129537080E+03  0.12509019034E+03 0.  0.
          5    1    3    3  502    0 -0.73968587692E+02 -0.29726302753E+02 -0.29449248366E+03  0.30512014088E+03  0.41800000000E+01 0.  1.
         -5    1    3    3    0  502  0.45739194200E+02 -0.15538247510E+02 -0.83058361571E+02  0.96175229912E+02  0.41800000000E+01 0.  1.
        -11    1    1    2    0    0  0.20417499262E+01  0.61923844549E+02 -0.43202412757E+02  0.75532640193E+02  0.00000000000E+00 0.  1.
         11    1    1    2    0    0  0.26187643566E+02 -0.16659294285E+02 -0.86988319028E+02  0.92359582117E+02  0.00000000000E+00 0. -1.
</event>
<event>
 7    1  0.2820496E-009  0.3889276E+03  0.7561462E-02  0.1047683E+00
          1   -1    0    0  501    0  0.00000000000E+00  0.00000000000E+00  0.62842076077E+03  0.62842076077E+03  0.00000000000E+00 0. -1.
         -1   -1    0    0    0  501 -0.00000000000E+00 -0.00000000000E+00 -0.25444765941E+03  0.25444765941E+03  0.00000000000E+00 0.  1.
         25    2    1    2    0    0 -0.29770303499E+03  0.23986469753E+03  0.14284373017E+03  0.42686532789E+03  0.12508999457E+03 0.  0.
          5    1    3    3  502    0 -0.20927875947E+02  0.32722539920E+02 -0.20914209993E+02  0.44312720410E+02  0.41800000000E+01 0. -1.
         -5    1    3    3    0  502 -0.27677515904E+03  0.20714215761E+03  0.16375794016E+03  0.38255260748E+03  0.41800000000E+01 0. -1.
        -11    1    1    2    0    0  0.84245797587E+02 -0.19934389560E+02  0.48573053457E+02  0.99267697770E+02  0.00000000000E+00 0. -1.
         11    1    1    2    0    0  0.21345723740E+03 -0.21993030797E+03  0.18255631773E+03  0.35673539452E+03  0.00000000000E+00 0.  1.
</event>
<event>
 7    1  0.2820496E-009  0.8058740E+02  0.7561462E-02  0.1327393E+00
         -2   -1    0    0    0  501 -0.00000000000E+00  0.00000000000E+00  0.39442845838E+03  0.39442845838E+03  0.00000000000E+00 0.  1.
          2   -1    0    0  501    0  0.00000000000E+00 -0.00000000000E+00 -0.37354828947E+02  0.37354828947E+02  0.00000000000E+00 0. -1.
         25    2    1    2    0    0 -0.32044471303E+02  0.44747861761E+02  0.20440079782E+03  0.24587836079E+03  0.12508901984E+03 0.  0.
          5    1    3    3  502    0 -0.11354966804E+02  0.12862806663E+02 -0.15000024186E+02  0.23170243675E+02  0.41800000000E+01 0.  1.
         -5    1    3    3    0  502 -0.20689504499E+02  0.31885055098E+02  0.21940082200E+03  0.22270811712E+03  0.41800000000E+01 0.  1.
        -11    1    1    2    0    0  0.48581053457E+02 -0.63708471922E+02  0.12531878734E+03  0.14874033283E+03  0.00000000000E+00 0.  1.
         11    1    1    2    0    0 -0.16536582154E+02  0.18960610161E+02  0.27354044277E+02  0.37164593706E+02  0.00000000000E+00 0. -1.
</event>
<event>
 7    1  0.2820496E-009  0.8858135E+02  0.7561462E-02  0.1306324E+00
          2   -1    0    0  501    0  0.00000000000E+00  0.00000000000E+00  0.40440505895E+03  0.40440505895E+03  0.00000000000E+00 0. -1.
         -2   -1    0    0    0  501 -0.00000000000E+00 -0.00000000000E+00 -0.37981463693E+02  0.37981463693E+02  0.00000000000E+00 0.  1.
         25    2    1    2    0    0  0.38355472546E+01  0.61518928743E+01  0.20849941302E+03  0.24325268358E+03  0.12508919070E+03 0.  0.
          5    1    3    3  502    0 -0.16530907526E+02  0.30144699128E+02  0.20864980242E+03  0.21150457735E+03  0.41800000000E+01 0.  1.
         -5    1    3    3    0  502  0.20366454780E+02 -0.23992806254E+02 -0.15038939791E+00  0.31748106231E+02  0.41800000000E+01 0.  1.
        -11    1    1    2    0    0  0.22877162664E+02 -0.52510658800E+02  0.40666365939E+02  0.70245905061E+02  0.00000000000E+00 0.  1.
         11    1    1    2    0    0 -0.26712709918E+02  0.46358765926E+02  0.11725781630E+03  0.12888793400E+03  0.00000000000E+00 0. -1.
</event>
<event>
 7    1  0.2820496E-009  0.1925457E+03  0.7561462E-02  0.1156185E+00
          2   -1    0    0  501    0  0.00000000000E+00  0.00000000000E+00  0.23048256592E+03  0.23048256592E+03  0.00000000000E+00 0. -1.
         -2   -1    0    0    0  501 -0.00000000000E+00 -0.00000000000E+00 -0.17100559227E+03  0.17100559227E+03  0.00000000000E+00 0.  1.
         25    2    1    2    0    0  0.11646735690E+03  0.11406128230E+03  0.62850963514E+02  0.21488070976E+03  0.12509538148E+03 0.  0.
          5    1    3    3  502    0  0.13226337897E+03  0.12619949971E+03  0.65749770895E+02  0.19432040530E+03  0.41800000000E+01 0. -1.
         -5    1    3    3    0  502 -0.15796022069E+02 -0.12138217409E+02 -0.28988073810E+01  0.20560304455E+02  0.41800000000E+01 0. -1.
        -11    1    1    2    0    0 -0.54360136214E+02 -0.10616169128E+03  0.17639827401E+02  0.12056737791E+03  0.00000000000E+00 0.  1.
         11    1    1    2    0    0 -0.62107220685E+02 -0.78995910216E+01 -0.21013817264E+02  0.66040070530E+02  0.00000000000E+00 0. -1.
</event>
<event>
 7    1  0.2820496E-009  0.1448833E+03  0.7561462E-02  0.1206905E+00
         -2   -1    0    0    0  501 -0.00000000000E+00  0.00000000000E+00  0.22989223705E+03  0.22989223705E+03  0.00000000000E+00 0.  1.
          2   -1    0    0  501    0  0.00000000000E+00 -0.00000000000E+00 -0.10728927879E+03  0.10728927879E+03  0.00000000000E+00 0. -1.
         25    2    1    2    0    0  0.10284863048E+03 -0.48122232717E+02  0.56976427792E+02  0.17828601232E+03  0.12508396697E+03 0.  0.
          5    1    3    3  502    0 -0.13544493065E+02  0.26615935171E+02  0.55977731852E+01  0.30670323801E+02  0.41800000000E+01 0.  1.
         -5    1    3    3    0  502  0.11639312355E+03 -0.74738167888E+02  0.51378654607E+02  0.14761568852E+03  0.41800000000E+01 0.  1.
        -11    1    1    2    0    0 -0.26804515078E+01  0.15720421634E+02  0.49977800901E+02  0.52460433277E+02  0.00000000000E+00 0.  1.
         11    1    1    2    0    0 -0.10016817897E+03  0.32401811083E+02  0.15648729569E+02  0.10643507024E+03  0.00000000000E+00 0. -1.
</event>
<event>
 7    1  0.2820496E-009  0.1366469E+03  0.7561462E-02  0.1217913E+00
          1   -1    0    0  501    0  0.00000000000E+00  0.00000000000E+00  0.49411879470E+03  0.49411879470E+03  0.00000000000E+00 0. -1.
         -1   -1    0    0    0  501 -0.00000000000E+00 -0.00000000000E+00 -0.50905147620E+02  0.50905147620E+02  0.00000000000E+00 0.  1.
         25    2    1    2    0    0  0.36845891960E+02 -0.10904041175E+03  0.22918181836E+03  0.28533964124E+03  0.12508786452E+03 0.  0.
          5    1    3    3  502    0  0.40333463602E+02 -0.37580798727E+02  0.11911684539E+02  0.56554976330E+02  0.41800000000E+01 0. -1.
         -5    1    3    3    0  502 -0.34875716427E+01 -0.71459613021E+02  0.21727013382E+03  0.22878466491E+03  0.41800000000E+01 0. -1.
        -11    1    1    2    0    0  0.34677186634E+01  0.10584379873E+03  0.16589580896E+03  0.19681553351E+03  0.00000000000E+00 0. -1.
         11    1    1    2    0    0 -0.40313610623E+02  0.31966130173E+01  0.48136019762E+02  0.62868767562E+02  0.00000000000E+00 0.  1.
</event>
<event>
 7    1  0.2820496E-009  0.1524519E+03  0.7561462E-02  0.1197492E+00
         -3   -1    0    0    0  501 -0.00000000000E+00  0.00000000000E+00  0.10365913322E+03  0.10365913322E+03  0.00000000000E+00 0. -1.
          3   -1    0    0  501    0  0.00000000000E+00 -0.00000000000E+00 -0.23694747079E+03  0.23694747079E+03  0.00000000000E+00 0.  1.
         25    2    1    2    0    0  0.29771277572E+02 -0.10330815325E+03 -0.33520455789E+02  0.16831588669E+03  0.12509082004E+03 0.  0.
          5    1    3    3  502    0  0.76081193096E+02 -0.86172712639E+02 -0.28504253200E+02  0.11850759131E+03  0.41800000000E+01 0.  1.
         -5    1    3    3    0  502 -0.46309915524E+02 -0.17135440616E+02 -0.50162025891E+01  0.49808295387E+02  0.41800000000E+01 0.  1.
        -11    1    1    2    0    0  0.31065459284E+02  0.52748900117E+02 -0.47417944864E+02  0.77433653660E+02  0.00000000000E+00 0.  1.
         11    1    1    2    0    0 -0.60836736856E+02  0.50559253138E+02 -0.52349936921E+02  0.94857063653E+02  0.00000000000E+00 0. -1.
</event>
<event>
 7    1  0.2820496E-009  0.1022100E+03  0.7561462E-02  0.1275716E+00
          1   -1    0    0  501    0  0.00000000000E+00  0.00000000000E+00  0.20210292720E+03  0.20210292720E+03  0.00000000000E+00 0. -1.
         -1   -1    0    0    0  501 -0.00000000000E+00 -0.00000000000E+00 -0.69252300891E+02  0.69252300891E+02  0.00000000000E+00 0.  1.
         25    2    1    2    0    0  0.20062788506E+02 -0.40100578927E+02  0.57349623822E+02  0.14473477379E+03  0.12509437828E+03 0.  0.
          5    1    3    3  502    0  0.61910618676E+02 -0.21960208922E+02 -0.65146980150E+01  0.66144456842E+02  0.41800000000E+01 0. -1.
         -5    1    3    3    0  502 -0.41847830169E+02 -0.18140370006E+02  0.63864321837E+02  0.78590316945E+02  0.41800000000E+01 0. -1.
        -11    1    1    2    0    0  0.22588062035E+02 -0.11908165766E+02  0.47167070732E+02  0.53635412927E+02  0.00000000000E+00 0. -1.
         11    1    1    2    0    0 -0.42650850542E+02  0.52008744694E+02  0.28333931758E+02  0.72985041381E+02  0.00000000000E+00 0.  1.
</event>
<event>
 7    1  0.2820496E-009  0.9327204E+02  0.7561462E-02  0.1295116E+00
          2   -1    0    0  501    0  0.00000000000E+00  0.00000000000E+00  0.12463485385E+04  0.12463485385E+04  0.00000000000E+00 0.  1.
         -2   -1    0    0    0  501 -0.00000000000E+00 -0.00000000000E+00 -0.11724035921E+02  0.11724035921E+02  0.00000000000E+00 0. -1.
         25    2    1    2    0    0 -0.19890758757E+02  0.42297106069E+02  0.85574055541E+03  0.86609696386E+03  0.12508942868E+03 0.  0.
          5    1    3    3  502    0 -0.19487232531E+02  0.62658182436E+02  0.83177878051E+03  0.83437354474E+03  0.41800000000E+01 0. -1.
         -5    1    3    3    0  502 -0.40352622542E+00 -0.20361076367E+02  0.23961774906E+02  0.31723419123E+02  0.41800000000E+01 0. -1.
        -11    1    1    2    0    0 -0.16919192136E+02 -0.57678270686E+02  0.24564542935E+03  0.25289270241E+03  0.00000000000E+00 0.  1.
         11    1    1    2    0    0  0.36809950893E+02  0.15381164617E+02  0.13323851785E+03  0.13908290819E+03  0.00000000000E+00 0. -1.
</event>
<event>
 7    1  0.2820496E-009  0.1119696E+03  0.7561462E-02  0.1256965E+00
         -1   -1    0    0    0  501 -0.00000000000E+00  0.00000000000E+00  0.71978600380E+02  0.71978600380E+02  0.00000000000E+00 0.  1.
          1   -1    0    0  501    0  0.00000000000E+00 -0.00000000000E+00 -0.28761257204E+03  0.28761257204E+03  0.00000000000E+00 0. -1.
         25    2    1    2    0    0 -0.15074378847E+02  0.68682430389E+02 -0.19383917602E+03  0.24117538710E+03  0.12508967999E+03 0.  0.
          5    1    3    3  502    0 -0.60574743812E+02  0.25506638588E+02 -0.15201833980E+03  0.16567116899E+03  0.41800000000E+01 0. -1.
         -5    1    3    3    0  502  0.45500364965E+02  0.43175791802E+02 -0.41820836225E+02  0.75504218109E+02  0.41800000000E+01 0. -1.
        -11    1    1    2    0    0  0.37170024272E+02 -0.61722414449E+02  0.16261848274E+02  0.73862811070E+02  0.00000000000E+00 0.  1.
         11    1    1    2    0    0 -0.22095645426E+02 -0.69600159400E+01 -0.38056643909E+02  0.44552974248E+02  0.00000000000E+00 0. -1.
</event>
<event>
 7    1  0.2820496E-009  0.2686933E+03  0.7561462E-02  0.1102030E+00
         -2   -1    0    0    0  501 -0.00000000000E+00  0.00000000000E+00  0.22664705221E+03  0.22664705221E+03  0.00000000000E+00 0.  1.
          2   -1    0    0  501    0  0.00000000000E+00 -0.00000000000E+00 -0.52111866437E+03  0.52111866437E+03  0.00000000000E+00 0. -1.
         25    2    1    2    0    0 -0.24601446773E+03 -0.14545044028E+02 -0.38126799460E+03  0.47089976900E+03  0.12508649848E+03 0.  0.
          5    1    3    3  502    0 -0.17059097905E+02  0.37189716896E+02 -0.47420571005E+02  0.62771576519E+02  0.41800000000E+01 0.  1.
         -5    1    3    3    0  502 -0.22895536983E+03 -0.51734760925E+02 -0.33384742359E+03  0.40812819248E+03  0.41800000000E+01 0.  1.
        -11    1    1    2    0    0  0.17086482233E+03 -0.30949741094E+02  0.43922243835E+02  0.17911403487E+03  0.00000000000E+00 0. -1.
         11    1    1    2    0    0  0.75149645405E+02  0.45494785122E+02  0.42874138606E+02  0.97751912713E+02  0.00000000000E+00 0.  1.
</event>
<event>
 7    1  0.2820496E-009  0.1865733E+03  0.7561462E-02  0.1161589E+00
         -1   -1    0    0    0  501 -0.00000000000E+00  0.00000000000E+00  0.87059553315E+02  0.87059553315E+02  0.00000000000E+00 0.  1.
          1   -1    0    0  501    0  0.00000000000E+00 -0.00000000000E+00 -0.58996525824E+03  0.58996525824E+03  0.00000000000E+00 0. -1.
         25    2    1    2    0    0 -0.10112762672E+03 -0.13688551545E+03 -0.10708288214E+03  0.23680857452E+03  0.12508843308E+03 0.  0.
          5    1    3    3  502    0  0.92318408413E+01 -0.69134164772E+02 -0.76649786021E+02  0.10371799131E+03  0.41800000000E+01 0. -1.
         -5    1    3    3    0  502 -0.11035946756E+03 -0.67751350681E+02 -0.30433096124E+02  0.13309058321E+03  0.41800000000E+01 0. -1.
        -11    1    1    2    0    0  0.32007274404E+02  0.72483158749E+02 -0.88917115745E+02  0.11909881355E+03  0.00000000000E+00 0.  1.
         11    1    1    2    0    0  0.69120352319E+02  0.64402356704E+02 -0.30690570704E+03  0.32111742349E+03  0.00000000000E+00 0. -1.
</event>
<event>
 7    1  0.2820496E-009  0.1256566E+03  0.7561462E-02  0.1234047E+00
         -1   -1    0    0    0  501 -0.00000000000E+00  0.00000000000E+00  0.13496521806E+02  0.13496521806E+02  0.00000000000E+00 0.  1.
          1   -1    0    0  501    0  0.00000000000E+00 -0.00000000000E+00 -0.13032670215E+04  0.13032670215E+04  0.00000000000E+00 0. -1.
         25    2    1    2    0    0 -0.11496694180E+02  0.82849790074E+02 -0.80681865712E+03  0.82073162798E+03  0.12509115876E+03 0.  0.
          5    1    3    3  502    0 -0.61280936815E+02  0.36105631903E+02 -0.25773584666E+03  0.26740270927E+03  0.41800000000E+01 0. -1.
         -5    1    3    3    0  502  0.49784242635E+02  0.46744158171E+02 -0.54908281046E+03  0.55332891871E+03  0.41800000000E+01 0. -1.
        -11    1    1    2    0    0 -0.30174972473E+02 -0.19873877953E+02 -0.19645832193E+03  0.19975327843E+03  0.00000000000E+00 0. -1.
         11    1    1    2    0    0  0.41671666653E+02 -0.62975912120E+02 -0.28649352066E+03  0.29627863691E+03  0.00000000000E+00 0.  1.
</event>
<event>
 7    1  0.2820496E-009  0.1923151E+03  0.7561462E-02  0.1156390E+00
          2   -1    0    0  501    0  0.00000000000E+00  0.00000000000E+00  0.76116193413E+03  0.76116193413E+03  0.00000000000E+00 0.  1.
         -2   -1    0    0    0  501 -0.00000000000E+00 -0.00000000000E+00 -0.56488102199E+02  0.56488102199E+02  0.00000000000E+00 0. -1.
         25    2    1    2    0    0  0.10250441707E+03 -0.14404737660E+03  0.37932803242E+03  0.43679881660E+03  0.12508656116E+03 0.  0.
          5    1    3    3  502    0  0.19509118877E+02 -0.10223631386E+03  0.10836032345E+03  0.15030735741E+03  0.41800000000E+01 0.  1.
         -5    1    3    3    0  502  0.82995298196E+02 -0.41811062733E+02  0.27096770897E+03  0.28649145920E+03  0.41800000000E+01 0.  1.
        -11    1    1    2    0    0 -0.58953600913E+02  0.12818076172E+03  0.29020966822E+03  0.32268790846E+03  0.00000000000E+00 0.  1.
         11    1    1    2    0    0 -0.43550816159E+02  0.15866614880E+02  0.35136131287E+02  0.58163311269E+02  0.00000000000E+00 0. -1.
</event>
<event>
 7    1  0.2820496E-009  0.1078442E+03  0.7561462E-02  0.1264615E+00
          2   -1    0    0  501    0  0.00000000000E+00  0.00000000000E+00  0.38046814533E+03  0.38046814533E+03  0.00000000000E+00 0. -1.
         -2   -1    0    0    0  501 -0.00000000000E+00 -0.00000000000E+00 -0.37574476641E+02  0.37574476641E+02  0.00000000000E+00 0.  1.
         25    2    1    2    0    0  0.44929750463E+01 -0.27125768337E+02  0.26364496715E+03  0.29310764144E+03  0.12508967438E+03 0.  0.
          5    1    3    3  502    0  0.99449187852E+01 -0.76213189087E+02  0.13757964423E+03  0.15764828736E+03  0.41800000000E+01 0. -1.
         -5    1    3    3    0  502 -0.54519437389E+01  0.49087420750E+02  0.12606532292E+03  0.13545935408E+03  0.41800000000E+01 0. -1.
        -11    1    1    2    0    0 -0.39985889973E+02 -0.61996383468E+01  0.12565116546E+02  0.42369671540E+02  0.00000000000E+00 0.  1.
         11    1    1    2    0    0  0.35492914927E+02  0.33325406683E+02  0.66683584997E+02  0.82565308990E+02  0.00000000000E+00 0. -1.
</event>
<event>
 7    1  0.2820496E-009  0.1248245E+03  0.7561462E-02  0.1235344E+00
         -2   -1    0    0    0  501 -0.00000000000E+00  0.00000000000E+00  0.94963400088E+02  0.94963400088E+02  0.00000000000E+00 0.  1.
          2   -1    0    0  501    0  0.00000000000E+00 -0.00000000000E+00 -0.31921527389E+03  0.31921527389E+03  0.00000000000E+00 0. -1.
         25    2    1    2    0    0 -0.29506505650E+02 -0.10122972886E+03 -0.20963997706E+03  0.26592162740E+03  0.12508916842E+03 0.  0.
          5    1    3    3  502    0 -0.27512207409E+02 -0.39066849539E+02 -0.19643108849E+03  0.20220233732E+03  0.41800000000E+01 0.  1.
         -5    1    3    3    0  502 -0.19942982410E+01 -0.62162879324E+02 -0.13208888566E+02  0.63719290081E+02  0.41800000000E+01 0.  1.
        -11    1    1    2    0    0 -0.18435534494E+02  0.87583512071E+02 -0.32613763029E+02  0.95259634986E+02  0.00000000000E+00 0. -1.
         11    1    1    2    0    0  0.47942040144E+02  0.13646216791E+02  0.18001866287E+02  0.52997411594E+02  0.00000000000E+00 0.  1.
</event>
<event>
 7    1  0.2820496E-009  0.1104927E+03  0.7561462E-02  0.1259660E+00
          2   -1    0    0  501    0  0.00000000000E+00  0.00000000000E+00  0.17260258313E+03  0.17260258313E+03  0.00000000000E+00 0. -1.
         -2   -1    0    0    0  501 -0.00000000000E+00 -0.00000000000E+00 -0.16073955348E+03  0.16073955348E+03  0.00000000000E+00 0.  1.
         25    2    1    2    0    0  0.42874050344E+02 -0.49683629906E+02 -0.10145800043E+03  0.17392167565E+03  0.12509346960E+03 0.  0.
          5    1    3    3  502    0  0.54473662634E+02 -0.74446533521E+02 -0.29675869614E+02  0.96993793159E+02  0.41800000000E+01 0.  1.
         -5    1    3    3    0  502 -0.11599612290E+02  0.24762903616E+02 -0.71782130812E+02  0.76927882492E+02  0.41800000000E+01 0.  1.
        -11    1    1    2    0    0  0.17807436812E+02  0.33879746648E+02  0.79362724835E+02  0.88110068278E+02  0.00000000000E+00 0.  1.
         11    1    1    2    0    0 -0.60681487156E+02  0.15803883257E+02  0.33958305245E+02  0.71310392683E+02  0.00000000000E+00 0. -1.
</event>
<event>
 7    1  0.2820496E-009  0.1062641E+03  0.7561462E-02  0.1267649E+00
          2   -1    0    0  501    0  0.00000000000E+00  0.00000000000E+00  0.25098672790E+03  0.25098672790E+03  0.00000000000E+00 0. -1.
         -2   -1    0    0    0  501 -0.00000000000E+00 -0.00000000000E+00 -0.45929938908E+02  0.45929938908E+02  0.00000000000E+00 0.  1.
         25    2    1    2    0    0  0.52510375997E+01 -0.25870968123E+01  0.11803276370E+03  0.17208775386E+03  0.12509274662E+03 0.  0.
          5    1    3    3  502    0  0.49253629657E+02  0.39796339337E+02  0.52136320252E+02  0.82130000295E+02  0.41800000000E+01 0.  1.
         -5    1    3    3    0  502 -0.44002592057E+02 -0.42383436149E+02  0.65896443452E+02  0.89957753569E+02  0.41800000000E+01 0.  1.
        -11    1    1    2    0    0 -0.41192667917E+02  0.22296308099E+02  0.34352871143E+02  0.58086840168E+02  0.00000000000E+00 0.  1.
         11    1    1    2    0    0  0.35941630318E+02 -0.19709211287E+02  0.52671154140E+02  0.66742072772E+02  0.00000000000E+00 0. -1.
</event>
<event>
 7    1  0.2820496E-009  0.9683896E+02  0.7561462E-02  0.1287087E+00
         -2   -1    0    0    0  501 -0.00000000000E+00  0.00000000000E+00  0.56588460775E+02  0.56588460775E+02  0.00000000000E+00 0. -1.
          2   -1    0    0  501    0  0.00000000000E+00 -0.00000000000E+00 -0.27745964638E+03  0.27745964638E+03  0.00000000000E+00 0.  1.
         25    2    1    2    0    0 -0.55957218933E+02 -0.12121916262E+02 -0.14826950359E+03  0.20226790990E+03  0.12510120093E+03 0.  0.
          5    1    3    3  502    0 -0.48223291691E+02  0.22951146720E+02 -0.15630301217E+03  0.16522816047E+03  0.41800000000E+01 0.  1.
         -5    1    3    3    0  502 -0.77339272427E+01 -0.35073062982E+02  0.80335085856E+01  0.37039749428E+02  0.41800000000E+01 0.  1.
        -11    1    1    2    0    0  0.76367829373E+02  0.24351219828E+02 -0.35411781609E+02  0.87630026515E+02  0.00000000000E+00 0. -1.
         11    1    1    2    0    0 -0.20410610440E+02 -0.12229303566E+02 -0.37189900403E+02  0.44150170738E+02  0.00000000000E+00 0.  1.
</event>
<event>
 7    1  0.2820496E-009  0.1331136E+03  0.7561462E-02  0.1222907E+00
         -2   -1    0    0    0  501 -0.00000000000E+00  0.00000000000E+00  0.72660685572E+02  0.72660685572E+02  0.00000000000E+00 0.  1.
          2   -1    0    0  501    0  0.00000000000E+00 -0.00000000000E+00 -0.32950319709E+03  0.32950319709E+03  0.00000000000E+00 0. -1.
         25    2    1    2    0    0  0.85623000166E+02  0.44794544098E+01 -0.48394661022E+02  0.15918703032E+03  0.12508838370E+03 0.  0.
          5    1    3    3  502    0  0.24153056506E+01  0.49388155161E+02 -0.40789997415E+02  0.64236437173E+02  0.41800000000E+01 0. -1.
         -5    1    3    3    0  502  0.83207694515E+02 -0.44908700751E+02 -0.76046636061E+01  0.94950593143E+02  0.41800000000E+01 0. -1.
        -11    1    1    2    0    0  0.10062919991E+02 -0.22447489490E+02 -0.66013025048E+02  0.70447651622E+02  0.00000000000E+00 0.  1.
         11    1    1    2    0    0 -0.95685920157E+02  0.17968035080E+02 -0.14243482545E+03  0.17252920072E+03  0.00000000000E+00 0. -1.
</event>
<event>
 7    1  0.2820496E-009  0.1227566E+03  0.7561462E-02  0.1238618E+00
          2   -1    0    0  501    0  0.00000000000E+00  0.00000000000E+00  0.86538185624E+03  0.86538185624E+03  0.00000000000E+00 0. -1.
         -2   -1    0    0    0  501 -0.00000000000E+00 -0.00000000000E+00 -0.27258225227E+02  0.27258225227E+02  0.00000000000E+00 0.  1.
         25    2    1    2    0    0 -0.90461450711E+00 -0.10456802486E+03  0.53492643848E+03  0.55922060309E+03  0.12508436426E+03 0.  0.
          5    1    3    3  502    0 -0.17230309937E+02  0.43853156275E+01  0.64547275749E+01  0.19371383062E+02  0.41800000000E+01 0. -1.
         -5    1    3    3    0  502  0.16325695430E+02 -0.10895334049E+03  0.52847171091E+03  0.53984922003E+03  0.41800000000E+01 0. -1.
        -11    1    1    2    0    0  0.26676152452E+02  0.51026636966E+02  0.23943833669E+03  0.24626419119E+03  0.00000000000E+00 0. -1.
         11    1    1    2    0    0 -0.25771537945E+02  0.53541387893E+02  0.63758855847E+02  0.87155287186E+02  0.00000000000E+00 0.  1.
</event>
<event>
 7    1  0.2820496E-009  0.1535432E+03  0.7561462E-02  0.1196185E+00
          2   -1    0    0  501    0  0.00000000000E+00  0.00000000000E+00  0.10194799239E+04  0.10194799239E+04  0.00000000000E+00 0. -1.
         -2   -1    0    0    0  501 -0.00000000000E+00 -0.00000000000E+00 -0.42423077290E+02  0.42423077290E+02  0.00000000000E+00 0.  1.
         25    2    1    2    0    0  0.36139765379E+02  0.12892908289E+03  0.81010050833E+03  0.83056614086E+03  0.12509392345E+03 0.  0.
          5    1    3    3  502    0  0.56004757683E+02  0.97310185104E+02  0.75827026518E+03  0.76654880632E+03  0.41800000000E+01 0. -1.
         -5    1    3    3    0  502 -0.19864992304E+02  0.31618897790E+02  0.51830243145E+02  0.64017334536E+02  0.41800000000E+01 0. -1.
        -11    1    1    2    0    0 -0.59443995166E+02 -0.60271152662E+02  0.67569976680E+02  0.10831390563E+03  0.00000000000E+00 0.  1.
         11    1    1    2    0    0  0.23304229787E+02 -0.68657930232E+02  0.99386361561E+02  0.12302295466E+03  0.00000000000E+00 0. -1.
</event>
<event>
 7    1  0.2820496E-009  0.1507940E+03  0.7561462E-02  0.1199501E+00
         -1   -1    0    0    0  501 -0.00000000000E+00  0.00000000000E+00  0.24416742021E+02  0.24416742021E+02  0.00000000000E+00 0.  1.
          1   -1    0    0  501    0  0.00000000000E+00 -0.00000000000E+00 -0.95557328544E+03  0.95557328544E+03  0.00000000000E+00 0. -1.
         25    2    1    2    0    0 -0.35226205131E+02 -0.98156446728E+02 -0.43103477181E+03  0.46077374082E+03  0.12508354071E+03 0.  0.
          5    1    3    3  502    0  0.46697981364E+02 -0.33392779115E+02 -0.17521829620E+03  0.18443075363E+03  0.41800000000E+01 0. -1.
         -5    1    3    3    0  502 -0.81924186495E+02 -0.64763667613E+02 -0.25581647561E+03  0.27634298719E+03  0.41800000000E+01 0. -1.
        -11    1    1    2    0    0  0.36531995992E+02 -0.45350343910E+01 -0.13252148271E+03  0.13753943670E+03  0.00000000000E+00 0.  1.
         11    1    1    2    0    0 -0.13057908600E+01  0.10269148112E+03 -0.36760028890E+03  0.38167684994E+03  0.00000000000E+00 0. -1.
</event>
<event>
 7    1  0.2820496E-009  0.9879459E+02  0.7561462E-02  0.1282851E+00
         -2   -1    0    0    0  501 -0.00000000000E+00  0.00000000000E+00  0.14337614263E+02  0.14337614263E+02  0.00000000000E+00 0.  1.
          2   -1    0    0  501    0  0.00000000000E+00 -0.00000000000E+00 -0.12289856910E+04  0.12289856910E+04  0.00000000000E+00 0. -1.
         25    2    1    2    0    0 -0.69608367917E+02  0.23561140280E+02 -0.79686521266E+03  0.80996467209E+03  0.12509256842E+03 0.  0.
          5    1    3    3  502    0 -0.38570783702E+02  0.31689936574E+02 -0.75684542435E+03  0.75850143454E+03  0.41800000000E+01 0.  1.
         -5    1    3    3    0  502 -0.31037584215E+02 -0.81287962941E+01 -0.40019788306E+02  0.51463237550E+02  0.41800000000E+01 0.  1.
        -11    1    1    2    0    0  0.82678539546E+02  0.59206970222E+01 -0.30023818580E+03  0.31147032566E+03  0.00000000000E+00 0.  1.
         11    1    1    2    0    0 -0.13070171629E+02 -0.29481837302E+02 -0.11754467831E+03  0.12188830754E+03  0.00000000000E+00 0. -1.
</event>
<event>
 7    1  0.2820496E-009  0.1142226E+03  0.7561462E-02  0.1252944E+00
         -1   -1    0    0    0  501 -0.00000000000E+00  0.00000000000E+00  0.11057788075E+03  0.11057788075E+03  0.00000000000E+00 0.  1.
          1   -1    0    0  501    0  0.00000000000E+00 -0.00000000000E+00 -0.20448744625E+03  0.20448744625E+03  0.00000000000E+00 0. -1.
         25    2    1    2    0    0  0.33005288449E+01  0.99074424231E+02 -0.80603637073E+02  0.17880596109E+03  0.12509192773E+03 0.  0.
          5    1    3    3  502    0  0.19374919768E+02  0.79275949824E+02  0.12064419985E+02  0.82601975558E+02  0.41800000000E+01 0. -1.
         -5    1    3    3    0  502 -0.16074390923E+02  0.19798474406E+02 -0.92668057058E+02  0.96203985527E+02  0.41800000000E+01 0. -1.
        -11    1    1    2    0    0 -0.26242279851E+02 -0.93724733409E+02  0.16024935062E+02  0.98639654541E+02  0.00000000000E+00 0.  1.
         11    1    1    2    0    0  0.22941751006E+02 -0.53496908219E+01 -0.29330863490E+02  0.37619711379E+02  0.00000000000E+00 0. -1.
</event>
<event>
 7    1  0.2820496E-009  0.1456670E+03  0.7561462E-02  0.1205901E+00
         -2   -1    0    0    0  501 -0.00000000000E+00  0.00000000000E+00  0.96315215652E+02  0.96315215652E+02  0.00000000000E+00 0.  1.
          2   -1    0    0  501    0  0.00000000000E+00 -0.00000000000E+00 -0.22918058248E+03  0.22918058248E+03  0.00000000000E+00 0. -1.
         25    2    1    2    0    0 -0.96904093726E+02  0.22617121611E+02 -0.85619716824E+02  0.18132886298E+03  0.12508989995E+03 0.  0.
          5    1    3    3  502    0 -0.11829024604E+03  0.44860125079E+02 -0.79847892077E+02  0.14966018642E+03  0.41800000000E+01 0.  1.
         -5    1    3    3    0  502  0.21386152316E+02 -0.22243003468E+02 -0.57718247463E+01  0.31668676560E+02  0.41800000000E+01 0.  1.
        -11    1    1    2    0    0  0.32743026760E+02  0.34608079636E+02 -0.30525884497E+02  0.56583165357E+02  0.00000000000E+00 0. -1.
         11    1    1    2    0    0  0.64161066966E+02 -0.57225201248E+02 -0.16719765503E+02  0.87583769790E+02  0.00000000000E+00 0.  1.
</event>
<event>
 7    1  0.2820496E-009  0.1504049E+03  0.7561462E-02  0.1199976E+00
          1   -1    0    0  501    0  0.00000000000E+00  0.00000000000E+00  0.67056401433E+03  0.67056401433E+03  0.00000000000E+00 0. -1.
         -1   -1    0    0    0  501 -0.00000000000E+00 -0.00000000000E+00 -0.53363647744E+02  0.53363647744E+02  0.00000000000E+00 0.  1.
         25    2    1    2    0    0 -0.22681615210E+02 -0.12627688319E+03  0.49383810910E+03  0.52534261177E+03  0.12509386418E+03 0.  0.
          5    1    3    3  502    0  0.31131301111E+02 -0.46730615656E+02  0.33485786761E+03  0.33955879057E+03  0.41800000000E+01 0. -1.
         -5    1    3    3    0  502 -0.53812916321E+02 -0.79546267530E+02  0.15898024148E+03  0.18578382121E+03  0.41800000000E+01 0. -1.
        -11    1    1    2    0    0  0.39778319419E+02  0.12506025580E+03  0.12516281174E+03  0.18135079741E+03  0.00000000000E+00 0. -1.
         11    1    1    2    0    0 -0.17096704210E+02  0.12166273894E+01 -0.18005542576E+01  0.17234252890E+02  0.00000000000E+00 0.  1.
</event>
<event>
 7    1  0.2820496E-009  0.1029006E+03  0.7561462E-02  0.1274312E+00
          1   -1    0    0  501    0  0.00000000000E+00  0.00000000000E+00  0.28579518993E+03  0.28579518993E+03  0.00000000000E+00 0. -1.
         -1   -1    0    0    0  501 -0.00000000000E+00 -0.00000000000E+00 -0.48741606139E+02  0.48741606139E+02  0.00000000000E+00 0.  1.
         25    2    1    2    0    0  0.32602146096E+01  0.20971873789E+02  0.82572993255E+02  0.15138089242E+03  0.12508967537E+03 0.  0.
          5    1    3    3  502    0 -0.50084263417E+02 -0.14639756536E+02  0.80399182430E+01  0.52961010175E+02  0.41800000000E+01 0. -1.
         -5    1    3    3    0  502  0.53344478026E+02  0.35611630324E+02  0.74533075012E+02  0.98419882244E+02  0.41800000000E+01 0. -1.
        -11    1    1    2    0    0 -0.22869723833E+02 -0.49519327390E+02  0.53507905645E+02  0.76408664561E+02  0.00000000000E+00 0.  1.
         11    1    1    2    0    0  0.19609509223E+02  0.28547453602E+02  0.10097268489E+03  0.10674723909E+03  0.00000000000E+00 0. -1.
</event>
<event>
 7    1  0.2820496E-009  0.1441558E+03  0.7561462E-02  0.1207844E+00
         -2   -1    0    0    0  501 -0.00000000000E+00  0.00000000000E+00  0.50399204218E+02  0.50399204218E+02  0.00000000000E+00 0.  1.
          2   -1    0    0  501    0  0.00000000000E+00 -0.00000000000E+00 -0.51351099027E+03  0.51351099027E+03  0.00000000000E+00 0. -1.
         25    2    1    2    0    0 -0.29131326993E+02 -0.91033917852E+02 -0.12894026825E+03  0.20349299902E+03  0.12509196402E+03 0.  0.
          5    1    3    3  502    0  0.62449582155E+01 -0.11247088538E+03 -0.75012143144E+02  0.13539938545E+03  0.41800000000E+01 0.  1.
         -5    1    3    3    0  502 -0.35376285208E+02  0.21436967524E+02 -0.53928125107E+02  0.68093613572E+02  0.41800000000E+01 0.  1.
        -11    1    1    2    0    0  0.15919406863E+02  0.10986432982E+03 -0.29181940755E+03  0.31222133993E+03  0.00000000000E+00 0. -1.
         11    1    1    2    0    0  0.13211920130E+02 -0.18830411973E+02 -0.42352110244E+02  0.48195855534E+02  0.00000000000E+00 0.  1.
</event>
<event>
 7    1  0.3386158E-009  0.1678806E+03  0.7561462E-02  0.1180076E+00
         -2   -1    0    0    0  501 -0.00000000000E+00  0.00000000000E+00  0.64434995236E+02  0.64434995236E+02  0.00000000000E+00 0.  1.
          2   -1    0    0  501    0  0.00000000000E+00 -0.00000000000E+00 -0.54810388792E+03  0.54810388792E+03  0.00000000000E+00 0. -1.
         25    2    1    2    0    0  0.14839947827E+03  0.34133533609E+02 -0.22977740129E+03  0.30270909593E+03  0.12509052462E+03 0.  0.
          5    1    3    3  502    0 -0.12528715287E+02 -0.98589058375E+01  0.25270114418E+01  0.16674079222E+02  0.41800000000E+01 0. -1.
         -5    1    3    3    0  502  0.16092819356E+03  0.43992439447E+02 -0.23230441273E+03  0.28603501671E+03  0.41800000000E+01 0. -1.
        -11    1    1    2    0    0 -0.82544881502E+02 -0.15899798878E+02 -0.57385382319E+02  0.10178184106E+03  0.00000000000E+00 0.  1.
         11    1    1    2    0    0 -0.65854596766E+02 -0.18233734731E+02 -0.19650610907E+03  0.20804794616E+03  0.00000000000E+00 0. -1.
</event>
<event>
 7    1  0.2820496E-009  0.1126779E+03  0.7561462E-02  0.1255690E+00
          2   -1    0    0  501    0  0.00000000000E+00  0.00000000000E+00  0.10405795186E+03  0.10405795186E+03  0.00000000000E+00 0. -1.
         -2   -1    0    0    0  501 -0.00000000000E+00 -0.00000000000E+00 -0.16287813887E+03  0.16287813887E+03  0.00000000000E+00 0.  1.
         25    2    1    2    0    0  0.27113527629E+02  0.23411776007E+02 -0.97881302774E+02  0.16282283390E+03  0.12508905296E+03 0.  0.
          5    1    3    3  502    0 -0.27813952454E+02  0.58196155259E+02 -0.54554509005E+02  0.84581766894E+02  0.41800000000E+01 0. -1.
         -5    1    3    3    0  502  0.54927480083E+02 -0.34784379252E+02 -0.43326793769E+02  0.78241067008E+02  0.41800000000E+01 0. -1.
        -11    1    1    2    0    0  0.32682634929E+02 -0.11126910381E+02  0.21177850513E+02  0.40502643283E+02  0.00000000000E+00 0. -1.
         11    1    1    2    0    0 -0.59796162558E+02 -0.12284865626E+02  0.17883265247E+02  0.63610613548E+02  0.00000000000E+00 0.  1.
</event>
<event>
 7    1  0.2820496E-009  0.1118497E+03  0.7561462E-02  0.1257182E+00
          3   -1    0    0  501    0  0.00000000000E+00  0.00000000000E+00  0.13913343831E+03  0.13913343831E+03  0.00000000000E+00 0. -1.
         -3   -1    0    0    0  501 -0.00000000000E+00 -0.00000000000E+00 -0.12425210750E+03  0.12425210750E+03  0.00000000000E+00 0.  1.
         25    2    1    2    0    0  0.51591969106E+02 -0.20936882363E+02 -0.40360440735E+02  0.14274609664E+03  0.12508956236E+03 0.  0.
          5    1    3    3  502    0 -0.26536479255E+02 -0.27494010897E+02 -0.50623724721E+02  0.63563663134E+02  0.41800000000E+01 0.  1.
         -5    1    3    3    0  502  0.78128448361E+02  0.65571285345E+01  0.10263283986E+02  0.79182433507E+02  0.41800000000E+01 0.  1.
        -11    1    1    2    0    0 -0.73431996934E+02 -0.40695183695E+01  0.43367501475E+02  0.85378916236E+02  0.00000000000E+00 0. -1.
         11    1    1    2    0    0  0.21840027828E+02  0.25006400732E+02  0.11874270068E+02  0.35260532933E+02  0.00000000000E+00 0.  1.
</event>
<event>
 7    1  0.2820496E-009  0.1081130E+03  0.7561462E-02  0.1264105E+00
         -1   -1    0    0    0  501 -0.00000000000E+00  0.00000000000E+00  0.15114364573E+02  0.15114364573E+02  0.00000000000E+00 0.  1.
          1   -1    0    0  501    0  0.00000000000E+00 -0.00000000000E+00 -0.86515214477E+03  0.86515214477E+03  0.00000000000E+00 0. -1.
         25    2    1    2    0    0  0.25541997631E+02 -0.28068243348E+02 -0.49694499765E+03  0.51384962240E+03  0.12508750468E+03 0.  0.
          5    1    3    3  502    0 -0.39587951549E+02 -0.37645706997E+02 -0.32688459327E+03  0.33144443710E+03  0.41800000000E+01 0.  1.
         -5    1    3    3    0  502  0.65129949180E+02  0.95774636485E+01 -0.17006040437E+03  0.18240518530E+03  0.41800000000E+01 0.  1.
        -11    1    1    2    0    0 -0.40759029412E+02 -0.19750424524E+02 -0.20853400982E+03  0.21339590202E+03  0.00000000000E+00 0. -1.
         11    1    1    2    0    0  0.15217031781E+02  0.47818667872E+02 -0.14455877274E+03  0.15302098493E+03  0.00000000000E+00 0.  1.
</event>
<event>
 7    1  0.2820496E-009  0.8396272E+02  0.7561462E-02  0.1318168E+00
         -1   -1    0    0    0  501 -0.00000000000E+00  0.00000000000E+00  0.36533588026E+02  0.36533588026E+02  0.00000000000E+00 0. -1.
          1   -1    0    0  501    0  0.00000000000E+00 -0.00000000000E+00 -0.52278655385E+03  0.52278655385E+03  0.00000000000E+00 0.  1.
         25    2    1    2    0    0  0.43072151422E+02 -0.31890420794E+02 -0.41454307945E+03  0.43631020667E+03  0.12509365517E+03 0.  0.
          5    1    3    3  502    0  0.40859996519E+02  0.30367798528E+02 -0.31274871533E+03  0.31689268506E+03  0.41800000000E+01 0. -1.
         -5    1    3    3    0  502  0.22121549027E+01 -0.62258219322E+02 -0.10179436412E+03  0.11941752161E+03  0.41800000000E+01 0. -1.
        -11    1    1    2    0    0 -0.35934421322E+02  0.21741154749E+02 -0.90913814563E+02  0.10014630360E+03  0.00000000000E+00 0.  1.
         11    1    1    2    0    0 -0.71377300996E+01  0.10149266045E+02  0.19203928189E+02  0.22863631604E+02  0.00000000000E+00 0. -1.
</event>
<event>
 7    1  0.2820496E-009  0.8449584E+02  0.7561462E-02  0.1316756E+00
         -2   -1    0    0    0  501 -0.00000000000E+00  0.00000000000E+00  0.24238412563E+02  0.24238412563E+02  0.00000000000E+00 0.  1.
          2   -1    0    0  501    0  0.00000000000E+00 -0.00000000000E+00 -0.63917891300E+03  0.63917891300E+03  0.00000000000E+00 0. -1.
         25    2    1    2    0    0  0.15362944463E+02 -0.56972180223E+02 -0.37101126793E+03  0.39595207161E+03  0.12508730031E+03 0.  0.
          5    1    3    3  502    0 -0.18960137871E+02 -0.25810463273E+01 -0.20609432303E+00  0.19587330168E+02  0.41800000000E+01 0. -1.
         -5    1    3    3    0  502  0.34323082334E+02 -0.54391133896E+02 -0.37080517361E+03  0.37636474145E+03  0.41800000000E+01 0. -1.
        -11    1    1    2    0    0 -0.31495378869E+02  0.67578861985E+01 -0.21166896352E+02  0.38544330545E+02  0.00000000000E+00 0.  1.
         11    1    1    2    0    0  0.16132434406E+02  0.50214294025E+02 -0.22276233615E+03  0.22892092340E+03  0.00000000000E+00 0. -1.
</event>
<event>
 7    1  0.2820496E-009  0.8646270E+02  0.7561462E-02  0.1311651E+00
          1   -1    0    0  501    0  0.00000000000E+00  0.00000000000E+00  0.36927180832E+03  0.36927180832E+03  0.00000000000E+00 0. -1.
         -1   -1    0    0    0  501 -0.00000000000E+00 -0.00000000000E+00 -0.83123333940E+02  0.83123333940E+02  0.00000000000E+00 0.  1.
         25    2    1    2    0    0 -0.29184862707E+01  0.39443828524E+02  0.32062963477E+03  0.34643247142E+03  0.12509101243E+03 0.  0.
          5    1    3    3  502    0 -0.37895844389E+02  0.20872849077E+01  0.27531535450E+03  0.27795047869E+03  0.41800000000E+01 0.  1.
         -5    1    3    3    0  502  0.34977358118E+02  0.37356543616E+02  0.45314280264E+02  0.68481992726E+02  0.41800000000E+01 0.  1.
        -11    1    1    2    0    0 -0.25445264366E+02  0.92250673018E+01  0.15035939645E+02  0.30961957729E+02  0.00000000000E+00 0. -1.
         11    1    1    2    0    0  0.28363750636E+02 -0.48668895825E+02 -0.49517100036E+02  0.75000713110E+02  0.00000000000E+00 0.  1.
</event>
<event>
 7    1  0.2820496E-009  0.1062049E+03  0.7561462E-02  0.1267764E+00
          2   -1    0    0  501    0  0.00000000000E+00  0.00000000000E+00  0.12772343953E+03  0.12772343953E+03  0.00000000000E+00 0. -1.
         -2   -1    0    0    0  501 -0.00000000000E+00 -0.00000000000E+00 -0.10546183108E+03  0.10546183108E+03  0.00000000000E+00 0.  1.
         25    2    1    2    0    0  0.37555329438E+02 -0.11989880279E+02  0.63127096506E+00  0.13115663063E+03  0.12508998064E+03 0.  0.
          5    1    3    3  502    0  0.32295612787E+02  0.44884653056E+02  0.33831585318E+02  0.64959119840E+02  0.41800000000E+01 0. -1.
         -5    1    3    3    0  502  0.52597166508E+01 -0.56874533335E+02 -0.33200314353E+02  0.66197510788E+02  0.41800000000E+01 0. -1.
        -11    1    1    2    0    0 -0.56462185725E+02  0.37612477202E+02  0.15746317236E+02  0.69646416739E+02  0.00000000000E+00 0. -1.
         11    1    1    2    0    0  0.18906856286E+02 -0.25622596923E+02  0.58840202445E+01  0.32382223240E+02  0.00000000000E+00 0.  1.
</event>
<event>
 7    1  0.2820496E-009  0.8336653E+02  0.7561462E-02  0.1319760E+00
         -2   -1    0    0    0  501 -0.00000000000E+00  0.00000000000E+00  0.21070269977E+02  0.21070269977E+02  0.00000000000E+00 0.  1.
          2   -1    0    0  501    0  0.00000000000E+00 -0.00000000000E+00 -0.57358766121E+03  0.57358766121E+03  0.00000000000E+00 0. -1.
         25    2    1    2    0    0  0.16129938849E+02 -0.49981480017E+01 -0.29169058612E+03  0.31783009644E+03  0.12508963089E+03 0.  0.
          5    1    3    3  502    0  0.19216241649E+02 -0.39930017606E+02 -0.27533670062E+03  0.27891117109E+03  0.41800000000E+01 0.  1.
         -5    1    3    3    0  502 -0.30863027993E+01  0.34931869605E+02 -0.16353885502E+02  0.38918925346E+02  0.41800000000E+01 0.  1.
        -11    1    1    2    0    0 -0.47912152873E+02  0.19805747179E+02 -0.10495939580E+03  0.11706543803E+03  0.00000000000E+00 0.  1.
         11    1    1    2    0    0  0.31782214024E+02 -0.14807599177E+02 -0.15586740932E+03  0.15976239673E+03  0.00000000000E+00 0. -1.
</event>
<event>
 7    1  0.2820496E-009  0.1183976E+03  0.7561462E-02  0.1245764E+00
         -1   -1    0    0    0  501 -0.00000000000E+00  0.00000000000E+00  0.10452719938E+03  0.10452719938E+03  0.00000000000E+00 0.  1.
          1   -1    0    0  501    0  0.00000000000E+00 -0.00000000000E+00 -0.25607143519E+03  0.25607143519E+03  0.00000000000E+00 0. -1.
         25    2    1    2    0    0 -0.10693845906E+03  0.44750548789E+01 -0.54629437835E+01  0.16472107425E+03  0.12508928173E+03 0.  0.
          5    1    3    3  502    0 -0.80944837482E+02  0.96231797557E+01 -0.61763129584E+02  0.10235638172E+03  0.41800000000E+01 0.  1.
         -5    1    3    3    0  502 -0.25993621582E+02 -0.51481248768E+01  0.56300185801E+02  0.62364692526E+02  0.41800000000E+01 0.  1.
        -11    1    1    2    0    0 -0.30633314867E+01 -0.17328223809E+02 -0.93716585981E+01  0.19936883534E+02  0.00000000000E+00 0.  1.
         11    1    1    2    0    0  0.11000179055E+03  0.12853168930E+02 -0.13670963343E+03  0.17594067679E+03  0.00000000000E+00 0. -1.
</event>
<event>
 7    1  0.2820496E-009  0.1752726E+03  0.7561462E-02  0.1172458E+00
         -1   -1    0    0    0  501 -0.00000000000E+00  0.00000000000E+00  0.18043087892E+03  0.18043087892E+03  0.00000000000E+00 0.  1.
          1   -1    0    0  501    0  0.00000000000E+00 -0.00000000000E+00 -0.19879817510E+03  0.19879817510E+03  0.00000000000E+00 0. -1.
         25    2    1    2    0    0  0.17612643193E+02  0.15333139991E+03 -0.15631709984E+02  0.19928322581E+03  0.12509488533E+03 0.  0.
          5    1    3    3  502    0 -0.46264071808E+02  0.59955818556E+02 -0.36490053851E+02  0.84166863724E+02  0.41800000000E+01 0. -1.
         -5    1    3    3    0  502  0.63876715001E+02  0.93375581350E+02  0.20858343867E+02  0.11511636209E+03  0.41800000000E+01 0. -1.
        -11    1    1    2    0    0  0.24910824872E+00 -0.13785427897E+03  0.28506664487E+02  0.14077107020E+03  0.00000000000E+00 0.  1.
         11    1    1    2    0    0 -0.17861751441E+02 -0.15477120940E+02 -0.31242250680E+02  0.39174758004E+02  0.00000000000E+00 0. -1.
</event>
<event>
 7    1  0.2820496E-009  0.1301991E+03  0.7561462E-02  0.1227161E+00
         -1   -1    0    0    0  501 -0.00000000000E+00  0.00000000000E+00  0.95164150178E+02  0.95164150178E+02  0.00000000000E+00 0.  1.
          1   -1    0    0  501    0  0.00000000000E+00 -0.00000000000E+00 -0.19113264799E+03  0.19113264799E+03  0.00000000000E+00 0. -1.
         25    2    1    2    0    0 -0.13282828548E+02 -0.73846562808E+02 -0.19683418668E+02  0.14718947077E+03  0.12509018731E+03 0.  0.
          5    1    3    3  502    0 -0.62662107369E+01 -0.10849004588E+03 -0.55496189830E+01  0.10889272759E+03  0.41800000000E+01 0. -1.
         -5    1    3    3    0  502 -0.70166178112E+01  0.34643483069E+02 -0.14133799685E+02  0.38296743180E+02  0.41800000000E+01 0. -1.
        -11    1    1    2    0    0  0.49694009470E+02  0.57906575788E+02 -0.45598675486E+02  0.88892661693E+02  0.00000000000E+00 0.  1.
         11    1    1    2    0    0 -0.36411180922E+02  0.15939987019E+02 -0.30686403656E+02  0.50214665703E+02  0.00000000000E+00 0. -1.
</event>
<event>
 7    1  0.4266010E-009  0.6506453E+02  0.7561462E-02  0.1377729E+00
         -1   -1    0    0    0  501 -0.00000000000E+00  0.00000000000E+00  0.47745078574E+02  0.47745078574E+02  0.00000000000E+00 0.  1.
          1   -1    0    0  501    0  0.00000000000E+00 -0.00000000000E+00 -0.31480765433E+03  0.31480765433E+03  0.00000000000E+00 0. -1.
         25    2    1    2    0    0 -0.26944661486E+02  0.47395850348E+02 -0.17461821040E+03  0.22161053412E+03  0.12508928019E+03 0.  0.
          5    1    3    3  502    0 -0.41007923616E+02  0.34636516872E+02 -0.18957981155E+03  0.19707692775E+03  0.41800000000E+01 0.  1.
         -5    1    3    3    0  502  0.14063262130E+02  0.12759333476E+02  0.14961601159E+02  0.24533606374E+02  0.41800000000E+01 0.  1.
        -11    1    1    2    0    0  0.18015935694E+02 -0.15639319678E+02 -0.10345123995E+03  0.10616647920E+03  0.00000000000E+00 0. -1.
         11    1    1    2    0    0  0.89287257920E+01 -0.31756530670E+02  0.11006874588E+02  0.34775719585E+02  0.00000000000E+00 0.  1.
</event>
<event>
 7    1  0.2820496E-009  0.1045717E+03  0.7561462E-02  0.1270966E+00
         -2   -1    0    0    0  501 -0.00000000000E+00  0.00000000000E+00  0.53531006565E+02  0.53531006565E+02  0.00000000000E+00 0. -1.
          2   -1    0    0  501    0  0.00000000000E+00 -0.00000000000E+00 -0.36180784129E+03  0.36180784129E+03  0.00000000000E+00 0.  1.
         25    2    1    2    0    0 -0.46427537338E+02  0.52775447052E+02 -0.96728057107E+02  0.17304202976E+03  0.12508582253E+03 0.  0.
          5    1    3    3  502    0 -0.29936603064E+02 -0.51939430899E+01  0.23400333326E+02  0.38577522569E+02  0.41800000000E+01 0.  1.
         -5    1    3    3    0  502 -0.16490934274E+02  0.57969390142E+02 -0.12012839043E+03  0.13446450719E+03  0.41800000000E+01 0.  1.
        -11    1    1    2    0    0 -0.62637946075E+01  0.24076947779E+02 -0.48091301116E+02  0.54145247070E+02  0.00000000000E+00 0. -1.
         11    1    1    2    0    0  0.52691331945E+02 -0.76852394831E+02 -0.16345747650E+03  0.18815157102E+03  0.00000000000E+00 0.  1.
</event>
<event>
 7    1  0.3422105E-009  0.1247911E+03  0.7561462E-02  0.1235396E+00
          3   -1    0    0  501    0  0.00000000000E+00  0.00000000000E+00  0.99769545874E+02  0.99769545874E+02  0.00000000000E+00 0. -1.
         -3   -1    0    0    0  501 -0.00000000000E+00 -0.00000000000E+00 -0.16908303136E+03  0.16908303136E+03  0.00000000000E+00 0.  1.
         25    2    1    2    0    0 -0.56276659987E+01 -0.68903853505E+02 -0.56894482258E+02  0.15383019177E+03  0.12508930464E+03 0.  0.
          5    1    3    3  502    0  0.41258483968E+02 -0.81787825659E+02 -0.23401729656E+02  0.94639443555E+02  0.41800000000E+01 0. -1.
         -5    1    3    3    0  502 -0.46886149967E+02  0.12883972154E+02 -0.33492752602E+02  0.59190748213E+02  0.41800000000E+01 0. -1.
        -11    1    1    2    0    0 -0.32074395019E+02  0.63299459209E+02 -0.24444390129E+02  0.75054090900E+02  0.00000000000E+00 0.  1.
         11    1    1    2    0    0  0.37702061017E+02  0.56043942962E+01  0.12025386902E+02  0.39968294566E+02  0.00000000000E+00 0. -1.
</event>
<event>
 7    1  0.2820496E-009  0.1007924E+03  0.7561462E-02  0.1278638E+00
         -2   -1    0    0    0  501 -0.00000000000E+00  0.00000000000E+00  0.26922943988E+02  0.26922943988E+02  0.00000000000E+00 0.  1.
          2   -1    0    0  501    0  0.00000000000E+00 -0.00000000000E+00 -0.43309024358E+03  0.43309024358E+03  0.00000000000E+00 0. -1.
         25    2    1    2    0    0  0.39153736239E+01  0.12057020009E+02 -0.27924028375E+03  0.30624240865E+03  0.12509426407E+03 0.  0.
          5    1    3    3  502    0 -0.51625718973E+02 -0.18791261839E+02 -0.18077291919E+03  0.18898319262E+03  0.41800000000E+01 0.  1.
         -5    1    3    3    0  502  0.55541092597E+02  0.30848281849E+02 -0.98467364560E+02  0.11725921603E+03  0.41800000000E+01 0.  1.
        -11    1    1    2    0    0 -0.90483563769E+01 -0.46815047813E+02 -0.49420646293E+02  0.68672569013E+02  0.00000000000E+00 0.  1.
         11    1    1    2    0    0  0.51329827530E+01  0.34758027803E+02 -0.77506369550E+02  0.85098209908E+02  0.00000000000E+00 0. -1.
</event>
<event>
 7    1  0.2824414E-009  0.1075884E+03  0.7561462E-02  0.1265102E+00
          1   -1    0    0  501    0  0.00000000000E+00  0.00000000000E+00  0.36654452677E+03  0.36654452677E+03  0.00000000000E+00 0. -1.
         -1   -1    0    0    0  501 -0.00000000000E+00 -0.00000000000E+00 -0.45938959496E+02  0.45938959496E+02  0.00000000000E+00 0.  1.
         25    2    1    2    0    0 -0.56027996874E+02 -0.31136032629E+02  0.22610003594E+03  0.26622872294E+03  0.12509163723E+03 0.  0.
          5    1    3    3  502    0 -0.32880615080E+02  0.41467823533E+02  0.44597574243E+02  0.69333478674E+02  0.41800000000E+01 0.  1.
         -5    1    3    3    0  502 -0.23147381794E+02 -0.72603856163E+02  0.18150246170E+03  0.19689524427E+03  0.41800000000E+01 0.  1.
        -11    1    1    2    0    0  0.28573621823E+02  0.46300107782E+02  0.10053846618E+03  0.11431594388E+03  0.00000000000E+00 0. -1.
         11    1    1    2    0    0  0.27454375051E+02 -0.15164075152E+02 -0.60329348404E+01  0.31938819443E+02  0.00000000000E+00 0.  1.
</event>
<event>
 7    1  0.2820496E-009  0.1215115E+03  0.7561462E-02  0.1240624E+00
         -2   -1    0    0    0  501 -0.00000000000E+00  0.00000000000E+00  0.44631925673E+02  0.44631925673E+02  0.00000000000E+00 0.  1.
          2   -1    0    0  501    0  0.00000000000E+00 -0.00000000000E+00 -0.58817296749E+03  0.58817296749E+03  0.00000000000E+00 0. -1.
         25    2    1    2    0    0 -0.43000140249E+02 -0.73922161246E+02 -0.45729641578E+03  0.48174891815E+03  0.12509400576E+03 0.  0.
          5    1    3    3  502    0 -0.86384086044E+02 -0.59404957153E+02 -0.29639351865E+03  0.31441652239E+03  0.41800000000E+01 0. -1.
         -5    1    3    3    0  502  0.43383945795E+02 -0.14517204093E+02 -0.16090289713E+03  0.16733239576E+03  0.41800000000E+01 0. -1.
        -11    1    1    2    0    0  0.16236135083E+02  0.59670713894E+02 -0.10014503246E+03  0.11769976086E+03  0.00000000000E+00 0. -1.
         11    1    1    2    0    0  0.26764005166E+02  0.14251447352E+02  0.13900406418E+02  0.33356214155E+02  0.00000000000E+00 0.  1.
</event>
<event>
 7    1  0.2820496E-009  0.1613128E+03  0.7561462E-02  0.1187223E+00
         -2   -1    0    0    0  501 -0.00000000000E+00  0.00000000000E+00  0.77030887489E+02  0.77030887489E+02  0.00000000000E+00 0.  1.
          2   -1    0    0  501    0  0.00000000000E+00 -0.00000000000E+00 -0.43818648823E+03  0.43818648823E+03  0.00000000000E+00 0. -1.
         25    2    1    2    0    0  0.16959142170E+02 -0.12093752931E+03 -0.73062421395E+02  0.18946935812E+03  0.12508805596E+03 0.  0.
          5    1    3    3  502    0 -0.11201867446E+02 -0.13983958863E+03 -0.54328120936E+02  0.15049787210E+03  0.41800000000E+01 0.  1.
         -5    1    3    3    0  502  0.28161009616E+02  0.18902059312E+02 -0.18734300458E+02  0.38971486018E+02  0.41800000000E+01 0.  1.
        -11    1    1    2    0    0  0.32586542904E+02  0.69085782675E+02 -0.11157703405E+03  0.13521894347E+03  0.00000000000E+00 0.  1.
         11    1    1    2    0    0 -0.49545685074E+02  0.51851746640E+02 -0.17651614529E+03  0.19052907413E+03  0.00000000000E+00 0. -1.
</event>
<event>
 7    1  0.2820496E-009  0.1168161E+03  0.7561462E-02  0.1248444E+00
         -1   -1    0    0    0  501 -0.00000000000E+00  0.00000000000E+00  0.14359641664E+03  0.14359641664E+03  0.00000000000E+00 0.  1.
          1   -1    0    0  501    0  0.00000000000E+00 -0.00000000000E+00 -0.12133281689E+03  0.12133281689E+03  0.00000000000E+00 0. -1.
         25    2    1    2    0    0 -0.27607957733E+02  0.66266696142E+02 -0.30132881781E+01  0.14425996513E+03  0.12509349818E+03 0.  0.
          5    1    3    3  502    0 -0.83254614592E+01  0.92452580417E+02 -0.34195064557E+02  0.99012967707E+02  0.41800000000E+01 0.  1.
         -5    1    3    3    0  502 -0.19282496274E+02 -0.26185884274E+02  0.31181776379E+02  0.45246997424E+02  0.41800000000E+01 0.  1.
        -11    1    1    2    0    0 -0.19642585861E+02  0.69065086645E+01 -0.14030776608E+02  0.25107642930E+02  0.00000000000E+00 0. -1.
         11    1    1    2    0    0  0.47250543594E+02 -0.73173204807E+02  0.39307664528E+02  0.95561625469E+02  0.00000000000E+00 0.  1.
</event>
<event>
 7    1  0.2820496E-009  0.1298523E+03  0.7561462E-02  0.1227675E+00
          2   -1    0    0  501    0  0.00000000000E+00  0.00000000000E+00  0.59945922885E+03  0.59945922885E+03  0.00000000000E+00 0. -1.
         -2   -1    0    0    0  501 -0.00000000000E+00 -0.00000000000E+00 -0.56572885281E+02  0.56572885281E+02  0.00000000000E+00 0.  1.
         25    2    1    2    0    0 -0.55780352368E+02  0.68617024607E+02  0.70202272805E+02  0.16850803009E+03  0.12508738274E+03 0.  0.
          5    1    3    3  502    0  0.30834402302E+02  0.45843802871E+02  0.54059966052E+02  0.77410380160E+02  0.41800000000E+01 0. -1.
         -5    1    3    3    0  502 -0.86614754670E+02  0.22773221737E+02  0.16142306753E+02  0.91097649926E+02  0.41800000000E+01 0. -1.
        -11    1    1    2    0    0  0.42335252232E+02  0.23617555954E+01  0.11382653069E+03  0.12146740534E+03  0.00000000000E+00 0.  1.
         11    1    1    2    0    0  0.13445100136E+02 -0.70978780203E+02  0.35885754008E+03  0.36605667871E+03  0.00000000000E+00 0. -1.
</event>
<event>
 7    1  0.2820496E-009  0.1178159E+03  0.7561462E-02  0.1246744E+00
         -1   -1    0    0    0  501 -0.00000000000E+00  0.00000000000E+00  0.21975697488E+02  0.21975697488E+02  0.00000000000E+00 0.  1.
          1   -1    0    0  501    0  0.00000000000E+00 -0.00000000000E+00 -0.87568694755E+03  0.87568694755E+03  0.00000000000E+00 0. -1.
         25    2    1    2    0    0 -0.44132151848E+02 -0.24221475491E+02 -0.69238580541E+03  0.70539325938E+03  0.12508884903E+03 0.  0.
          5    1    3    3  502    0 -0.87854635419E+02 -0.16191957343E+02 -0.42531773570E+03  0.43461852831E+03  0.41800000000E+01 0. -1.
         -5    1    3    3    0  502  0.43722483572E+02 -0.80295181484E+01 -0.26706806970E+03  0.27077473107E+03  0.41800000000E+01 0. -1.
        -11    1    1    2    0    0  0.42004365862E+02  0.55831768522E+02 -0.87787634160E+02  0.11219724524E+03  0.00000000000E+00 0.  1.
         11    1    1    2    0    0  0.21277859853E+01 -0.31610293031E+02 -0.73537810500E+02  0.80072140423E+02  0.00000000000E+00 0. -1.
</event>
<event>
 7    1  0.2820496E-009  0.1091189E+03  0.7561462E-02  0.1262210E+00
         -1   -1    0    0    0  501 -0.00000000000E+00  0.00000000000E+00  0.57827740274E+02  0.57827740274E+02  0.00000000000E+00 0.  1.
          1   -1    0    0  501    0  0.00000000000E+00 -0.00000000000E+00 -0.40771068024E+03  0.40771068024E+03  0.00000000000E+00 0. -1.
         25    2    1    2    0    0 -0.70663822785E+02 -0.82484567786E+02 -0.19320049276E+03  0.25450153935E+03  0.12509006097E+03 0.  0.
          5    1    3    3  502    0 -0.47393763446E+02 -0.49101276716E+02 -0.12847532131E+02  0.69567490041E+02  0.41800000000E+01 0.  1.
         -5    1    3    3    0  502 -0.23270059339E+02 -0.33383291069E+02 -0.18035296063E+03  0.18493404931E+03  0.41800000000E+01 0.  1.
        -11    1    1    2    0    0  0.28867963372E+02  0.40330774459E+02 -0.70965577004E+01  0.50102812385E+02  0.00000000000E+00 0.  1.
         11    1    1    2    0    0  0.41795859413E+02  0.42153793327E+02 -0.14958588950E+03  0.16093406878E+03  0.00000000000E+00 0. -1.
</event>
<event>
 7    1  0.2820496E-009  0.1201008E+03  0.7561462E-02  0.1242931E+00
          2   -1    0    0  501    0  0.00000000000E+00  0.00000000000E+00  0.24468550481E+03  0.24468550481E+03  0.00000000000E+00 0.  1.
         -2   -1    0    0    0  501 -0.00000000000E+00 -0.00000000000E+00 -0.73948966893E+02  0.73948966893E+02  0.00000000000E+00 0. -1.
         25    2    1    2    0    0 -0.79325649571E+02  0.76364201126E+00  0.61640185696E+02  0.16043825766E+03  0.12509108760E+03 0.  0.
          5    1    3    3  502    0 -0.49002935355E+02 -0.51857120444E+02  0.68724712858E+02  0.99151435549E+02  0.41800000000E+01 0.  1.
         -5    1    3    3    0  502 -0.30322714216E+02  0.52620762455E+02 -0.70845271611E+01  0.61286822106E+02  0.41800000000E+01 0.  1.
        -11    1    1    2    0    0 -0.19208512206E+01  0.23098106230E+02  0.44841529568E+01  0.23607621832E+02  0.00000000000E+00 0. -1.
         11    1    1    2    0    0  0.81246500792E+02 -0.23861748241E+02  0.10461219927E+03  0.13458859222E+03  0.00000000000E+00 0.  1.
</event>
<event>
 7    1  0.2820496E-009  0.7750668E+02  0.7561462E-02  0.1336280E+00
          1   -1    0    0  501    0  0.00000000000E+00  0.00000000000E+00  0.58507946452E+03  0.58507946452E+03  0.00000000000E+00 0. -1.
         -1   -1    0    0    0  501 -0.00000000000E+00 -0.00000000000E+00 -0.34470773353E+02  0.34470773353E+02  0.00000000000E+00 0.  1.
         25    2    1    2    0    0  0.39497858170E+02  0.48547953578E+02  0.46017638930E+03  0.48096560483E+03  0.12509444100E+03 0.  0.
          5    1    3    3  502    0  0.21683151820E+02  0.94960216618E+01  0.42398389913E+03  0.42466475321E+03  0.41800000000E+01 0. -1.
         -5    1    3    3    0  502  0.17814706351E+02  0.39051931916E+02  0.36192490173E+02  0.56300851624E+02  0.41800000000E+01 0. -1.
        -11    1    1    2    0    0 -0.36677777220E+02 -0.63122285531E+02  0.34555967635E+02  0.80770026444E+02  0.00000000000E+00 0.  1.
         11    1    1    2    0    0 -0.28200809506E+01  0.14574331954E+02  0.55876334233E+02  0.57814606595E+02  0.00000000000E+00 0. -1.
</event>
<event>
 7    1  0.2820496E-009  0.1120217E+03  0.7561462E-02  0.1256871E+00
          2   -1    0    0  501    0  0.00000000000E+00  0.00000000000E+00  0.24687800040E+03  0.24687800040E+03  0.00000000000E+00 0. -1.
         -2   -1    0    0    0  501 -0.00000000000E+00 -0.00000000000E+00 -0.85008722827E+02  0.85008722827E+02  0.00000000000E+00 0.  1.
         25    2    1    2    0    0 -0.86504958356E+02  0.37110005237E+02  0.11577116250E+03  0.19470816707E+03  0.12509215782E+03 0.  0.
          5    1    3    3  502    0 -0.30997393542E+01 -0.97501765324E+00  0.10171620738E+03  0.10185390659E+03  0.41800000000E+01 0. -1.
         -5    1    3    3    0  502 -0.83405219002E+02  0.38085022891E+02  0.14054955120E+02  0.92854260477E+02  0.41800000000E+01 0. -1.
        -11    1    1    2    0    0  0.67328473957E+02  0.17097205291E+02  0.37798983299E+02  0.79083506324E+02  0.00000000000E+00 0. -1.
         11    1    1    2    0    0  0.19176484399E+02 -0.54207210529E+02  0.82991317735E+01  0.58095049836E+02  0.00000000000E+00 0.  1.
</event>
<event>
 7    1  0.2820496E-009  0.1225076E+03  0.7561462E-02  0.1239017E+00
         -1   -1    0    0    0  501 -0.00000000000E+00  0.00000000000E+00  0.31504375543E+03  0.31504375543E+03  0.00000000000E+00 0.  1.
          1   -1    0    0  501    0  0.00000000000E+00 -0.00000000000E+00 -0.54066388420E+02  0.54066388420E+02  0.00000000000E+00 0. -1.
         25    2    1    2    0    0  0.58013919537E+02 -0.41191101689E+02  0.12554260366E+03  0.19096929569E+03  0.12508399115E+03 0.  0.
          5    1    3    3  502    0  0.36238678501E+02 -0.84894563603E+02  0.98258283399E+02  0.13487954406E+03  0.41800000000E+01 0. -1.
         -5    1    3    3    0  502  0.21775241036E+02  0.43703461914E+02  0.27284320263E+02  0.56089751628E+02  0.41800000000E+01 0. -1.
        -11    1    1    2    0    0 -0.76131052398E+02  0.27674937215E+02  0.64064649622E+02  0.10327690265E+03  0.00000000000E+00 0.  1.
         11    1    1    2    0    0  0.18117132861E+02  0.13516164474E+02  0.71370113723E+02  0.74863945515E+02  0.00000000000E+00 0. -1.
</event>
<event>
 7    1  0.2820496E-009  0.1506487E+03  0.7561462E-02  0.1199678E+00
          2   -1    0    0  501    0  0.00000000000E+00  0.00000000000E+00  0.90286490966E+02  0.90286490966E+02  0.00000000000E+00 0. -1.
         -2   -1    0    0    0  501 -0.00000000000E+00 -0.00000000000E+00 -0.33575873281E+03  0.33575873281E+03  0.00000000000E+00 0.  1.
         25    2    1    2    0    0 -0.18202300598E+02  0.13446066627E+03 -0.13246777642E+03  0.22718108930E+03  0.12511011560E+03 0.  0.
          5    1    3    3  502    0  0.47802072406E+01  0.31130260182E+02  0.22878145294E+02  0.39151314312E+02  0.41800000000E+01 0. -1.
         -5    1    3    3    0  502 -0.22982507839E+02  0.10333040609E+03 -0.15534592171E+03  0.18802977499E+03  0.41800000000E+01 0. -1.
        -11    1    1    2    0    0 -0.98058399358E+01 -0.13521484961E+03 -0.91806194419E+02  0.16373022746E+03  0.00000000000E+00 0. -1.
         11    1    1    2    0    0  0.28008140534E+02  0.75418333817E+00 -0.21198271010E+02  0.35133907020E+02  0.00000000000E+00 0.  1.
</event>
<event>
 7    1  0.2820496E-009  0.1356920E+03  0.7561462E-02  0.1219246E+00
          2   -1    0    0  501    0  0.00000000000E+00  0.00000000000E+00  0.14138752998E+04  0.14138752998E+04  0.00000000000E+00 0. -1.
         -2   -1    0    0    0  501 -0.00000000000E+00 -0.00000000000E+00 -0.15451727027E+02  0.15451727027E+02  0.00000000000E+00 0.  1.
         25    2    1    2    0    0  0.96478742253E+02  0.35060379148E+01  0.69136532255E+03  0.70919227424E+03  0.12508889883E+03 0.  0.
          5    1    3    3  502    0  0.16386445412E+01  0.36604401966E+02  0.64353971331E+02  0.74171918037E+02  0.41800000000E+01 0. -1.
         -5    1    3    3    0  502  0.94840097712E+02 -0.33098364052E+02  0.62701135122E+03  0.63502035620E+03  0.41800000000E+01 0. -1.
        -11    1    1    2    0    0 -0.11257041823E+03 -0.15859292764E+02  0.64198433754E+03  0.65197201311E+03  0.00000000000E+00 0.  1.
         11    1    1    2    0    0  0.16091675976E+02  0.12353254849E+02  0.65073912638E+02  0.68162739434E+02  0.00000000000E+00 0. -1.
</event>
<event>
 7    1  0.2820496E-009  0.1280825E+03  0.7561462E-02  0.1230329E+00
         -2   -1    0    0    0  501 -0.00000000000E+00  0.00000000000E+00  0.57883629373E+02  0.57883629373E+02  0.00000000000E+00 0. -1.
          2   -1    0    0  501    0  0.00000000000E+00 -0.00000000000E+00 -0.61230803000E+03  0.61230803000E+03  0.00000000000E+00 0.  1.
         25    2    1    2    0    0 -0.97736909670E+02  0.61407861515E+02 -0.47226157635E+03  0.50199794353E+03  0.12509000699E+03 0.  0.
          5    1    3    3  502    0 -0.11083751433E+03  0.57925736906E+02 -0.25275531555E+03  0.28203380563E+03  0.41800000000E+01 0. -1.
         -5    1    3    3    0  502  0.13100604660E+02  0.34821246096E+01 -0.21950626080E+03  0.21996413791E+03  0.41800000000E+01 0. -1.
        -11    1    1    2    0    0  0.29266463804E+02 -0.89865670867E+01 -0.75772776716E+02  0.81723913164E+02  0.00000000000E+00 0.  1.
         11    1    1    2    0    0  0.68470445866E+02 -0.52421294429E+02 -0.63900475616E+01  0.86469802674E+02  0.00000000000E+00 0. -1.
</event>
<event>
 7    1  0.2820496E-009  0.8878595E+02  0.7561462E-02  0.1305819E+00
          3   -1    0    0  501    0  0.00000000000E+00  0.00000000000E+00  0.59064255949E+02  0.59064255949E+02  0.00000000000E+00 0. -1.
         -3   -1    0    0    0  501 -0.00000000000E+00 -0.00000000000E+00 -0.24077405890E+03  0.24077405890E+03  0.00000000000E+00 0.  1.
         25    2    1    2    0    0 -0.10515096019E+01 -0.42587833611E+02 -0.68186615541E+02  0.14870411708E+03  0.12509464679E+03 0.  0.
          5    1    3    3  502    0 -0.19789142355E+02 -0.75735048798E+02 -0.99772212587E+01  0.79021674973E+02  0.41800000000E+01 0. -1.
         -5    1    3    3    0  502  0.18737632753E+02  0.33147215187E+02 -0.58209394283E+02  0.69682442111E+02  0.41800000000E+01 0. -1.
        -11    1    1    2    0    0  0.21941581091E+02  0.16484746465E+02 -0.11444389809E+03  0.11768851115E+03  0.00000000000E+00 0.  1.
         11    1    1    2    0    0 -0.20890071490E+02  0.26103087146E+02  0.92071067402E+00  0.33445686621E+02  0.00000000000E+00 0. -1.
</event>
<event>
 7    1  0.4120428E-009  0.6266992E+02  0.7561462E-02  0.1386957E+00
         -1   -1    0    0    0  501 -0.00000000000E+00  0.00000000000E+00  0.46374007358E+03  0.46374007358E+03  0.00000000000E+00 0.  1.
          1   -1    0    0  501    0  0.00000000000E+00 -0.00000000000E+00 -0.38920874152E+02  0.38920874152E+02  0.00000000000E+00 0. -1.
         25    2    1    2    0    0 -0.11768402983E+02  0.44968853855E+02  0.35498019496E+03  0.37923545924E+03  0.12509157286E+03 0.  0.
          5    1    3    3  502    0  0.21858788561E+01  0.61827793898E+01 -0.95740263155E+01  0.12334472313E+02  0.41800000000E+01 0. -1.
         -5    1    3    3    0  502 -0.13954281839E+02  0.38786074465E+02  0.36455422128E+03  0.36690098693E+03  0.41800000000E+01 0. -1.
        -11    1    1    2    0    0  0.28786971597E+02 -0.50591773840E+02  0.82866804899E+02  0.10126758943E+03  0.00000000000E+00 0.  1.
         11    1    1    2    0    0 -0.17018568615E+02  0.56229199847E+01 -0.13027800436E+02  0.22157899066E+02  0.00000000000E+00 0. -1.
</event>
<event>
 7    1  0.3341411E-009  0.1540025E+03  0.7561462E-02  0.1195639E+00
         -2   -1    0    0    0  501 -0.00000000000E+00  0.00000000000E+00  0.74657566279E+02  0.74657566279E+02  0.00000000000E+00 0. -1.
          2   -1    0    0  501    0  0.00000000000E+00 -0.00000000000E+00 -0.47208866082E+03  0.47208866082E+03  0.00000000000E+00 0.  1.
         25    2    1    2    0    0  0.43008343475E+02 -0.14269112466E+03 -0.25816460447E+03  0.32327579081E+03  0.12509116378E+03 0.  0.
          5    1    3    3  502    0  0.46305867952E+01 -0.17633379776E+02 -0.15632848062E+03  0.15744346500E+03  0.41800000000E+01 0.  1.
         -5    1    3    3    0  502  0.38377756680E+02 -0.12505774489E+03 -0.10183612385E+03  0.16583232581E+03  0.41800000000E+01 0.  1.
        -11    1    1    2    0    0  0.36525476316E+01  0.80938776646E+02 -0.11811647024E+03  0.14323382007E+03  0.00000000000E+00 0.  1.
         11    1    1    2    0    0 -0.46660891107E+02  0.61752348016E+02 -0.21150019833E+02  0.80236616225E+02  0.00000000000E+00 0. -1.
</event>
<event>
 7    1  0.2820496E-009  0.1812871E+03  0.7561462E-02  0.1166563E+00
         -1   -1    0    0    0  501 -0.00000000000E+00  0.00000000000E+00  0.93376923971E+02  0.93376923971E+02  0.00000000000E+00 0.  1.
          1   -1    0    0  501    0  0.00000000000E+00 -0.00000000000E+00 -0.41408782911E+03  0.41408782911E+03  0.00000000000E+00 0. -1.
         25    2    1    2    0    0 -0.23352788212E+02 -0.16162383479E+03 -0.17953970156E+03  0.27303752099E+03  0.12508943497E+03 0.  0.
          5    1    3    3  502    0  0.44839427859E+02 -0.86103113259E+02 -0.12234542575E+03  0.15623762673E+03  0.41800000000E+01 0. -1.
         -5    1    3    3    0  502 -0.68192216071E+02 -0.75520721534E+02 -0.57194275811E+02  0.11679989426E+03  0.41800000000E+01 0. -1.
        -11    1    1    2    0    0  0.78912756845E+01  0.87063758153E+02 -0.13116235188E+03  0.15762592670E+03  0.00000000000E+00 0. -1.
         11    1    1    2    0    0  0.15461512528E+02  0.74560076640E+02 -0.10008851695E+02  0.76801305396E+02  0.00000000000E+00 0.  1.
</event>
<event>
 7    1  0.2820496E-009  0.1250751E+03  0.7561462E-02  0.1234952E+00
          1   -1    0    0  501    0  0.00000000000E+00  0.00000000000E+00  0.88749479198E+02  0.88749479198E+02  0.00000000000E+00 0. -1.
         -1   -1    0    0    0  501 -0.00000000000E+00 -0.00000000000E+00 -0.20282816217E+03  0.20282816217E+03  0.00000000000E+00 0.  1.
         25    2    1    2    0    0  0.24188638374E+02  0.71603405128E+02 -0.36290886200E+02  0.15058870319E+03  0.12509113180E+03 0.  0.
          5    1    3    3  502    0  0.33557112977E+01 -0.34950360485E+02 -0.20284809770E+02  0.40764376651E+02  0.41800000000E+01 0.  1.
         -5    1    3    3    0  502  0.20832927077E+02  0.10655376561E+03 -0.16006076430E+02  0.10982432654E+03  0.41800000000E+01 0.  1.
        -11    1    1    2    0    0 -0.17008860833E+02  0.12890161587E+02 -0.45491738745E+02  0.50248939358E+02  0.00000000000E+00 0.  1.
         11    1    1    2    0    0 -0.71797775416E+01 -0.84493566714E+02 -0.32296058025E+02  0.90739998818E+02  0.00000000000E+00 0. -1.
</event>
<event>
 7    1  0.2820496E-009  0.1082990E+03  0.7561462E-02  0.1263753E+00
         -2   -1    0    0    0  501 -0.00000000000E+00  0.00000000000E+00  0.46186659258E+02  0.46186659258E+02  0.00000000000E+00 0.  1.
          2   -1    0    0  501    0  0.00000000000E+00 -0.00000000000E+00 -0.33818898563E+03  0.33818898563E+03  0.00000000000E+00 0. -1.
         25    2    1    2    0    0 -0.64875122206E+02  0.68196361362E+01 -0.16350512282E+03  0.21595930802E+03  0.12509679697E+03 0.  0.
          5    1    3    3  502    0 -0.84993659142E+02  0.45404489821E+02 -0.10071751874E+03  0.13945243193E+03  0.41800000000E+01 0. -1.
         -5    1    3    3    0  502  0.20118536936E+02 -0.38584853685E+02 -0.62787604085E+02  0.76506876090E+02  0.41800000000E+01 0. -1.
        -11    1    1    2    0    0  0.31861538537E+02  0.16626499332E+02 -0.24470711573E+01  0.36022024863E+02  0.00000000000E+00 0.  1.
         11    1    1    2    0    0  0.33013583669E+02 -0.23446135468E+02 -0.12605013240E+03  0.13239431201E+03  0.00000000000E+00 0. -1.
</event>
<event>
 7    1  0.2820496E-009  0.9929899E+02  0.7561462E-02  0.1281777E+00
          2   -1    0    0  501    0  0.00000000000E+00  0.00000000000E+00  0.56292785957E+02  0.56292785957E+02  0.00000000000E+00 0.  1.
         -2   -1    0    0    0  501 -0.00000000000E+00 -0.00000000000E+00 -0.26095806883E+03  0.26095806883E+03  0.00000000000E+00 0. -1.
         25    2    1    2    0    0  0.29818320993E+02 -0.27488276079E+02 -0.71108881396E+02  0.14949402844E+03  0.12508898408E+03 0.  0.
          5    1    3    3  502    0  0.21378959348E+02 -0.70172409630E+02 -0.75758148182E+02  0.10553670637E+03  0.41800000000E+01 0.  1.
         -5    1    3    3    0  502  0.84393616448E+01  0.42684133552E+02  0.46492667855E+01  0.43957322071E+02  0.41800000000E+01 0.  1.
        -11    1    1    2    0    0 -0.47966820356E+02 -0.59944078233E+00 -0.24853857863E+02  0.54026747404E+02  0.00000000000E+00 0.  1.
         11    1    1    2    0    0  0.18148499363E+02  0.28087716861E+02 -0.10870254361E+03  0.11373007894E+03  0.00000000000E+00 0. -1.
</event>
<event>
 7    1  0.2820496E-009  0.1664051E+03  0.7561462E-02  0.1181650E+00
          1   -1    0    0  501    0  0.00000000000E+00  0.00000000000E+00  0.18659197429E+03  0.18659197429E+03  0.00000000000E+00 0. -1.
         -1   -1    0    0    0  501 -0.00000000000E+00 -0.00000000000E+00 -0.19953679722E+03  0.19953679722E+03  0.00000000000E+00 0.  1.
         25    2    1    2    0    0  0.69600284652E+02  0.12399517686E+03 -0.78412337994E+02  0.20497373277E+03  0.12508690126E+03 0.  0.
          5    1    3    3  502    0 -0.25254840611E+02  0.54807970146E+02  0.52931512369E+01  0.60722404562E+02  0.41800000000E+01 0. -1.
         -5    1    3    3    0  502  0.94855125263E+02  0.69187206712E+02 -0.83705489231E+02  0.14425132820E+03  0.41800000000E+01 0. -1.
        -11    1    1    2    0    0  0.10014576851E+02 -0.30155833077E+02  0.46972659087E+02  0.56710640270E+02  0.00000000000E+00 0. -1.
         11    1    1    2    0    0 -0.79614861503E+02 -0.93839343781E+02  0.18494855980E+02  0.12444439847E+03  0.00000000000E+00 0.  1.
</event>
<event>
 7    1  0.2820496E-009  0.8838579E+02  0.7561462E-02  0.1306808E+00
         -1   -1    0    0    0  501 -0.00000000000E+00  0.00000000000E+00  0.17131454765E+02  0.17131454765E+02  0.00000000000E+00 0.  1.
          1   -1    0    0  501    0  0.00000000000E+00 -0.00000000000E+00 -0.74886379622E+03  0.74886379622E+03  0.00000000000E+00 0. -1.
         25    2    1    2    0    0  0.24229496022E+02  0.76577139819E+01 -0.34353240328E+03  0.36648115671E+03  0.12509283376E+03 0.  0.
          5    1    3    3  502    0  0.30259722264E+02 -0.34726657550E+02 -0.43868200106E+02  0.63745454087E+02  0.41800000000E+01 0.  1.
         -5    1    3    3    0  502 -0.60302262418E+01  0.42384371532E+02 -0.29966420318E+03  0.30273570263E+03  0.41800000000E+01 0.  1.
        -11    1    1    2    0    0 -0.21045329123E+02 -0.45184476299E+02 -0.29164879585E+03  0.29587761472E+03  0.00000000000E+00 0.  1.
         11    1    1    2    0    0 -0.31841668992E+01  0.37526762317E+02 -0.96551142326E+02  0.10363647955E+03  0.00000000000E+00 0. -1.
</event>
<event>
 7    1  0.2820496E-009  0.6339747E+02  0.7561462E-02  0.1384103E+00
         -1   -1    0    0    0  501 -0.00000000000E+00  0.00000000000E+00  0.11302229978E+02  0.11302229978E+02  0.00000000000E+00 0.  1.
          1   -1    0    0  501    0  0.00000000000E+00 -0.00000000000E+00 -0.10461576274E+04  0.10461576274E+04  0.00000000000E+00 0. -1.
         25    2    1    2    0    0 -0.11853211211E+02  0.11714568856E+01 -0.57807099009E+03  0.59157031907E+03  0.12508997520E+03 0.  0.
          5    1    3    3  502    0  0.65994638263E+01  0.11624237328E+02 -0.94227602340E+00  0.14036954811E+02  0.41800000000E+01 0.  1.
         -5    1    3    3    0  502 -0.18452675037E+02 -0.10452780443E+02 -0.57712871407E+03  0.57753336426E+03  0.41800000000E+01 0.  1.
        -11    1    1    2    0    0  0.45918410618E+02 -0.22343048887E+02 -0.27927078765E+03  0.28390118898E+03  0.00000000000E+00 0.  1.
         11    1    1    2    0    0 -0.34065199407E+02  0.21171592001E+02 -0.17751361964E+03  0.18198834929E+03  0.00000000000E+00 0. -1.
</event>
<event>
 6    1  0.3827712E-009  0.1494091E+03  0.7561462E-02  0.1201201E+00
         -2   -1    0    0    0  501 -0.00000000000E+00  0.00000000000E+00  0.12062214647E+02  0.12062214647E+02  0.00000000000E+00 0.  1.
          2   -1    0    0  501    0  0.00000000000E+00 -0.00000000000E+00 -0.21943188364E+04  0.21943188364E+04  0.00000000000E+00 0. -1.
          5    1    1    2  502    0 -0.38746613101E+02 -0.26570100104E+02 -0.19008693532E+03  0.19585143764E+03  0.41800000000E+01 0.  1.
         -5    1    1    2    0  502 -0.59890230376E+02  0.87196295008E+02 -0.12049999646E+04  0.12096414430E+04  0.41800000000E+01 0.  1.
        -11    1    1    2    0    0  0.10580377365E+03 -0.24035525631E+02 -0.63597275126E+03  0.64516159631E+03  0.00000000000E+00 0.  1.
         11    1    1    2    0    0 -0.71669301701E+01 -0.36590669272E+02 -0.15119697053E+03  0.15572657404E+03  0.00000000000E+00 0. -1.
</event>
<event>
 7    1  0.2820496E-009  0.2516570E+03  0.7561462E-02  0.1112262E+00
          2   -1    0    0  501    0  0.00000000000E+00  0.00000000000E+00  0.28088822729E+03  0.28088822729E+03  0.00000000000E+00 0. -1.
         -2   -1    0    0    0  501 -0.00000000000E+00 -0.00000000000E+00 -0.32207160626E+03  0.32207160626E+03  0.00000000000E+00 0.  1.
         25    2    1    2    0    0 -0.23603310659E+03  0.14961118203E+01 -0.17102401908E+03  0.31719249637E+03  0.12509196176E+03 0.  0.
          5    1    3    3  502    0 -0.20528175661E+03  0.28989682588E+02 -0.89742687836E+02  0.22594739148E+03  0.41800000000E+01 0. -1.
         -5    1    3    3    0  502 -0.30751349978E+02 -0.27493570768E+02 -0.81281331243E+02  0.91245104897E+02  0.41800000000E+01 0. -1.
        -11    1    1    2    0    0  0.44806300123E+02  0.38561295386E+02  0.33105956056E+02  0.67753836489E+02  0.00000000000E+00 0.  1.
         11    1    1    2    0    0  0.19122680647E+03 -0.40057407207E+02  0.96734684050E+02  0.21801350069E+03  0.00000000000E+00 0. -1.
</event>
<event>
 7    1  0.2820496E-009  0.9436417E+02  0.7561462E-02  0.1292615E+00
         -2   -1    0    0    0  501 -0.00000000000E+00  0.00000000000E+00  0.30363387662E+03  0.30363387662E+03  0.00000000000E+00 0.  1.
          2   -1    0    0  501    0  0.00000000000E+00 -0.00000000000E+00 -0.44947535370E+02  0.44947535370E+02  0.00000000000E+00 0. -1.
         25    2    1    2    0    0  0.38429720576E+02  0.14136439481E+02  0.11614135704E+03  0.17553577156E+03  0.12508920792E+03 0.  0.
          5    1    3    3  502    0  0.66290416713E+02  0.43051665364E+02  0.10873095044E+03  0.13449073285E+03  0.41800000000E+01 0. -1.
         -5    1    3    3    0  502 -0.27860696137E+02 -0.28915225883E+02  0.74104065996E+01  0.41045038714E+02  0.41800000000E+01 0. -1.
        -11    1    1    2    0    0 -0.31134069332E+02 -0.35152374952E+02  0.24580979479E+02  0.53002304573E+02  0.00000000000E+00 0. -1.
         11    1    1    2    0    0 -0.72956512437E+01  0.21015935471E+02  0.11796400473E+03  0.12004333585E+03  0.00000000000E+00 0.  1.
</event>
<event>
 7    1  0.2820496E-009  0.9527218E+02  0.7561462E-02  0.1290564E+00
          1   -1    0    0  501    0  0.00000000000E+00  0.00000000000E+00  0.40645502570E+02  0.40645502570E+02  0.00000000000E+00 0. -1.
         -1   -1    0    0    0  501 -0.00000000000E+00 -0.00000000000E+00 -0.38161726839E+03  0.38161726839E+03  0.00000000000E+00 0.  1.
         25    2    1    2    0    0  0.26034707460E+02 -0.23287548269E+02 -0.10607255343E+03  0.16768841730E+03  0.12509157769E+03 0.  0.
          5    1    3    3  502    0  0.16508404437E+02 -0.60909568828E+02 -0.10054658571E+02  0.64039609234E+02  0.41800000000E+01 0.  1.
         -5    1    3    3    0  502  0.95263030235E+01  0.37622020559E+02 -0.96017894858E+02  0.10364880806E+03  0.41800000000E+01 0.  1.
        -11    1    1    2    0    0  0.25782881355E+02  0.25683422821E+02 -0.15572236600E+03  0.15991826179E+03  0.00000000000E+00 0. -1.
         11    1    1    2    0    0 -0.51817588815E+02 -0.23958745519E+01 -0.79176846387E+02  0.94656091876E+02  0.00000000000E+00 0.  1.
</event>
<event>
 7    1  0.2820496E-009  0.1999061E+03  0.7561462E-02  0.1149818E+00
          2   -1    0    0  501    0  0.00000000000E+00  0.00000000000E+00  0.20700899008E+04  0.20700899008E+04  0.00000000000E+00 0. -1.
         -2   -1    0    0    0  501 -0.00000000000E+00 -0.00000000000E+00 -0.34450941224E+02  0.34450941224E+02  0.00000000000E+00 0.  1.
         25    2    1    2    0    0 -0.82034621935E+02 -0.15499707324E+03  0.17101608248E+04  0.17236736891E+04  0.12508863993E+03 0.  0.
          5    1    3    3  502    0 -0.91869654183E+02 -0.44631973579E+02  0.69544847126E+03  0.70292111577E+03  0.41800000000E+01 0. -1.
         -5    1    3    3    0  502  0.98350322479E+01 -0.11036509966E+03  0.10147123535E+04  0.10207525733E+04  0.41800000000E+01 0. -1.
        -11    1    1    2    0    0  0.79167095305E+02  0.83172541886E+02  0.25745869323E+03  0.28190437992E+03  0.00000000000E+00 0.  1.
         11    1    1    2    0    0  0.28675266296E+01  0.71824531350E+02  0.68019441516E+02  0.98962772985E+02  0.00000000000E+00 0. -1.
</event>
<event>
 7    1  0.2820496E-009  0.1516199E+03  0.7561462E-02  0.1198497E+00
          1   -1    0    0  501    0  0.00000000000E+00  0.00000000000E+00  0.13037022658E+04  0.13037022658E+04  0.00000000000E+00 0. -1.
         -1   -1    0    0    0  501 -0.00000000000E+00 -0.00000000000E+00 -0.20438031005E+02  0.20438031005E+02  0.00000000000E+00 0.  1.
         25    2    1    2    0    0  0.12062481616E+03 -0.10611212557E+02  0.70277032591E+03  0.72401396332E+03  0.12508854463E+03 0.  0.
          5    1    3    3  502    0  0.11026859711E+03  0.33961716771E+02  0.60584384724E+03  0.61674695083E+03  0.41800000000E+01 0. -1.
         -5    1    3    3    0  502  0.10356219055E+02 -0.44572929329E+02  0.96926478666E+02  0.10726701249E+03  0.41800000000E+01 0. -1.
        -11    1    1    2    0    0 -0.56467891804E+02  0.42033299702E+02  0.17933794559E+03  0.19265907665E+03  0.00000000000E+00 0.  1.
         11    1    1    2    0    0 -0.64156924357E+02 -0.31422087144E+02  0.40115596333E+03  0.40746725687E+03  0.00000000000E+00 0. -1.
</event>
<event>
 7    1  0.2820496E-009  0.1997973E+03  0.7561462E-02  0.1149910E+00
         -2   -1    0    0    0  501 -0.00000000000E+00  0.00000000000E+00  0.69724427708E+03  0.69724427708E+03  0.00000000000E+00 0.  1.
          2   -1    0    0  501    0  0.00000000000E+00 -0.00000000000E+00 -0.65622964626E+02  0.65622964626E+02  0.00000000000E+00 0. -1.
         25    2    1    2    0    0  0.88440673921E+02 -0.14542818659E+03  0.20405871801E+03  0.29369668563E+03  0.12508665996E+03 0.  0.
          5    1    3    3  502    0  0.11879765490E+03 -0.10591650017E+03  0.13695862387E+03  0.21001505867E+03  0.41800000000E+01 0. -1.
         -5    1    3    3    0  502 -0.30356980974E+02 -0.39511686426E+02  0.67100094138E+02  0.83681626964E+02  0.41800000000E+01 0. -1.
        -11    1    1    2    0    0 -0.11906048502E+02  0.10137645435E+03  0.26836080388E+03  0.28711750303E+03  0.00000000000E+00 0. -1.
         11    1    1    2    0    0 -0.76534625419E+02  0.44051732243E+02  0.15920179057E+03  0.18205305304E+03  0.00000000000E+00 0.  1.
</event>
<event>
 7    1  0.2820496E-009  0.1027218E+03  0.7561462E-02  0.1274674E+00
         -1   -1    0    0    0  501 -0.00000000000E+00  0.00000000000E+00  0.30042744914E+02  0.30042744914E+02  0.00000000000E+00 0.  1.
          1   -1    0    0  501    0  0.00000000000E+00 -0.00000000000E+00 -0.53040924601E+03  0.53040924601E+03  0.00000000000E+00 0. -1.
         25    2    1    2    0    0 -0.33745147816E+01  0.39105066877E+02 -0.16780098584E+03  0.21294253602E+03  0.12508700648E+03 0.  0.
          5    1    3    3  502    0 -0.48294419368E+02  0.63619769942E+01 -0.16339596506E+02  0.51548816740E+02  0.41800000000E+01 0.  1.
         -5    1    3    3    0  502  0.44919904586E+02  0.32743089882E+02 -0.15146138933E+03  0.16139371928E+03  0.41800000000E+01 0.  1.
        -11    1    1    2    0    0 -0.27476292668E+02  0.20103237889E+02 -0.11113510712E+03  0.11623295086E+03  0.00000000000E+00 0.  1.
         11    1    1    2    0    0  0.30850807450E+02 -0.59208304766E+02 -0.22143040814E+03  0.23127650404E+03  0.00000000000E+00 0. -1.
</event>
<event>
 7    1  0.2820496E-009  0.1144909E+03  0.7561462E-02  0.1252472E+00
         -1   -1    0    0    0  501 -0.00000000000E+00  0.00000000000E+00  0.11232993606E+03  0.11232993606E+03  0.00000000000E+00 0.  1.
          1   -1    0    0  501    0  0.00000000000E+00 -0.00000000000E+00 -0.22752908768E+03  0.22752908768E+03  0.00000000000E+00 0. -1.
         25    2    1    2    0    0 -0.84577457057E+01 -0.80789451313E+02  0.25652225069E+02  0.15133959078E+03  0.12508863330E+03 0.  0.
          5    1    3    3  502    0  0.44116165089E+02 -0.81962845592E+02  0.11700400287E+01  0.93182538458E+02  0.41800000000E+01 0.  1.
         -5    1    3    3    0  502 -0.52573910795E+02  0.11733942798E+01  0.24482185040E+02  0.58157052322E+02  0.41800000000E+01 0.  1.
        -11    1    1    2    0    0 -0.38578135491E+01  0.45762956651E+02 -0.14410741386E+03  0.15124839720E+03  0.00000000000E+00 0. -1.
         11    1    1    2    0    0  0.12315559255E+02  0.35026494662E+02  0.32560371677E+01  0.37271035753E+02  0.00000000000E+00 0.  1.
</event>
<event>
 7    1  0.2820496E-009  0.9657023E+02  0.7561462E-02  0.1287678E+00
          2   -1    0    0  501    0  0.00000000000E+00  0.00000000000E+00  0.45423159479E+02  0.45423159479E+02  0.00000000000E+00 0. -1.
         -2   -1    0    0    0  501 -0.00000000000E+00 -0.00000000000E+00 -0.35859604232E+03  0.35859604232E+03  0.00000000000E+00 0.  1.
         25    2    1    2    0    0 -0.32841211463E+01  0.68574099957E+02 -0.15694541410E+03  0.21211377846E+03  0.12508876596E+03 0.  0.
          5    1    3    3  502    0 -0.23358374794E+02  0.47782179534E+02 -0.89803393396E+00  0.53357560092E+02  0.41800000000E+01 0. -1.
         -5    1    3    3    0  502  0.20074253648E+02  0.20791920423E+02 -0.15604738017E+03  0.15875621837E+03  0.41800000000E+01 0. -1.
        -11    1    1    2    0    0  0.27974051415E+02  0.88360017326E+01 -0.31482097824E+02  0.43031906332E+02  0.00000000000E+00 0. -1.
         11    1    1    2    0    0 -0.24689930268E+02 -0.77410101689E+02 -0.12474537092E+03  0.14887351700E+03  0.00000000000E+00 0.  1.
</event>
<event>
 7    1  0.2820496E-009  0.9410624E+02  0.7561462E-02  0.1293202E+00
         -1   -1    0    0    0  501 -0.00000000000E+00  0.00000000000E+00  0.14456260138E+02  0.14456260138E+02  0.00000000000E+00 0.  1.
          1   -1    0    0  501    0  0.00000000000E+00 -0.00000000000E+00 -0.10555143719E+04  0.10555143719E+04  0.00000000000E+00 0. -1.
         25    2    1    2    0    0 -0.26954240805E+02  0.15161845524E+02 -0.82606499736E+03  0.83605425685E+03  0.12508768078E+03 0.  0.
          5    1    3    3  502    0 -0.40643289957E+02  0.47699942662E+02 -0.74368229360E+03  0.74632967766E+03  0.41800000000E+01 0.  1.
         -5    1    3    3    0  502  0.13689049152E+02 -0.32538097138E+02 -0.82382703760E+02  0.89724579190E+02  0.41800000000E+01 0.  1.
        -11    1    1    2    0    0  0.57675208931E+02 -0.12569466476E+02 -0.16432578537E+03  0.17460637145E+03  0.00000000000E+00 0. -1.
         11    1    1    2    0    0 -0.30720968126E+02 -0.25923790480E+01 -0.50667329026E+02  0.59310003729E+02  0.00000000000E+00 0.  1.
</event>
<event>
 7    1  0.2820496E-009  0.2110030E+03  0.7561462E-02  0.1140774E+00
          1   -1    0    0  501    0  0.00000000000E+00  0.00000000000E+00  0.41418745961E+03  0.41418745961E+03  0.00000000000E+00 0.  1.
         -1   -1    0    0    0  501 -0.00000000000E+00 -0.00000000000E+00 -0.11898042215E+03  0.11898042215E+03  0.00000000000E+00 0. -1.
         25    2    1    2    0    0  0.93626763828E+02  0.16589762944E+03  0.10884901112E+03  0.25255998018E+03  0.12510172663E+03 0.  0.
          5    1    3    3  502    0  0.73074889250E+02  0.17872949075E+03  0.67762495496E+02  0.20467876904E+03  0.41800000000E+01 0.  1.
         -5    1    3    3    0  502  0.20551874578E+02 -0.12831861305E+02  0.41086515627E+02  0.47881211133E+02  0.41800000000E+01 0.  1.
        -11    1    1    2    0    0 -0.75235921018E+02 -0.58449117149E+02  0.11910201597E+03  0.15251896051E+03  0.00000000000E+00 0.  1.
         11    1    1    2    0    0 -0.18390842809E+02 -0.10744851229E+03  0.67256010369E+02  0.12808894107E+03  0.00000000000E+00 0. -1.
</event>
<event>
 7    1  0.2820496E-009  0.1977424E+03  0.7561462E-02  0.1151658E+00
         -1   -1    0    0    0  501 -0.00000000000E+00  0.00000000000E+00  0.19733825658E+03  0.19733825658E+03  0.00000000000E+00 0.  1.
          1   -1    0    0  501    0  0.00000000000E+00 -0.00000000000E+00 -0.26033898632E+03  0.26033898632E+03  0.00000000000E+00 0. -1.
         25    2    1    2    0    0  0.15236740866E+01 -0.18486456392E+03 -0.10700667489E+03  0.24753816544E+03  0.12508991288E+03 0.  0.
          5    1    3    3  502    0 -0.34756379632E+02 -0.50961311191E+02 -0.87854673590E+02  0.10742894040E+03  0.41800000000E+01 0. -1.
         -5    1    3    3    0  502  0.36280053719E+02 -0.13390325272E+03 -0.19152001300E+02  0.14010922504E+03  0.41800000000E+01 0. -1.
        -11    1    1    2    0    0  0.29434179742E+02  0.70839749352E+02  0.50444462554E+02  0.91811136730E+02  0.00000000000E+00 0.  1.
         11    1    1    2    0    0 -0.30957853829E+02  0.11402481456E+03 -0.64385174040E+01  0.11832794072E+03  0.00000000000E+00 0. -1.
</event>
<event>
 7    1  0.2820496E-009  0.1524348E+03  0.7561462E-02  0.1197513E+00
         -4   -1    0    0    0  501 -0.00000000000E+00  0.00000000000E+00  0.27989701322E+02  0.27989701322E+02  0.00000000000E+00 0.  1.
          4   -1    0    0  501    0  0.00000000000E+00 -0.00000000000E+00 -0.10331268160E+04  0.10331268160E+04  0.00000000000E+00 0. -1.
         25    2    1    2    0    0  0.10813102617E+03  0.31020286295E+02 -0.32566257214E+03  0.36654818132E+03  0.12508749480E+03 0.  0.
          5    1    3    3  502    0  0.11570022298E+03  0.60354448114E+02 -0.21320136049E+03  0.25000298702E+03  0.41800000000E+01 0. -1.
         -5    1    3    3    0  502 -0.75691968027E+01 -0.29334161819E+02 -0.11246121165E+03  0.11654519431E+03  0.41800000000E+01 0. -1.
        -11    1    1    2    0    0 -0.24634884232E+02 -0.52080906730E+02 -0.25114028023E+03  0.25766400354E+03  0.00000000000E+00 0.  1.
         11    1    1    2    0    0 -0.83496141941E+02  0.21060620435E+02 -0.42833426231E+03  0.43690433246E+03  0.00000000000E+00 0. -1.
</event>
<event>
 7    1  0.2820496E-009  0.8879124E+02  0.7561462E-02  0.1305806E+00
         -4   -1    0    0    0  501 -0.00000000000E+00  0.00000000000E+00  0.38168135662E+02  0.38168135662E+02  0.00000000000E+00 0.  1.
          4   -1    0    0  501    0  0.00000000000E+00 -0.00000000000E+00 -0.30572808759E+03  0.30572808759E+03  0.00000000000E+00 0. -1.
         25    2    1    2    0    0 -0.48959065631E+01 -0.37502934955E+01 -0.14943390595E+03  0.19497495146E+03  0.12508678926E+03 0.  0.
          5    1    3    3  502    0 -0.24849619632E+02  0.37277830963E+02 -0.72295612972E+01  0.45572790497E+02  0.41800000000E+01 0.  1.
         -5    1    3    3    0  502  0.19953713069E+02 -0.41028124459E+02 -0.14220434466E+03  0.14940216096E+03  0.41800000000E+01 0.  1.
        -11    1    1    2    0    0  0.22084387945E+02  0.40540378593E+02 -0.40932395768E+02  0.61698488723E+02  0.00000000000E+00 0.  1.
         11    1    1    2    0    0 -0.17188481382E+02 -0.36790085098E+02 -0.77193650208E+02  0.87222783068E+02  0.00000000000E+00 0. -1.
</event>
<event>
 7    1  0.2820496E-009  0.8827313E+02  0.7561462E-02  0.1307088E+00
         -1   -1    0    0    0  501 -0.00000000000E+00  0.00000000000E+00  0.22609482891E+02  0.22609482891E+02  0.00000000000E+00 0.  1.
          1   -1    0    0  501    0  0.00000000000E+00 -0.00000000000E+00 -0.58299919875E+03  0.58299919875E+03  0.00000000000E+00 0. -1.
         25    2    1    2    0    0 -0.38410162420E+01 -0.22478745729E+02 -0.36978317892E+03  0.39103484725E+03  0.12509438411E+03 0.  0.
          5    1    3    3  502    0 -0.26521607209E+02 -0.59970041874E+02 -0.30946694215E+03  0.31636539358E+03  0.41800000000E+01 0. -1.
         -5    1    3    3    0  502  0.22680590967E+02  0.37491296144E+02 -0.60316236769E+02  0.74669453669E+02  0.41800000000E+01 0. -1.
        -11    1    1    2    0    0 -0.17715799469E+02 -0.15246804229E+02 -0.49384294549E+01  0.23889384159E+02  0.00000000000E+00 0.  1.
         11    1    1    2    0    0  0.21556815711E+02  0.37725549958E+02 -0.18566810749E+03  0.19068445023E+03  0.00000000000E+00 0. -1.
</event>
<event>
 7    1  0.2820496E-009  0.2940666E+03  0.7561462E-02  0.1088245E+00
         -2   -1    0    0    0  501 -0.00000000000E+00  0.00000000000E+00  0.31045785643E+03  0.31045785643E+03  0.00000000000E+00 0.  1.
          2   -1    0    0  501    0  0.00000000000E+00 -0.00000000000E+00 -0.34205265467E+03  0.34205265467E+03  0.00000000000E+00 0. -1.
         25    2    1    2    0    0  0.18654789919E+01  0.27996046182E+03 -0.14062910444E+03  0.33735046809E+03  0.12508978021E+03 0.  0.
          5    1    3    3  502    0 -0.56139818687E+02  0.13149436094E+03 -0.38974966694E+02  0.14825304931E+03  0.41800000000E+01 0. -1.
         -5    1    3    3    0  502  0.58005297679E+02  0.14846610087E+03 -0.10165413775E+03  0.18909741878E+03  0.41800000000E+01 0. -1.
        -11    1    1    2    0    0 -0.29035735485E+02 -0.16342047887E+03  0.10300231392E+03  0.19534278466E+03  0.00000000000E+00 0.  1.
         11    1    1    2    0    0  0.27170256493E+02 -0.11653998295E+03  0.60319922893E+01  0.11981725834E+03  0.00000000000E+00 0. -1.
</event>
<event>
 7    1  0.2820496E-009  0.1089216E+03  0.7561462E-02  0.1262580E+00
          1   -1    0    0  501    0  0.00000000000E+00  0.00000000000E+00  0.52731847081E+03  0.52731847081E+03  0.00000000000E+00 0. -1.
         -1   -1    0    0    0  501 -0.00000000000E+00 -0.00000000000E+00 -0.38755083053E+02  0.38755083053E+02  0.00000000000E+00 0.  1.
         25    2    1    2    0    0  0.47099731448E+02 -0.28690632899E+02  0.41424357580E+03  0.43621896449E+03  0.12509079810E+03 0.  0.
          5    1    3    3  502    0  0.46260590189E+02  0.43933864172E+02  0.19784522018E+03  0.20791928764E+03  0.41800000000E+01 0.  1.
         -5    1    3    3    0  502  0.83914125943E+00 -0.72624497071E+02  0.21639835562E+03  0.22829967685E+03  0.41800000000E+01 0.  1.
        -11    1    1    2    0    0 -0.40193117331E+01  0.37056038814E+02 -0.65501268994E+01  0.37844537806E+02  0.00000000000E+00 0.  1.
         11    1    1    2    0    0 -0.43080419715E+02 -0.83654059146E+01  0.80869938851E+02  0.92010051564E+02  0.00000000000E+00 0. -1.
</event>
<event>
 7    1  0.2820496E-009  0.1116876E+03  0.7561462E-02  0.1257476E+00
         -2   -1    0    0    0  501 -0.00000000000E+00  0.00000000000E+00  0.86549985124E+02  0.86549985124E+02  0.00000000000E+00 0. -1.
          2   -1    0    0  501    0  0.00000000000E+00 -0.00000000000E+00 -0.16070194081E+03  0.16070194081E+03  0.00000000000E+00 0.  1.
         25    2    1    2    0    0  0.20317440770E+01  0.39389575527E+02 -0.60330448328E+02  0.14437160819E+03  0.12509089340E+03 0.  0.
          5    1    3    3  502    0  0.55674115387E+02  0.39693456999E+02 -0.74106729117E+01  0.68902598831E+02  0.41800000000E+01 0. -1.
         -5    1    3    3    0  502 -0.53642371310E+02 -0.30388147181E+00 -0.52919775416E+02  0.75469009361E+02  0.41800000000E+01 0. -1.
        -11    1    1    2    0    0  0.44546288978E+02 -0.89854814910E+01 -0.12941487533E+02  0.47250321046E+02  0.00000000000E+00 0.  1.
         11    1    1    2    0    0 -0.46578033055E+02 -0.30404094036E+02 -0.88001982440E+00  0.55629996696E+02  0.00000000000E+00 0. -1.
</event>
<event>
 7    1  0.2820496E-009  0.2080545E+03  0.7561462E-02  0.1143116E+00
         -1   -1    0    0    0  501 -0.00000000000E+00  0.00000000000E+00  0.51068984906E+03  0.51068984906E+03  0.00000000000E+00 0.  1.
          1   -1    0    0  501    0  0.00000000000E+00 -0.00000000000E+00 -0.12868148018E+03  0.12868148018E+03  0.00000000000E+00 0. -1.
         25    2    1    2    0    0  0.16693435660E+03  0.11442507111E+03  0.59623416187E+02  0.24527866728E+03  0.12508595666E+03 0.  0.
          5    1    3    3  502    0  0.15272601996E+03  0.10209569063E+03  0.12007977796E+01  0.18375984744E+03  0.41800000000E+01 0. -1.
         -5    1    3    3    0  502  0.14208336642E+02  0.12329380488E+02  0.58422618408E+02  0.61518819844E+02  0.41800000000E+01 0. -1.
        -11    1    1    2    0    0 -0.41129141585E+02 -0.67036285289E+02  0.58778100208E+02  0.98185207119E+02  0.00000000000E+00 0. -1.
         11    1    1    2    0    0 -0.12580521501E+03 -0.47388785825E+02  0.26360685249E+03  0.29590745483E+03  0.00000000000E+00 0.  1.
</event>
<event>
 7    1  0.2820496E-009  0.1284887E+03  0.7561462E-02  0.1229716E+00
          1   -1    0    0  501    0  0.00000000000E+00  0.00000000000E+00  0.10431307126E+03  0.10431307126E+03  0.00000000000E+00 0. -1.
         -1   -1    0    0    0  501 -0.00000000000E+00 -0.00000000000E+00 -0.28577742882E+03  0.28577742882E+03  0.00000000000E+00 0.  1.
         25    2    1    2    0    0 -0.11416375254E+02 -0.75981440543E+02  0.27666015112E+02  0.14938766990E+03  0.12509098526E+03 0.  0.
          5    1    3    3  502    0 -0.56782501786E+02 -0.90780512465E+01  0.36072825211E+02  0.68010180431E+02  0.41800000000E+01 0. -1.
         -5    1    3    3    0  502  0.45366126531E+02 -0.66903389296E+02 -0.84068100993E+01  0.81377489466E+02  0.41800000000E+01 0. -1.
        -11    1    1    2    0    0  0.98591523428E+01  0.96901609466E+02 -0.18181419805E+03  0.20626082375E+03  0.00000000000E+00 0. -1.
         11    1    1    2    0    0  0.15572229116E+01 -0.20920168923E+02 -0.27316174624E+02  0.34442006432E+02  0.00000000000E+00 0.  1.
</event>
<event>
 7    1  0.3238837E-009  0.9664640E+02  0.7561462E-02  0.1287510E+00
          2   -1    0    0  501    0  0.00000000000E+00  0.00000000000E+00  0.49784199973E+03  0.49784199973E+03  0.00000000000E+00 0. -1.
         -2   -1    0    0    0  501 -0.00000000000E+00 -0.00000000000E+00 -0.33127146696E+02  0.33127146696E+02  0.00000000000E+00 0.  1.
         25    2    1    2    0    0 -0.10296176313E+02 -0.21567748697E+02  0.12545965121E+03  0.17877167060E+03  0.12509199454E+03 0.  0.
          5    1    3    3  502    0 -0.13864226048E+02  0.38895032712E+02  0.10784579955E+03  0.11555617341E+03  0.41800000000E+01 0.  1.
         -5    1    3    3    0  502  0.35680497351E+01 -0.60462781409E+02  0.17613851662E+02  0.63215497190E+02  0.41800000000E+01 0.  1.
        -11    1    1    2    0    0 -0.30688756009E+02 -0.16757002189E+02  0.86725816144E+02  0.93509165613E+02  0.00000000000E+00 0.  1.
         11    1    1    2    0    0  0.40984932322E+02  0.38324750886E+02  0.25252938568E+03  0.25868831021E+03  0.00000000000E+00 0. -1.
</event>
<event>
 7    1  0.2820496E-009  0.1147019E+03  0.7561462E-02  0.1252102E+00
          1   -1    0    0  501    0  0.00000000000E+00  0.00000000000E+00  0.16000013671E+03  0.16000013671E+03  0.00000000000E+00 0. -1.
         -1   -1    0    0    0  501 -0.00000000000E+00 -0.00000000000E+00 -0.85381002237E+02  0.85381002237E+02  0.00000000000E+00 0.  1.
         25    2    1    2    0    0 -0.12545642621E+02  0.37565810824E+02  0.60952137626E+02  0.14467345468E+03  0.12508661845E+03 0.  0.
          5    1    3    3  502    0 -0.60080839511E+02 -0.11432574181E+02  0.17920276243E+02  0.63867203864E+02  0.41800000000E+01 0.  1.
         -5    1    3    3    0  502  0.47535196890E+02  0.48998385004E+02  0.43031861383E+02  0.80806250813E+02  0.41800000000E+01 0.  1.
        -11    1    1    2    0    0  0.22145604457E+02  0.26722312829E+02  0.29759376251E+01  0.34833403572E+02  0.00000000000E+00 0.  1.
         11    1    1    2    0    0 -0.95999618355E+01 -0.64288123652E+02  0.10691059220E+02  0.65874280696E+02  0.00000000000E+00 0. -1.
</event>
<event>
 7    1  0.2820496E-009  0.1124329E+03  0.7561462E-02  0.1256130E+00
          1   -1    0    0  501    0  0.00000000000E+00  0.00000000000E+00  0.20672088140E+03  0.20672088140E+03  0.00000000000E+00 0. -1.
         -1   -1    0    0    0  501 -0.00000000000E+00 -0.00000000000E+00 -0.95241549567E+02  0.95241549567E+02  0.00000000000E+00 0.  1.
         25    2    1    2    0    0  0.77795174413E+02 -0.41249397980E+02  0.46102521263E+02  0.15977163713E+03  0.12509169265E+03 0.  0.
          5    1    3    3  502    0  0.86218996950E+02 -0.37166269396E+02  0.80583323955E+02  0.12379899642E+03  0.41800000000E+01 0.  1.
         -5    1    3    3    0  502 -0.84238225374E+01 -0.40831285840E+01 -0.34480802692E+02  0.35972640707E+02  0.41800000000E+01 0.  1.
        -11    1    1    2    0    0  0.16420374381E+02  0.16371791060E+02 -0.26668558279E+01  0.23340444669E+02  0.00000000000E+00 0.  1.
         11    1    1    2    0    0 -0.94215548794E+02  0.24877606920E+02  0.68043666402E+02  0.11885034917E+03  0.00000000000E+00 0. -1.
</event>
<event>
 7    1  0.2820496E-009  0.1436035E+03  0.7561462E-02  0.1208561E+00
         -2   -1    0    0    0  501 -0.00000000000E+00  0.00000000000E+00  0.24364479536E+03  0.24364479536E+03  0.00000000000E+00 0.  1.
          2   -1    0    0  501    0  0.00000000000E+00 -0.00000000000E+00 -0.12248852500E+03  0.12248852500E+03  0.00000000000E+00 0. -1.
         25    2    1    2    0    0 -0.94943668174E+02 -0.81448936078E+02  0.11051420593E+02  0.17725215495E+03  0.12509181916E+03 0.  0.
          5    1    3    3  502    0 -0.71796482931E+02 -0.83410398883E+02  0.58170088142E+02  0.12455224268E+03  0.41800000000E+01 0. -1.
         -5    1    3    3    0  502 -0.23147185243E+02  0.19614628052E+01 -0.47118667549E+02  0.52699912264E+02  0.41800000000E+01 0. -1.
        -11    1    1    2    0    0  0.69071746831E+02  0.11237210044E+01  0.49468509754E+02  0.84966478193E+02  0.00000000000E+00 0.  1.
         11    1    1    2    0    0  0.25871921343E+02  0.80325215074E+02  0.60636340017E+02  0.10391468723E+03  0.00000000000E+00 0. -1.
</event>
<event>
 7    1  0.2820496E-009  0.1011256E+03  0.7561462E-02  0.1277947E+00
          4   -1    0    0  501    0  0.00000000000E+00  0.00000000000E+00  0.81895103114E+02  0.81895103114E+02  0.00000000000E+00 0. -1.
         -4   -1    0    0    0  501 -0.00000000000E+00 -0.00000000000E+00 -0.15161015819E+03  0.15161015819E+03  0.00000000000E+00 0.  1.
         25    2    1    2    0    0  0.57392816811E+01 -0.23297137277E+02 -0.47381241353E+02  0.13590032058E+03  0.12509284209E+03 0.  0.
          5    1    3    3  502    0  0.38056391807E+02  0.38048845189E+02 -0.42684497168E+01  0.54145134967E+02  0.41800000000E+01 0.  1.
         -5    1    3    3    0  502 -0.32317110126E+02 -0.61345982466E+02 -0.43112791636E+02  0.81755185611E+02  0.41800000000E+01 0.  1.
        -11    1    1    2    0    0 -0.11219958697E+02  0.50157526377E+02 -0.39881980467E+02  0.65055647652E+02  0.00000000000E+00 0.  1.
         11    1    1    2    0    0  0.54806770163E+01 -0.26860389100E+02  0.17548166748E+02  0.32549293071E+02  0.00000000000E+00 0. -1.
</event>
<event>
 7    1  0.2820496E-009  0.4477391E+02  0.7561462E-02  0.1475758E+00
         -2   -1    0    0    0  501 -0.00000000000E+00  0.00000000000E+00  0.80759454047E+02  0.80759454047E+02  0.00000000000E+00 0.  1.
          2   -1    0    0  501    0  0.00000000000E+00 -0.00000000000E+00 -0.15837224087E+03  0.15837224087E+03  0.00000000000E+00 0. -1.
         25    2    1    2    0    0  0.15767861735E+01 -0.14757564063E+02 -0.36771252670E+02  0.13122680813E+03  0.12509227873E+03 0.  0.
          5    1    3    3  502    0  0.40429000703E+01  0.13632991904E+02 -0.78852078092E+02  0.80232949146E+02  0.41800000000E+01 0.  1.
         -5    1    3    3    0  502 -0.24661138969E+01 -0.28390555967E+02  0.42080825422E+02  0.50993858984E+02  0.41800000000E+01 0.  1.
        -11    1    1    2    0    0 -0.21256406965E+02  0.15375967317E+02  0.26771766130E+02  0.37483098454E+02  0.00000000000E+00 0.  1.
         11    1    1    2    0    0  0.19679620791E+02 -0.61840325458E+00 -0.67613300277E+02  0.70421788329E+02  0.00000000000E+00 0. -1.
</event>
<event>
 7    1  0.3416350E-009  0.1001339E+03  0.7561462E-02  0.1280015E+00
         -1   -1    0    0    0  501 -0.00000000000E+00  0.00000000000E+00  0.35216469205E+02  0.35216469205E+02  0.00000000000E+00 0.  1.
          1   -1    0    0  501    0  0.00000000000E+00 -0.00000000000E+00 -0.50277211009E+03  0.50277211009E+03  0.00000000000E+00 0. -1.
         25    2    1    2    0    0  0.50994391346E+02  0.37803453026E+02 -0.34310238279E+03  0.37067019155E+03  0.12509043458E+03 0.  0.
          5    1    3    3  502    0 -0.16590565316E+02  0.62150983927E+02 -0.20572033454E+03  0.21558367309E+03  0.41800000000E+01 0. -1.
         -5    1    3    3    0  502  0.67584956663E+02 -0.24347530900E+02 -0.13738204825E+03  0.15508651847E+03  0.41800000000E+01 0. -1.
        -11    1    1    2    0    0 -0.35315471331E+02 -0.22125501144E+02 -0.78831566361E+00  0.41681431811E+02  0.00000000000E+00 0.  1.
         11    1    1    2    0    0 -0.15678920015E+02 -0.15677951883E+02 -0.12366494243E+03  0.12563695593E+03  0.00000000000E+00 0. -1.
</event>
<event>
 7    1  0.2820496E-009  0.1045943E+03  0.7561462E-02  0.1270921E+00
          3   -1    0    0  501    0  0.00000000000E+00  0.00000000000E+00  0.63379660447E+02  0.63379660447E+02  0.00000000000E+00 0. -1.
         -3   -1    0    0    0  501 -0.00000000000E+00 -0.00000000000E+00 -0.19400198086E+03  0.19400198086E+03  0.00000000000E+00 0.  1.
         25    2    1    2    0    0 -0.52255100032E+01 -0.12798879187E+02 -0.55606900122E+02  0.13758814294E+03  0.12508897823E+03 0.  0.
          5    1    3    3  502    0 -0.17617949099E+02 -0.66424355658E+02 -0.19234203431E+02  0.71484362882E+02  0.41800000000E+01 0.  1.
         -5    1    3    3    0  502  0.12392439096E+02  0.53625476471E+02 -0.36372696691E+02  0.66103780059E+02  0.41800000000E+01 0.  1.
        -11    1    1    2    0    0 -0.24604651642E+02 -0.26266843953E+02 -0.83151546517E+01  0.36938838240E+02  0.00000000000E+00 0. -1.
         11    1    1    2    0    0  0.29830161645E+02  0.39065723140E+02 -0.66700265639E+02  0.82854660125E+02  0.00000000000E+00 0.  1.
</event>
<event>
 7    1  0.2820496E-009  0.7160107E+02  0.7561462E-02  0.1354732E+00
         -1   -1    0    0    0  501 -0.00000000000E+00  0.00000000000E+00  0.16746880460E+03  0.16746880460E+03  0.00000000000E+00 0.  1.
          1   -1    0    0  501    0  0.00000000000E+00 -0.00000000000E+00 -0.88814653810E+02  0.88814653810E+02  0.00000000000E+00 0. -1.
         25    2    1    2    0    0 -0.14619642590E+01  0.44799763898E+02  0.11113135380E+02  0.13334265000E+03  0.12509038471E+03 0.  0.
          5    1    3    3  502    0 -0.11158810620E+02 -0.86092083635E+01  0.59019886167E+02  0.60823160772E+02  0.41800000000E+01 0.  1.
         -5    1    3    3    0  502  0.96968463607E+01  0.53408972262E+02 -0.47906750787E+02  0.72519489231E+02  0.41800000000E+01 0.  1.
        -11    1    1    2    0    0  0.30075367006E+02 -0.26574449442E+02  0.77763479188E+02  0.87509358123E+02  0.00000000000E+00 0.  1.
         11    1    1    2    0    0 -0.28613402747E+02 -0.18225314456E+02 -0.10222463776E+02  0.35431450287E+02  0.00000000000E+00 0. -1.
</event>
<event>
 7    1  0.2902758E-009  0.1195106E+03  0.7561462E-02  0.1243907E+00
         -2   -1    0    0    0  501 -0.00000000000E+00  0.00000000000E+00  0.36432700790E+02  0.36432700790E+02  0.00000000000E+00 0.  1.
          2   -1    0    0  501    0  0.00000000000E+00 -0.00000000000E+00 -0.40985917105E+03  0.40985917105E+03  0.00000000000E+00 0. -1.
         25    2    1    2    0    0 -0.50849659628E+02  0.45210740475E+01 -0.25225288097E+03  0.28615226933E+03  0.12508188235E+03 0.  0.
          5    1    3    3  502    0  0.13713395271E+01  0.59097982988E+02 -0.11828662516E+03  0.13230136151E+03  0.41800000000E+01 0. -1.
         -5    1    3    3    0  502 -0.52220999155E+02 -0.54576908940E+02 -0.13396625581E+03  0.15385090782E+03  0.41800000000E+01 0. -1.
        -11    1    1    2    0    0  0.22642394274E+01  0.38888958881E+02 -0.53727327919E+02  0.66363421162E+02  0.00000000000E+00 0. -1.
         11    1    1    2    0    0  0.48585420200E+02 -0.43410032929E+02 -0.67446261369E+02  0.93776181344E+02  0.00000000000E+00 0.  1.
</event>
<event>
 7    1  0.2820496E-009  0.1217569E+03  0.7561462E-02  0.1240227E+00
         -2   -1    0    0    0  501 -0.00000000000E+00  0.00000000000E+00  0.34966362964E+02  0.34966362964E+02  0.00000000000E+00 0.  1.
          2   -1    0    0  501    0  0.00000000000E+00 -0.00000000000E+00 -0.62716150101E+03  0.62716150101E+03  0.00000000000E+00 0. -1.
         25    2    1    2    0    0 -0.54500441444E+02 -0.43133647865E+02 -0.48607491447E+03  0.50670158115E+03  0.12508741013E+03 0.  0.
          5    1    3    3  502    0 -0.16827520384E+02  0.39072131129E+02 -0.80483717314E+02  0.91131213236E+02  0.41800000000E+01 0.  1.
         -5    1    3    3    0  502 -0.37672921060E+02 -0.82205778994E+02 -0.40559119715E+03  0.41557036791E+03  0.41800000000E+01 0.  1.
        -11    1    1    2    0    0 -0.83470044371E+01  0.46560589122E+02 -0.27501235243E+02  0.54716349315E+02  0.00000000000E+00 0.  1.
         11    1    1    2    0    0  0.62847445881E+02 -0.34269412576E+01 -0.78618988342E+02  0.10070993351E+03  0.00000000000E+00 0. -1.
</event>
<event>
 7    1  0.2820496E-009  0.8914085E+02  0.7561462E-02  0.1304946E+00
          3   -1    0    0  501    0  0.00000000000E+00  0.00000000000E+00  0.41088826131E+03  0.41088826131E+03  0.00000000000E+00 0. -1.
         -3   -1    0    0    0  501 -0.00000000000E+00 -0.00000000000E+00 -0.37992696285E+02  0.37992696285E+02  0.00000000000E+00 0.  1.
         25    2    1    2    0    0  0.57561170196E+02  0.13410477498E+02  0.22913691028E+03  0.26766463836E+03  0.12508999063E+03 0.  0.
          5    1    3    3  502    0  0.54907727825E+02 -0.31606116604E+02  0.20839510807E+03  0.21785269943E+03  0.41800000000E+01 0.  1.
         -5    1    3    3    0  502  0.26534423709E+01  0.45016594102E+02  0.20741802209E+02  0.49811938929E+02  0.41800000000E+01 0.  1.
        -11    1    1    2    0    0 -0.28160642484E+02  0.12029348111E+02  0.13866389477E+03  0.14200493905E+03  0.00000000000E+00 0. -1.
         11    1    1    2    0    0 -0.29400527711E+02 -0.25439825609E+02  0.50947599710E+01  0.39211380183E+02  0.00000000000E+00 0.  1.
</event>
<event>
 7    1  0.2820496E-009  0.1235928E+03  0.7561462E-02  0.1237285E+00
         -2   -1    0    0    0  501 -0.00000000000E+00  0.00000000000E+00  0.54750769191E+02  0.54750769191E+02  0.00000000000E+00 0.  1.
          2   -1    0    0  501    0  0.00000000000E+00 -0.00000000000E+00 -0.29937103896E+03  0.29937103896E+03  0.00000000000E+00 0. -1.
         25    2    1    2    0    0 -0.32911082767E+01  0.54577067597E+02 -0.15538045867E+03  0.20683410263E+03  0.12509105234E+03 0.  0.
          5    1    3    3  502    0  0.53702999159E+02  0.48629895826E+02 -0.54561780173E+02  0.90792836405E+02  0.41800000000E+01 0.  1.
         -5    1    3    3    0  502 -0.56994107436E+02  0.59471717710E+01 -0.10081867849E+03  0.11604126623E+03  0.41800000000E+01 0.  1.
        -11    1    1    2    0    0  0.39567823404E+02 -0.67839340868E+02 -0.58725663721E+02  0.98063716010E+02  0.00000000000E+00 0. -1.
         11    1    1    2    0    0 -0.36276715127E+02  0.13262273270E+02 -0.30514147383E+02  0.49223989509E+02  0.00000000000E+00 0.  1.
</event>
<event>
 7    1  0.2820496E-009  0.1324558E+03  0.7561462E-02  0.1223857E+00
          2   -1    0    0  501    0  0.00000000000E+00  0.00000000000E+00  0.84442787041E+03  0.84442787041E+03  0.00000000000E+00 0. -1.
         -2   -1    0    0    0  501 -0.00000000000E+00 -0.00000000000E+00 -0.25246286360E+02  0.25246286360E+02  0.00000000000E+00 0.  1.
         25    2    1    2    0    0  0.68115509502E+02  0.47563571910E+02  0.59478325499E+03  0.61344655943E+03  0.12509014692E+03 0.  0.
          5    1    3    3  502    0 -0.57703126307E+01  0.70382217768E+02  0.33390599168E+03  0.34131750141E+03  0.41800000000E+01 0.  1.
         -5    1    3    3    0  502  0.73885822132E+02 -0.22818645859E+02  0.26087726330E+03  0.27212905802E+03  0.41800000000E+01 0.  1.
        -11    1    1    2    0    0 -0.76352605355E+02 -0.85221513576E+01  0.10338143911E+03  0.12880244314E+03  0.00000000000E+00 0.  1.
         11    1    1    2    0    0  0.82370958530E+01 -0.39041420552E+02  0.12101688995E+03  0.12742515419E+03  0.00000000000E+00 0. -1.
</event>
<event>
 7    1  0.2820496E-009  0.1710400E+03  0.7561462E-02  0.1176768E+00
         -1   -1    0    0    0  501 -0.00000000000E+00  0.00000000000E+00  0.92335980474E+03  0.92335980474E+03  0.00000000000E+00 0.  1.
          1   -1    0    0  501    0  0.00000000000E+00 -0.00000000000E+00 -0.35974285544E+02  0.35974285544E+02  0.00000000000E+00 0. -1.
         25    2    1    2    0    0  0.50857920015E+02  0.13560976260E+03  0.51465068821E+03  0.54908002390E+03  0.12508799312E+03 0.  0.
          5    1    3    3  502    0  0.22553797078E+02 -0.20424156212E+02  0.57515465256E+02  0.65202155357E+02  0.41800000000E+01 0. -1.
         -5    1    3    3    0  502  0.28304122938E+02  0.15603391881E+03  0.45713522296E+03  0.48387786854E+03  0.41800000000E+01 0. -1.
        -11    1    1    2    0    0 -0.19357416758E+02 -0.11122169199E+03  0.17294231721E+03  0.20652849546E+03  0.00000000000E+00 0. -1.
         11    1    1    2    0    0 -0.31500503258E+02 -0.24388070607E+02  0.19979251377E+03  0.20372557093E+03  0.00000000000E+00 0.  1.
</event>
<event>
 7    1  0.2974461E-009  0.1116109E+03  0.7561462E-02  0.1257616E+00
         -3   -1    0    0    0  501 -0.00000000000E+00  0.00000000000E+00  0.69784792748E+02  0.69784792748E+02  0.00000000000E+00 0.  1.
          3   -1    0    0  501    0  0.00000000000E+00 -0.00000000000E+00 -0.23432105735E+03  0.23432105735E+03  0.00000000000E+00 0. -1.
         25    2    1    2    0    0 -0.91451084923E+01 -0.61063608820E+02 -0.12519887533E+03  0.18744692571E+03  0.12509673953E+03 0.  0.
          5    1    3    3  502    0  0.16741620203E+02  0.35337004661E+02 -0.30157811706E+02  0.49557559992E+02  0.41800000000E+01 0. -1.
         -5    1    3    3    0  502 -0.25886728695E+02 -0.96400613480E+02 -0.95041063626E+02  0.13788936571E+03  0.41800000000E+01 0. -1.
        -11    1    1    2    0    0 -0.24153937318E+02  0.29323597594E+02  0.18909585654E+02  0.42436523108E+02  0.00000000000E+00 0.  1.
         11    1    1    2    0    0  0.33299045811E+02  0.31740011225E+02 -0.58246974920E+02  0.74222401280E+02  0.00000000000E+00 0. -1.
</event>
<event>
 7    1  0.2820496E-009  0.1092040E+03  0.7561462E-02  0.1262051E+00
         -1   -1    0    0    0  501 -0.00000000000E+00  0.00000000000E+00  0.72510319074E+02  0.72510319074E+02  0.00000000000E+00 0.  1.
          1   -1    0    0  501    0  0.00000000000E+00 -0.00000000000E+00 -0.52427203166E+03  0.52427203166E+03  0.00000000000E+00 0. -1.
         25    2    1    2    0    0  0.40126027460E+02  0.59966431582E+02 -0.45705146833E+03  0.47932250282E+03  0.12509175036E+03 0.  0.
          5    1    3    3  502    0  0.35317687728E+02 -0.53748189509E+01 -0.36211648105E+03  0.36389840064E+03  0.41800000000E+01 0. -1.
         -5    1    3    3    0  502  0.48083397323E+01  0.65341250532E+02 -0.94934987286E+02  0.11542410218E+03  0.41800000000E+01 0. -1.
        -11    1    1    2    0    0 -0.40280382910E+01 -0.76837367866E+02  0.88748904383E+01  0.77453017199E+02  0.00000000000E+00 0.  1.
         11    1    1    2    0    0 -0.36097989169E+02  0.16870936284E+02 -0.35851346923E+01  0.40006830716E+02  0.00000000000E+00 0. -1.
</event>
<event>
 7    1  0.2820496E-009  0.1046848E+03  0.7561462E-02  0.1270742E+00
          2   -1    0    0  501    0  0.00000000000E+00  0.00000000000E+00  0.34377441283E+03  0.34377441283E+03  0.00000000000E+00 0.  1.
         -2   -1    0    0    0  501 -0.00000000000E+00 -0.00000000000E+00 -0.37376250183E+02  0.37376250183E+02  0.00000000000E+00 0. -1.
         25    2    1    2    0    0  0.74782590838E+01  0.29985059593E+02  0.14664297404E+03  0.19518906390E+03  0.12505830909E+03 0.  0.
          5    1    3    3  502    0 -0.28937967219E+02  0.68404059401E+02  0.99105041046E+02  0.12391853312E+03  0.41800000000E+01 0. -1.
         -5    1    3    3    0  502  0.36416226303E+02 -0.38418999808E+02  0.47537932995E+02  0.71270530781E+02  0.41800000000E+01 0. -1.
        -11    1    1    2    0    0  0.14108501046E+02 -0.50296776726E+02  0.50131821138E+02  0.72401761314E+02  0.00000000000E+00 0. -1.
         11    1    1    2    0    0 -0.21586760130E+02  0.20311717133E+02  0.10962336747E+03  0.11355983780E+03  0.00000000000E+00 0.  1.
</event>
<event>
 7    1  0.2820496E-009  0.1493685E+03  0.7561462E-02  0.1201251E+00
         -2   -1    0    0    0  501 -0.00000000000E+00  0.00000000000E+00  0.10091421694E+03  0.10091421694E+03  0.00000000000E+00 0.  1.
          2   -1    0    0  501    0  0.00000000000E+00 -0.00000000000E+00 -0.27094003563E+03  0.27094003563E+03  0.00000000000E+00 0. -1.
         25    2    1    2    0    0  0.12479009491E+03 -0.26258675411E+02 -0.45645660779E+02  0.18437759220E+03  0.12509789900E+03 0.  0.
          5    1    3    3  502    0  0.14527486630E+03 -0.13568679600E+02 -0.57889375916E+02  0.15702722085E+03  0.41800000000E+01 0.  1.
         -5    1    3    3    0  502 -0.20484771389E+02 -0.12689995811E+02  0.12243715136E+02  0.27350371348E+02  0.41800000000E+01 0.  1.
        -11    1    1    2    0    0 -0.99676194100E+02  0.26718722984E+02 -0.62385652261E+02  0.12058691238E+03  0.00000000000E+00 0.  1.
         11    1    1    2    0    0 -0.25113900808E+02 -0.46004757275E+00 -0.61994505644E+02  0.66889748001E+02  0.00000000000E+00 0. -1.
</event>
<event>
 7    1  0.2820496E-009  0.6569625E+02  0.7561462E-02  0.1375371E+00
         -1   -1    0    0    0  501 -0.00000000000E+00  0.00000000000E+00  0.18905021508E+03  0.18905021508E+03  0.00000000000E+00 0.  1.
          1   -1    0    0  501    0  0.00000000000E+00 -0.00000000000E+00 -0.67489056841E+02  0.67489056841E+02  0.00000000000E+00 0. -1.
         25    2    1    2    0    0 -0.33953501093E+02  0.25091380840E+01  0.81223105201E+02  0.15297996951E+03  0.12508613929E+03 0.  0.
          5    1    3    3  502    0 -0.23774385768E+02  0.56513407396E+01  0.11483119614E+03  0.11747695551E+03  0.41800000000E+01 0.  1.
         -5    1    3    3    0  502 -0.10179115325E+02 -0.31422026557E+01 -0.33608090935E+02  0.35503013994E+02  0.41800000000E+01 0.  1.
        -11    1    1    2    0    0  0.21583992724E+02 -0.45533291993E+02  0.17821285690E+02  0.53448551386E+02  0.00000000000E+00 0. -1.
         11    1    1    2    0    0  0.12369508369E+02  0.43024153909E+02  0.22516767353E+02  0.50110751031E+02  0.00000000000E+00 0.  1.
</event>
<event>
 7    1  0.2820496E-009  0.1239421E+03  0.7561462E-02  0.1236732E+00
         -1   -1    0    0    0  501 -0.00000000000E+00  0.00000000000E+00  0.40623234637E+03  0.40623234637E+03  0.00000000000E+00 0.  1.
          1   -1    0    0  501    0  0.00000000000E+00 -0.00000000000E+00 -0.50862992720E+02  0.50862992720E+02  0.00000000000E+00 0. -1.
         25    2    1    2    0    0 -0.90548528100E+02 -0.12533279473E+02  0.22531839451E+03  0.27344307871E+03  0.12508644753E+03 0.  0.
          5    1    3    3  502    0 -0.10544463396E+03  0.29685867851E+02  0.15134628080E+03  0.18687693997E+03  0.41800000000E+01 0.  1.
         -5    1    3    3    0  502  0.14896105857E+02 -0.42219147323E+02  0.73972113713E+02  0.86566138747E+02  0.41800000000E+01 0.  1.
        -11    1    1    2    0    0  0.18816745087E+02 -0.49650883240E+01  0.10330506267E+03  0.10512210981E+03  0.00000000000E+00 0.  1.
         11    1    1    2    0    0  0.71731783013E+02  0.17498367797E+02  0.26745896471E+02  0.78530150565E+02  0.00000000000E+00 0. -1.
</event>
<event>
 7    1  0.2820496E-009  0.1066937E+03  0.7561462E-02  0.1266818E+00
          1   -1    0    0  501    0  0.00000000000E+00  0.00000000000E+00  0.24326657178E+02  0.24326657178E+02  0.00000000000E+00 0. -1.
         -1   -1    0    0    0  501 -0.00000000000E+00 -0.00000000000E+00 -0.69809603784E+03  0.69809603784E+03  0.00000000000E+00 0.  1.
         25    2    1    2    0    0  0.30387230653E+02  0.26407931761E+02 -0.54109155431E+03  0.55682050963E+03  0.12509295407E+03 0.  0.
          5    1    3    3  502    0  0.30750996539E+02 -0.38905468063E+02 -0.10929593612E+03  0.12009301930E+03  0.41800000000E+01 0. -1.
         -5    1    3    3    0  502 -0.36376588564E+00  0.65313399824E+02 -0.43179561819E+03  0.43672749033E+03  0.41800000000E+01 0. -1.
        -11    1    1    2    0    0 -0.56665679661E+02  0.53898254890E+01 -0.65575283113E+02  0.86834136292E+02  0.00000000000E+00 0. -1.
         11    1    1    2    0    0  0.26278449008E+02 -0.31797757250E+02 -0.67102543239E+02  0.78768049090E+02  0.00000000000E+00 0.  1.
</event>
<event>
 7    1  0.2820496E-009  0.1127272E+03  0.7561462E-02  0.1255601E+00
          2   -1    0    0  501    0  0.00000000000E+00  0.00000000000E+00  0.10073628344E+04  0.10073628344E+04  0.00000000000E+00 0. -1.
         -2   -1    0    0    0  501 -0.00000000000E+00 -0.00000000000E+00 -0.15662955009E+02  0.15662955009E+02  0.00000000000E+00 0.  1.
         25    2    1    2    0    0  0.38601693313E+02  0.29917067107E+02  0.72811183880E+03  0.74039177251E+03  0.12509198761E+03 0.  0.
          5    1    3    3  502    0 -0.58403046572E+01  0.66120455593E+02  0.24478036888E+03  0.25365513043E+03  0.41800000000E+01 0. -1.
         -5    1    3    3    0  502  0.44441997970E+02 -0.36203388486E+02  0.48333146992E+03  0.48673664208E+03  0.41800000000E+01 0. -1.
        -11    1    1    2    0    0 -0.57367138309E+02 -0.48455575807E+02  0.20700301690E+03  0.22020258943E+03  0.00000000000E+00 0.  1.
         11    1    1    2    0    0  0.18765444996E+02  0.18538508700E+02  0.56585023700E+02  0.62431427486E+02  0.00000000000E+00 0. -1.
</event>
<event>
 7    1  0.2820496E-009  0.1094049E+03  0.7561462E-02  0.1261676E+00
          1   -1    0    0  501    0  0.00000000000E+00  0.00000000000E+00  0.61418883179E+02  0.61418883179E+02  0.00000000000E+00 0. -1.
         -1   -1    0    0    0  501 -0.00000000000E+00 -0.00000000000E+00 -0.28409088346E+03  0.28409088346E+03  0.00000000000E+00 0.  1.
         25    2    1    2    0    0  0.71345529027E+02  0.17004100644E+02 -0.13896322240E+03  0.20083970499E+03  0.12508591435E+03 0.  0.
          5    1    3    3  502    0 -0.35852364881E+02  0.87557914591E+01 -0.30481555935E+02  0.48048450587E+02  0.41800000000E+01 0. -1.
         -5    1    3    3    0  502  0.10719789391E+03  0.82483091845E+01 -0.10848166647E+03  0.15279125440E+03  0.41800000000E+01 0. -1.
        -11    1    1    2    0    0 -0.42200094606E+02 -0.47921146480E+01 -0.10034139254E+03  0.10895965953E+03  0.00000000000E+00 0.  1.
         11    1    1    2    0    0 -0.29145434420E+02 -0.12211985996E+02  0.16632614657E+02  0.35710402124E+02  0.00000000000E+00 0. -1.
</event>
<event>
 7    1  0.2820496E-009  0.1094430E+03  0.7561462E-02  0.1261605E+00
          2   -1    0    0  501    0  0.00000000000E+00  0.00000000000E+00  0.81763441694E+03  0.81763441694E+03  0.00000000000E+00 0. -1.
         -2   -1    0    0    0  501 -0.00000000000E+00 -0.00000000000E+00 -0.24737090942E+02  0.24737090942E+02  0.00000000000E+00 0.  1.
         25    2    1    2    0    0 -0.86222546115E+02 -0.26541056905E+02  0.44581105738E+03  0.47173368497E+03  0.12508563263E+03 0.  0.
          5    1    3    3  502    0  0.20398756669E+01 -0.26642518991E+01  0.29685298481E+03  0.29690137474E+03  0.41800000000E+01 0. -1.
         -5    1    3    3    0  502 -0.88262421782E+02 -0.23876805006E+02  0.14895807257E+03  0.17483231023E+03  0.41800000000E+01 0. -1.
        -11    1    1    2    0    0  0.77675417264E+02 -0.15404246685E+02  0.28062321793E+03  0.29158215258E+03  0.00000000000E+00 0.  1.
         11    1    1    2    0    0  0.85471288511E+01  0.41945303591E+02  0.66463050683E+02  0.79055670328E+02  0.00000000000E+00 0. -1.
</event>
<event>
 7    1  0.2820496E-009  0.1338982E+03  0.7561462E-02  0.1221784E+00
         -2   -1    0    0    0  501 -0.00000000000E+00  0.00000000000E+00  0.71489122335E+02  0.71489122335E+02  0.00000000000E+00 0. -1.
          2   -1    0    0  501    0  0.00000000000E+00 -0.00000000000E+00 -0.26599822370E+03  0.26599822370E+03  0.00000000000E+00 0.  1.
         25    2    1    2    0    0  0.50903436948E+02 -0.60808658541E+02 -0.14451306827E+03  0.20693208371E+03  0.12509199622E+03 0.  0.
          5    1    3    3  502    0 -0.90875030279E+01 -0.83291790969E+02 -0.83496855898E+02  0.11836089937E+03  0.41800000000E+01 0.  1.
         -5    1    3    3    0  502  0.59990939976E+02  0.22483132427E+02 -0.61016212373E+02  0.88571184340E+02  0.41800000000E+01 0.  1.
        -11    1    1    2    0    0 -0.47412794107E+02 -0.10292814617E+02 -0.28146484064E+02  0.56090459464E+02  0.00000000000E+00 0.  1.
         11    1    1    2    0    0 -0.34906428417E+01  0.71101473158E+02 -0.21849549028E+02  0.74464802863E+02  0.00000000000E+00 0. -1.
</event>
<event>
 7    1  0.2820496E-009  0.1425079E+03  0.7561462E-02  0.1209994E+00
          2   -1    0    0  501    0  0.00000000000E+00  0.00000000000E+00  0.23560539762E+03  0.23560539762E+03  0.00000000000E+00 0. -1.
         -2   -1    0    0    0  501 -0.00000000000E+00 -0.00000000000E+00 -0.11062917741E+03  0.11062917741E+03  0.00000000000E+00 0.  1.
         25    2    1    2    0    0 -0.58230227926E+02 -0.84945239666E+02  0.12982013138E+03  0.20762206687E+03  0.12508878028E+03 0.  0.
          5    1    3    3  502    0 -0.90356531977E+02 -0.41121701542E+02  0.50701472322E+02  0.11155002871E+03  0.41800000000E+01 0.  1.
         -5    1    3    3    0  502  0.32126304052E+02 -0.43823538124E+02  0.79118659053E+02  0.96072038159E+02  0.41800000000E+01 0.  1.
        -11    1    1    2    0    0 -0.17188659774E+02  0.39562613580E+02 -0.22783492721E+02  0.48782557934E+02  0.00000000000E+00 0.  1.
         11    1    1    2    0    0  0.75418887699E+02  0.45382626086E+02  0.17939581558E+02  0.89829950232E+02  0.00000000000E+00 0. -1.
</event>
<event>
 7    1  0.2820496E-009  0.1128746E+03  0.7561462E-02  0.1255337E+00
          4   -1    0    0  501    0  0.00000000000E+00  0.00000000000E+00  0.17162915812E+02  0.17162915812E+02  0.00000000000E+00 0. -1.
         -4   -1    0    0    0  501 -0.00000000000E+00 -0.00000000000E+00 -0.86638749115E+03  0.86638749115E+03  0.00000000000E+00 0.  1.
         25    2    1    2    0    0 -0.18200152288E+02  0.39381070909E+02 -0.34696188350E+03  0.37136396190E+03  0.12508608760E+03 0.  0.
          5    1    3    3  502    0 -0.67677072777E+02  0.11061193235E+02 -0.24524009041E+03  0.25468158653E+03  0.41800000000E+01 0. -1.
         -5    1    3    3    0  502  0.49476920489E+02  0.28319877674E+02 -0.10172179309E+03  0.11668237537E+03  0.41800000000E+01 0. -1.
        -11    1    1    2    0    0 -0.36770308112E+02 -0.14116253907E+02 -0.22220850260E+03  0.22567220213E+03  0.00000000000E+00 0.  1.
         11    1    1    2    0    0  0.54970460400E+02 -0.25264817003E+02 -0.28005418924E+03  0.28651424294E+03  0.00000000000E+00 0. -1.
</event>
<event>
 7    1  0.2820496E-009  0.3499447E+03  0.7561462E-02  0.1062638E+00
         -1   -1    0    0    0  501 -0.00000000000E+00  0.00000000000E+00  0.39888940388E+03  0.39888940388E+03  0.00000000000E+00 0. -1.
          1   -1    0    0  501    0  0.00000000000E+00 -0.00000000000E+00 -0.37215892554E+03  0.37215892554E+03  0.00000000000E+00 0.  1.
         25    2    1    2    0    0 -0.34397257932E+03  0.19946649521E+02  0.14692253913E+03  0.39490291162E+03  0.12508826065E+03 0.  0.
          5    1    3    3  502    0 -0.26056215170E+03 -0.21485791122E+02  0.15032837219E+03  0.30161294071E+03  0.41800000000E+01 0.  1.
         -5    1    3    3    0  502 -0.83410427622E+02  0.41432440643E+02 -0.34058330676E+01  0.93289970911E+02  0.41800000000E+01 0.  1.
        -11    1    1    2    0    0  0.22962333409E+03 -0.34550822399E+01 -0.12312961487E+03  0.26057573795E+03  0.00000000000E+00 0.  1.
         11    1    1    2    0    0  0.11434924523E+03 -0.16491567281E+02  0.29375540739E+01  0.11556967985E+03  0.00000000000E+00 0. -1.
</event>
<event>
 7    1  0.2820496E-009  0.1048295E+03  0.7561462E-02  0.1270456E+00
         -1   -1    0    0    0  501 -0.00000000000E+00  0.00000000000E+00  0.15028110862E+02  0.15028110862E+02  0.00000000000E+00 0.  1.
          1   -1    0    0  501    0  0.00000000000E+00 -0.00000000000E+00 -0.82326053628E+03  0.82326053628E+03  0.00000000000E+00 0. -1.
         25    2    1    2    0    0  0.16006573420E+02 -0.10042775660E+02 -0.52881425263E+03  0.54373415947E+03  0.12508099236E+03 0.  0.
          5    1    3    3  502    0  0.62992163634E+02 -0.23569305127E+02 -0.40468168036E+03  0.41025389656E+03  0.41800000000E+01 0.  1.
         -5    1    3    3    0  502 -0.46985590214E+02  0.13526529468E+02 -0.12413257228E+03  0.13348026291E+03  0.41800000000E+01 0.  1.
        -11    1    1    2    0    0 -0.13509254884E+02 -0.40449553287E+02 -0.12585617391E+03  0.13288507380E+03  0.00000000000E+00 0.  1.
         11    1    1    2    0    0 -0.24973185361E+01  0.50492328947E+02 -0.15356199888E+03  0.16166941387E+03  0.00000000000E+00 0. -1.
</event>
<event>
 7    1  0.2820496E-009  0.1191345E+03  0.7561462E-02  0.1244532E+00
         -1   -1    0    0    0  501 -0.00000000000E+00  0.00000000000E+00  0.69365070765E+03  0.69365070765E+03  0.00000000000E+00 0.  1.
          1   -1    0    0  501    0  0.00000000000E+00 -0.00000000000E+00 -0.27546010326E+02  0.27546010326E+02  0.00000000000E+00 0. -1.
         25    2    1    2    0    0  0.76679957931E+02 -0.38954401829E+02  0.36744446343E+03  0.39756893593E+03  0.12509342006E+03 0.  0.
          5    1    3    3  502    0 -0.34576383045E+01  0.16844281560E+02  0.21975749112E+03  0.22046884675E+03  0.41800000000E+01 0. -1.
         -5    1    3    3    0  502  0.80137596236E+02 -0.55798683389E+02  0.14768697232E+03  0.17710008919E+03  0.41800000000E+01 0. -1.
        -11    1    1    2    0    0  0.45713127788E+01  0.41296098343E+02  0.12848949295E+03  0.13504004753E+03  0.00000000000E+00 0.  1.
         11    1    1    2    0    0 -0.81251270710E+02 -0.23416965146E+01  0.17017074094E+03  0.18858773451E+03  0.00000000000E+00 0. -1.
</event>
<event>
 7    1  0.2820496E-009  0.1186891E+03  0.7561462E-02  0.1245275E+00
         -3   -1    0    0    0  501 -0.00000000000E+00  0.00000000000E+00  0.18342583712E+03  0.18342583712E+03  0.00000000000E+00 0.  1.
          3   -1    0    0  501    0  0.00000000000E+00 -0.00000000000E+00 -0.78170599097E+02  0.78170599097E+02  0.00000000000E+00 0. -1.
         25    2    1    2    0    0 -0.25579000216E+02 -0.46431712165E+02  0.56781084794E+02  0.14724747153E+03  0.12509011606E+03 0.  0.
          5    1    3    3  502    0  0.88726820727E+01  0.40002290658E+02  0.27840676647E+02  0.49714016346E+02  0.41800000000E+01 0.  1.
         -5    1    3    3    0  502 -0.34451682289E+02 -0.86434002823E+02  0.28940408147E+02  0.97533455185E+02  0.41800000000E+01 0.  1.
        -11    1    1    2    0    0  0.29232823335E+02 -0.20699673089E+02  0.11491432278E+02  0.37617648012E+02  0.00000000000E+00 0.  1.
         11    1    1    2    0    0 -0.36538231191E+01  0.67131385254E+02  0.36982720950E+02  0.76731316673E+02  0.00000000000E+00 0. -1.
</event>
<event>
 7    1  0.2820496E-009  0.1730952E+03  0.7561462E-02  0.1174658E+00
         -2   -1    0    0    0  501 -0.00000000000E+00  0.00000000000E+00  0.35163578282E+02  0.35163578282E+02  0.00000000000E+00 0.  1.
          2   -1    0    0  501    0  0.00000000000E+00 -0.00000000000E+00 -0.11940918072E+04  0.11940918072E+04  0.00000000000E+00 0. -1.
         25    2    1    2    0    0 -0.99915794270E+00  0.13984705869E+03 -0.91284485133E+03  0.93192872689E+03  0.12508889344E+03 0.  0.
          5    1    3    3  502    0  0.79057357037E+01 -0.21296591698E+02 -0.18231726919E+03  0.18377460249E+03  0.41800000000E+01 0.  1.
         -5    1    3    3    0  502 -0.89048936464E+01  0.16114365039E+03 -0.73052758213E+03  0.74815412439E+03  0.41800000000E+01 0.  1.
        -11    1    1    2    0    0 -0.35884235514E+02 -0.33513947151E+02 -0.43592452565E+02  0.65659461867E+02  0.00000000000E+00 0. -1.
         11    1    1    2    0    0  0.36883393456E+02 -0.10633311154E+03 -0.20249092503E+03  0.23166719673E+03  0.00000000000E+00 0.  1.
</event>
<event>
 7    1  0.2820496E-009  0.1402042E+03  0.7561462E-02  0.1213054E+00
          1   -1    0    0  501    0  0.00000000000E+00  0.00000000000E+00  0.18305521435E+03  0.18305521435E+03  0.00000000000E+00 0. -1.
         -1   -1    0    0    0  501 -0.00000000000E+00 -0.00000000000E+00 -0.15178183674E+03  0.15178183674E+03  0.00000000000E+00 0.  1.
         25    2    1    2    0    0  0.61272582005E+02 -0.97572498379E+02 -0.36792319973E+02  0.17399710106E+03  0.12508634866E+03 0.  0.
          5    1    3    3  502    0  0.76565093810E+02 -0.72783232818E+02 -0.72151560403E+02  0.12799583055E+03  0.41800000000E+01 0. -1.
         -5    1    3    3    0  502 -0.15292511805E+02 -0.24789265561E+02  0.35359240430E+02  0.46001270506E+02  0.41800000000E+01 0. -1.
        -11    1    1    2    0    0 -0.24967464233E+02  0.10523520611E+03  0.44961021290E+02  0.11712948523E+03  0.00000000000E+00 0.  1.
         11    1    1    2    0    0 -0.36305117772E+02 -0.76627077329E+01  0.23104676289E+02  0.43710464796E+02  0.00000000000E+00 0. -1.
</event>
<event>
 7    1  0.2820496E-009  0.1527528E+03  0.7561462E-02  0.1197131E+00
          1   -1    0    0  501    0  0.00000000000E+00  0.00000000000E+00  0.57738809870E+02  0.57738809870E+02  0.00000000000E+00 0. -1.
         -1   -1    0    0    0  501 -0.00000000000E+00 -0.00000000000E+00 -0.50109536959E+03  0.50109536959E+03  0.00000000000E+00 0.  1.
         25    2    1    2    0    0  0.65030906126E+02 -0.10546737285E+03 -0.16571922538E+03  0.24176878229E+03  0.12504757872E+03 0.  0.
          5    1    3    3  502    0  0.80456835931E+02 -0.16979933411E+02 -0.10427060014E+03  0.13285876350E+03  0.41800000000E+01 0. -1.
         -5    1    3    3    0  502 -0.15425929806E+02 -0.88487439436E+02 -0.61448625240E+02  0.10891001879E+03  0.41800000000E+01 0. -1.
        -11    1    1    2    0    0 -0.46376650083E+02  0.29355511539E+02 -0.19748311386E+03  0.20496858294E+03  0.00000000000E+00 0.  1.
         11    1    1    2    0    0 -0.18654256043E+02  0.76111861308E+02 -0.80154220484E+02  0.11209681424E+03  0.00000000000E+00 0. -1.
</event>
<event>
 7    1  0.2820496E-009  0.1116074E+03  0.7561462E-02  0.1257622E+00
          2   -1    0    0  501    0  0.00000000000E+00  0.00000000000E+00  0.71134792589E+03  0.71134792589E+03  0.00000000000E+00 0. -1.
         -2   -1    0    0    0  501 -0.00000000000E+00 -0.00000000000E+00 -0.29089653741E+02  0.29089653741E+02  0.00000000000E+00 0.  1.
         25    2    1    2    0    0 -0.74770293573E+01  0.26963166162E+02  0.14075993499E+03  0.19037715117E+03  0.12508869691E+03 0.  0.
          5    1    3    3  502    0 -0.65120206928E+02  0.21097844465E+02  0.90582779130E+02  0.11361545963E+03  0.41800000000E+01 0. -1.
         -5    1    3    3    0  502  0.57643177570E+02  0.58653216962E+01  0.50177155859E+02  0.76761691547E+02  0.41800000000E+01 0. -1.
        -11    1    1    2    0    0  0.42028669591E+02 -0.41493755348E+02  0.31711172165E+03  0.32256469864E+03  0.00000000000E+00 0.  1.
         11    1    1    2    0    0 -0.34551640234E+02  0.14530589187E+02  0.22438661551E+03  0.22749572981E+03  0.00000000000E+00 0. -1.
</event>
<event>
 7    1  0.2820496E-009  0.1924383E+03  0.7561462E-02  0.1156280E+00
          2   -1    0    0  501    0  0.00000000000E+00  0.00000000000E+00  0.85608394793E+03  0.85608394793E+03  0.00000000000E+00 0. -1.
         -2   -1    0    0    0  501 -0.00000000000E+00 -0.00000000000E+00 -0.63119100487E+02  0.63119100487E+02  0.00000000000E+00 0.  1.
         25    2    1    2    0    0  0.46372905592E+02 -0.16347389280E+03  0.18180029498E+03  0.27852007842E+03  0.12509167370E+03 0.  0.
          5    1    3    3  502    0 -0.40690344616E+02 -0.82192499122E+02  0.80642471600E+02  0.12219652893E+03  0.41800000000E+01 0. -1.
         -5    1    3    3    0  502  0.87063250208E+02 -0.81281393673E+02  0.10115782338E+03  0.15632354949E+03  0.41800000000E+01 0. -1.
        -11    1    1    2    0    0  0.20112971030E+01  0.55863757426E+02  0.87056332746E+02  0.10345825139E+03  0.00000000000E+00 0.  1.
         11    1    1    2    0    0 -0.48384202695E+02  0.10761013537E+03  0.52410821972E+03  0.53722471861E+03  0.00000000000E+00 0. -1.
</event>
<event>
 7    1  0.2820496E-009  0.1257175E+03  0.7561462E-02  0.1233952E+00
          1   -1    0    0  501    0  0.00000000000E+00  0.00000000000E+00  0.54957138981E+03  0.54957138981E+03  0.00000000000E+00 0. -1.
         -1   -1    0    0    0  501 -0.00000000000E+00 -0.00000000000E+00 -0.47254156798E+02  0.47254156798E+02  0.00000000000E+00 0.  1.
         25    2    1    2    0    0 -0.68081368929E+02 -0.70176562228E+02  0.14157743775E+03  0.21272084521E+03  0.12508462905E+03 0.  0.
          5    1    3    3  502    0 -0.91124274280E+02 -0.83291040277E+02  0.84543577838E+02  0.14968673858E+03  0.41800000000E+01 0.  1.
         -5    1    3    3    0  502  0.23042905351E+02  0.13114478049E+02  0.57033859911E+02  0.63034106624E+02  0.41800000000E+01 0.  1.
        -11    1    1    2    0    0  0.24732782741E+02  0.43872414375E+02  0.30344122605E+03  0.30759238767E+03  0.00000000000E+00 0. -1.
         11    1    1    2    0    0  0.43348586188E+02  0.26304147852E+02  0.57298569207E+02  0.76512313727E+02  0.00000000000E+00 0.  1.
</event>
<event>
 7    1  0.2820496E-009  0.1067493E+03  0.7561462E-02  0.1266711E+00
         -1   -1    0    0    0  501 -0.00000000000E+00  0.00000000000E+00  0.70843265720E+02  0.70843265720E+02  0.00000000000E+00 0.  1.
          1   -1    0    0  501    0  0.00000000000E+00 -0.00000000000E+00 -0.20934885299E+03  0.20934885299E+03  0.00000000000E+00 0. -1.
         25    2    1    2    0    0  0.23240293827E+02 -0.48810933047E+02 -0.84675863738E+02  0.16043126877E+03  0.12508225957E+03 0.  0.
          5    1    3    3  502    0  0.29507755445E+02  0.27276696465E+02  0.70566350909E+01  0.41012123820E+02  0.41800000000E+01 0. -1.
         -5    1    3    3    0  502 -0.62674616186E+01 -0.76087629511E+02 -0.91732498828E+02  0.11941914495E+03  0.41800000000E+01 0. -1.
        -11    1    1    2    0    0 -0.52727470464E+02  0.23294921239E+02 -0.56446654821E+02  0.80678772534E+02  0.00000000000E+00 0. -1.
         11    1    1    2    0    0  0.29487176638E+02  0.25516011808E+02  0.26169312906E+01  0.39082077402E+02  0.00000000000E+00 0.  1.
</event>
<event>
 7    1  0.2820496E-009  0.1431561E+03  0.7561462E-02  0.1209144E+00
         -2   -1    0    0    0  501 -0.00000000000E+00  0.00000000000E+00  0.16956695343E+02  0.16956695343E+02  0.00000000000E+00 0. -1.
          2   -1    0    0  501    0  0.00000000000E+00 -0.00000000000E+00 -0.13190154633E+04  0.13190154633E+04  0.00000000000E+00 0.  1.
         25    2    1    2    0    0 -0.79873475426E+02 -0.60846471164E+02 -0.80204993199E+03  0.81793150829E+03  0.12508314717E+03 0.  0.
          5    1    3    3  502    0  0.32040431128E+02 -0.23080515969E+02 -0.27062775668E+03  0.27352541844E+03  0.41800000000E+01 0.  1.
         -5    1    3    3    0  502 -0.11191390655E+03 -0.37765955196E+02 -0.53142217531E+03  0.54440608985E+03  0.41800000000E+01 0.  1.
        -11    1    1    2    0    0  0.27398957740E+01  0.50519243075E+02 -0.28329982811E+03  0.28778202438E+03  0.00000000000E+00 0.  1.
         11    1    1    2    0    0  0.77133579652E+02  0.10327228089E+02 -0.21670900780E+03  0.23025862593E+03  0.00000000000E+00 0. -1.
</event>
<event>
 7    1  0.2820496E-009  0.1080185E+03  0.7561462E-02  0.1264284E+00
          1   -1    0    0  501    0  0.00000000000E+00  0.00000000000E+00  0.37016699866E+03  0.37016699866E+03  0.00000000000E+00 0. -1.
         -1   -1    0    0    0  501 -0.00000000000E+00 -0.00000000000E+00 -0.61206962787E+02  0.61206962787E+02  0.00000000000E+00 0.  1.
         25    2    1    2    0    0  0.45033516908E+02 -0.92068623358E+02  0.13859983434E+03  0.21298387621E+03  0.12509024100E+03 0.  0.
          5    1    3    3  502    0  0.33014129732E+02 -0.45039810563E+02  0.15238678426E+03  0.16235061353E+03  0.41800000000E+01 0. -1.
         -5    1    3    3    0  502  0.12019387176E+02 -0.47028812795E+02 -0.13786949922E+02  0.50633262676E+02  0.41800000000E+01 0. -1.
        -11    1    1    2    0    0 -0.31268188803E+02  0.18205363071E+02  0.12609920587E+03  0.13118744069E+03  0.00000000000E+00 0. -1.
         11    1    1    2    0    0 -0.13765328105E+02  0.73863260287E+02  0.44260995670E+02  0.87202644546E+02  0.00000000000E+00 0.  1.
</event>
<event>
 7    1  0.2820496E-009  0.7851085E+02  0.7561462E-02  0.1333331E+00
          1   -1    0    0  501    0  0.00000000000E+00  0.00000000000E+00  0.64328079906E+03  0.64328079906E+03  0.00000000000E+00 0. -1.
         -1   -1    0    0    0  501 -0.00000000000E+00 -0.00000000000E+00 -0.25659347877E+02  0.25659347877E+02  0.00000000000E+00 0.  1.
         25    2    1    2    0    0 -0.41727040041E+02 -0.59022963016E+02  0.36433889834E+03  0.39193972316E+03  0.12509619385E+03 0.  0.
          5    1    3    3  502    0 -0.37209329282E+02 -0.17487040984E+02  0.34178903544E+03  0.34427830012E+03  0.41800000000E+01 0. -1.
         -5    1    3    3    0  502 -0.45177107587E+01 -0.41535922032E+02  0.22549862904E+02  0.47661423044E+02  0.41800000000E+01 0. -1.
        -11    1    1    2    0    0  0.30980367476E+02  0.31600112205E+02  0.24109885181E+03  0.24512651142E+03  0.00000000000E+00 0. -1.
         11    1    1    2    0    0  0.10746672565E+02  0.27422850811E+02  0.12183701040E+02  0.31873912356E+02  0.00000000000E+00 0.  1.
</event>
<event>
 7    1  0.3272940E-009  0.9084741E+02  0.7561462E-02  0.1300812E+00
          2   -1    0    0  501    0  0.00000000000E+00  0.00000000000E+00  0.40142331940E+03  0.40142331940E+03  0.00000000000E+00 0. -1.
         -2   -1    0    0    0  501 -0.00000000000E+00 -0.00000000000E+00 -0.35159285468E+02  0.35159285468E+02  0.00000000000E+00 0.  1.
         25    2    1    2    0    0 -0.41745365133E+02 -0.24072131856E+02  0.20877992799E+03  0.24810759037E+03  0.12508467142E+03 0.  0.
          5    1    3    3  502    0 -0.73022998627E+02 -0.12198297219E+02  0.19994646993E+03  0.21325388630E+03  0.41800000000E+01 0. -1.
         -5    1    3    3    0  502  0.31277633494E+02 -0.11873834637E+02  0.88334580569E+01  0.34853704067E+02  0.41800000000E+01 0. -1.
        -11    1    1    2    0    0 -0.13980178114E+02  0.33790017296E+01 -0.51820339986E+01  0.15287789545E+02  0.00000000000E+00 0.  1.
         11    1    1    2    0    0  0.55725543248E+02  0.20693130126E+02  0.16266613994E+03  0.17318722496E+03  0.00000000000E+00 0. -1.
</event>
<event>
 7    1  0.2820496E-009  0.6526445E+02  0.7561462E-02  0.1376979E+00
         -2   -1    0    0    0  501 -0.00000000000E+00  0.00000000000E+00  0.17270808891E+02  0.17270808891E+02  0.00000000000E+00 0.  1.
          2   -1    0    0  501    0  0.00000000000E+00 -0.00000000000E+00 -0.75356701209E+03  0.75356701209E+03  0.00000000000E+00 0. -1.
         25    2    1    2    0    0 -0.47489091207E+01  0.95292086497E+01 -0.52719522490E+03  0.54193767013E+03  0.12509306614E+03 0.  0.
          5    1    3    3  502    0 -0.51855514567E+01 -0.26315605676E+02 -0.20646774514E+02  0.34105171804E+02  0.41800000000E+01 0.  1.
         -5    1    3    3    0  502  0.43664233597E+00  0.35844814325E+02 -0.50654845038E+03  0.50783249833E+03  0.41800000000E+01 0.  1.
        -11    1    1    2    0    0  0.23522982133E+02 -0.30907966799E+02 -0.19159833591E+03  0.19549566600E+03  0.00000000000E+00 0. -1.
         11    1    1    2    0    0 -0.18774073012E+02  0.21378758150E+02 -0.17502642388E+02  0.33404484849E+02  0.00000000000E+00 0.  1.
</event>
<event>
 7    1  0.2820496E-009  0.1562722E+03  0.7561462E-02  0.1192971E+00
         -2   -1    0    0    0  501 -0.00000000000E+00  0.00000000000E+00  0.14055836326E+02  0.14055836326E+02  0.00000000000E+00 0.  1.
          2   -1    0    0  501    0  0.00000000000E+00 -0.00000000000E+00 -0.18933614932E+04  0.18933614932E+04  0.00000000000E+00 0. -1.
         25    2    1    2    0    0  0.75764793770E+02  0.85097224754E+02 -0.12408702453E+04  0.12523532527E+04  0.12509141558E+03 0.  0.
          5    1    3    3  502    0  0.85415058991E+02  0.11052736298E+03 -0.95655873498E+03  0.96671304746E+03  0.41800000000E+01 0. -1.
         -5    1    3    3    0  502 -0.96502652212E+01 -0.25430138229E+02 -0.28431151029E+03  0.28564020521E+03  0.41800000000E+01 0. -1.
        -11    1    1    2    0    0 -0.20621579502E+02 -0.87681348766E+02 -0.43798128374E+03  0.44714748503E+03  0.00000000000E+00 0. -1.
         11    1    1    2    0    0 -0.55143214268E+02  0.25841240126E+01 -0.20045412784E+03  0.20791659180E+03  0.00000000000E+00 0.  1.
</event>
<event>
 7    1  0.2820496E-009  0.1520819E+03  0.7561462E-02  0.1197938E+00
          2   -1    0    0  501    0  0.00000000000E+00  0.00000000000E+00  0.28897040852E+03  0.28897040852E+03  0.00000000000E+00 0. -1.
         -2   -1    0    0    0  501 -0.00000000000E+00 -0.00000000000E+00 -0.96788963947E+02  0.96788963947E+02  0.00000000000E+00 0.  1.
         25    2    1    2    0    0  0.11291133336E+03 -0.66202913401E+02  0.16541752918E+03  0.24524264684E+03  0.12509677024E+03 0.  0.
          5    1    3    3  502    0  0.12441375397E+03 -0.85068188954E+02  0.16390375693E+03  0.22270449678E+03  0.41800000000E+01 0. -1.
         -5    1    3    3    0  502 -0.11502420612E+02  0.18865275553E+02  0.15137722447E+01  0.22538150057E+02  0.41800000000E+01 0. -1.
        -11    1    1    2    0    0 -0.66799492197E+02  0.38077734054E+02  0.37342337488E+02  0.85478278864E+02  0.00000000000E+00 0. -1.
         11    1    1    2    0    0 -0.46111841160E+02  0.28125179347E+02 -0.10578422094E+02  0.55038446766E+02  0.00000000000E+00 0.  1.
</event>
<event>
 7    1  0.2820496E-009  0.1065396E+03  0.7561462E-02  0.1267116E+00
         -1   -1    0    0    0  501 -0.00000000000E+00  0.00000000000E+00  0.16783791527E+02  0.16783791527E+02  0.00000000000E+00 0.  1.
          1   -1    0    0  501    0  0.00000000000E+00 -0.00000000000E+00 -0.81797695916E+03  0.81797695916E+03  0.00000000000E+00 0. -1.
         25    2    1    2    0    0  0.30156573207E+02  0.11203429081E+02 -0.37545788869E+03  0.39705277296E+03  0.12508933849E+03 0.  0.
          5    1    3    3  502    0 -0.35906384526E+02  0.30990112420E+02 -0.75648634269E+02  0.89385926097E+02  0.41800000000E+01 0. -1.
         -5    1    3    3    0  502  0.66062957733E+02 -0.19786683339E+02 -0.29980925442E+03  0.30766684687E+03  0.41800000000E+01 0. -1.
        -11    1    1    2    0    0 -0.50379001294E+02 -0.37786411056E+02 -0.33827435244E+03  0.34408631788E+03  0.00000000000E+00 0.  1.
         11    1    1    2    0    0  0.20222428087E+02  0.26582981974E+02 -0.87460926503E+02  0.93621659851E+02  0.00000000000E+00 0. -1.
</event>
<event>
 7    1  0.2820496E-009  0.1389950E+03  0.7561462E-02  0.1214688E+00
          1   -1    0    0  501    0  0.00000000000E+00  0.00000000000E+00  0.81048684812E+03  0.81048684812E+03  0.00000000000E+00 0. -1.
         -1   -1    0    0    0  501 -0.00000000000E+00 -0.00000000000E+00 -0.28534791011E+02  0.28534791011E+02  0.00000000000E+00 0.  1.
         25    2    1    2    0    0  0.52444774941E+02 -0.90996692978E+02  0.61025710235E+03  0.63173649361E+03  0.12508562601E+03 0.  0.
          5    1    3    3  502    0  0.50287691970E+02  0.17614436979E+02  0.23816404848E+03  0.24408749813E+03  0.41800000000E+01 0. -1.
         -5    1    3    3    0  502  0.21570829714E+01 -0.10861112996E+03  0.37209305387E+03  0.38764899548E+03  0.41800000000E+01 0. -1.
        -11    1    1    2    0    0 -0.12177002357E+02  0.68761032023E+02  0.11079598193E+03  0.13096605867E+03  0.00000000000E+00 0.  1.
         11    1    1    2    0    0 -0.40267772584E+02  0.22235660955E+02  0.60898972830E+02  0.76319086858E+02  0.00000000000E+00 0. -1.
</event>
<event>
 7    1  0.2820496E-009  0.6328175E+02  0.7561462E-02  0.1384554E+00
         -3   -1    0    0    0  501 -0.00000000000E+00  0.00000000000E+00  0.32479699497E+02  0.32479699497E+02  0.00000000000E+00 0.  1.
          3   -1    0    0  501    0  0.00000000000E+00 -0.00000000000E+00 -0.39962470499E+03  0.39962470499E+03  0.00000000000E+00 0. -1.
         25    2    1    2    0    0 -0.25573598395E+02  0.14424206992E+02 -0.24506316314E+03  0.27671305148E+03  0.12510832207E+03 0.  0.
          5    1    3    3  502    0 -0.12790604894E+02  0.50271364925E+01 -0.25637983422E+03  0.25678193759E+03  0.41800000000E+01 0.  1.
         -5    1    3    3    0  502 -0.12782993501E+02  0.93970704997E+01  0.11316671081E+02  0.19931113897E+02  0.41800000000E+01 0.  1.
        -11    1    1    2    0    0  0.60129260836E+02 -0.99777472430E+01 -0.71222942391E+02  0.93743218270E+02  0.00000000000E+00 0.  1.
         11    1    1    2    0    0 -0.34555662441E+02 -0.44464597491E+01 -0.50858899965E+02  0.61648134738E+02  0.00000000000E+00 0. -1.
</event>
<event>
 7    1  0.2820496E-009  0.1161124E+03  0.7561462E-02  0.1249652E+00
         -4   -1    0    0    0  501 -0.00000000000E+00  0.00000000000E+00  0.23991923996E+03  0.23991923996E+03  0.00000000000E+00 0.  1.
          4   -1    0    0  501    0  0.00000000000E+00 -0.00000000000E+00 -0.78552750359E+02  0.78552750359E+02  0.00000000000E+00 0. -1.
         25    2    1    2    0    0 -0.19670057333E+02 -0.80369176653E+02  0.87033940596E+02  0.17340296844E+03  0.12509023518E+03 0.  0.
          5    1    3    3  502    0 -0.41811660562E+02 -0.85877598565E+02  0.10650186978E+03  0.14311987130E+03  0.41800000000E+01 0. -1.
         -5    1    3    3    0  502  0.22141603229E+02  0.55084219117E+01 -0.19467929187E+02  0.30283097139E+02  0.41800000000E+01 0. -1.
        -11    1    1    2    0    0  0.47780376881E+02  0.67006034380E+02  0.78419720788E+02  0.11367684754E+03  0.00000000000E+00 0.  1.
         11    1    1    2    0    0 -0.28110319548E+02  0.13363142273E+02 -0.40871717831E+01  0.31392174339E+02  0.00000000000E+00 0. -1.
</event>
<event>
 7    1  0.2820496E-009  0.1219628E+03  0.7561462E-02  0.1239894E+00
          2   -1    0    0  501    0  0.00000000000E+00  0.00000000000E+00  0.31159894052E+03  0.31159894052E+03  0.00000000000E+00 0. -1.
         -2   -1    0    0    0  501 -0.00000000000E+00 -0.00000000000E+00 -0.53353242415E+02  0.53353242415E+02  0.00000000000E+00 0.  1.
         25    2    1    2    0    0 -0.61870352305E+02  0.67374303088E+02  0.13830199393E+03  0.20770638621E+03  0.12508902485E+03 0.  0.
          5    1    3    3  502    0 -0.84934568220E+02  0.85153666013E+02  0.12997053356E+03  0.17712944337E+03  0.41800000000E+01 0.  1.
         -5    1    3    3    0  502  0.23064215915E+02 -0.17779362925E+02  0.83314603693E+01  0.30576942844E+02  0.41800000000E+01 0.  1.
        -11    1    1    2    0    0  0.26534757045E+02 -0.13599045345E+02  0.13199697939E+02  0.32607658478E+02  0.00000000000E+00 0.  1.
         11    1    1    2    0    0  0.35335595260E+02 -0.53775257743E+02  0.10674400623E+03  0.12463813824E+03  0.00000000000E+00 0. -1.
</event>
<event>
 7    1  0.2820496E-009  0.1293757E+03  0.7561462E-02  0.1228385E+00
         -1   -1    0    0    0  501 -0.00000000000E+00  0.00000000000E+00  0.17248465360E+03  0.17248465360E+03  0.00000000000E+00 0.  1.
          1   -1    0    0  501    0  0.00000000000E+00 -0.00000000000E+00 -0.22340359474E+03  0.22340359474E+03  0.00000000000E+00 0. -1.
         25    2    1    2    0    0 -0.82840328782E+02 -0.58198467562E+02  0.10204368712E+03  0.19055131854E+03  0.12508920504E+03 0.  0.
          5    1    3    3  502    0 -0.27520706732E+02 -0.86561868363E+02  0.88298918543E+02  0.12674587871E+03  0.41800000000E+01 0.  1.
         -5    1    3    3    0  502 -0.55319622050E+02  0.28363400802E+02  0.13744768575E+02  0.63805439831E+02  0.41800000000E+01 0.  1.
        -11    1    1    2    0    0  0.30313228326E+02  0.49402182875E+01 -0.11951132886E+03  0.12339471340E+03  0.00000000000E+00 0. -1.
         11    1    1    2    0    0  0.52527100456E+02  0.53258249274E+02 -0.33451299390E+02  0.81942216402E+02  0.00000000000E+00 0.  1.
</event>
<event>
 7    1  0.2820496E-009  0.7092117E+02  0.7561462E-02  0.1356988E+00
          2   -1    0    0  501    0  0.00000000000E+00  0.00000000000E+00  0.25255579602E+03  0.25255579602E+03  0.00000000000E+00 0. -1.
         -2   -1    0    0    0  501 -0.00000000000E+00 -0.00000000000E+00 -0.68376123325E+02  0.68376123325E+02  0.00000000000E+00 0.  1.
         25    2    1    2    0    0 -0.19460287544E+02 -0.62589155161E+02  0.62851837657E+02  0.15457145040E+03  0.12508347072E+03 0.  0.
          5    1    3    3  502    0 -0.16071723079E+02 -0.37096907123E+02  0.10071691917E+03  0.10860870595E+03  0.41800000000E+01 0.  1.
         -5    1    3    3    0  502 -0.33885644657E+01 -0.25492248038E+02 -0.37865081515E+02  0.45962744449E+02  0.41800000000E+01 0.  1.
        -11    1    1    2    0    0  0.28220102677E+02  0.29131776807E+02  0.37563455284E+00  0.40560765727E+02  0.00000000000E+00 0.  1.
         11    1    1    2    0    0 -0.87598151328E+01  0.33457378354E+02  0.12095220048E+03  0.12579970322E+03  0.00000000000E+00 0. -1.
</event>
<event>
 7    1  0.2820496E-009  0.1709204E+03  0.7561462E-02  0.1176891E+00
         -2   -1    0    0    0  501 -0.00000000000E+00  0.00000000000E+00  0.43302822007E+03  0.43302822007E+03  0.00000000000E+00 0.  1.
          2   -1    0    0  501    0  0.00000000000E+00 -0.00000000000E+00 -0.76367832645E+02  0.76367832645E+02  0.00000000000E+00 0. -1.
         25    2    1    2    0    0 -0.12853238757E+03 -0.19186059637E+02  0.11448753678E+03  0.21363730391E+03  0.12507926289E+03 0.  0.
          5    1    3    3  502    0 -0.12100834676E+03  0.28123020145E+02  0.10884265027E+03  0.16522142466E+03  0.41800000000E+01 0.  1.
         -5    1    3    3    0  502 -0.75240408092E+01 -0.47309079782E+02  0.56448865067E+01  0.48415879250E+02  0.41800000000E+01 0.  1.
        -11    1    1    2    0    0  0.79136178948E+01  0.45343564249E+02  0.74193029328E+02  0.87311338140E+02  0.00000000000E+00 0. -1.
         11    1    1    2    0    0  0.12061876967E+03 -0.26157504612E+02  0.16797982132E+03  0.20844741067E+03  0.00000000000E+00 0.  1.
</event>
<event>
 7    1  0.2820496E-009  0.2401048E+03  0.7561462E-02  0.1119723E+00
          2   -1    0    0  501    0  0.00000000000E+00  0.00000000000E+00  0.11873526127E+04  0.11873526127E+04  0.00000000000E+00 0. -1.
         -2   -1    0    0    0  501 -0.00000000000E+00 -0.00000000000E+00 -0.64694368139E+02  0.64694368139E+02  0.00000000000E+00 0.  1.
         25    2    1    2    0    0 -0.20406172168E+03  0.72434019076E+02  0.87678519470E+03  0.91174953458E+03  0.12508822006E+03 0.  0.
          5    1    3    3  502    0 -0.68800382319E+02 -0.33914263181E+02  0.23193903242E+03  0.24432940268E+03  0.41800000000E+01 0.  1.
         -5    1    3    3    0  502 -0.13526133936E+03  0.10634828226E+03  0.64484616227E+03  0.66742013190E+03  0.41800000000E+01 0.  1.
        -11    1    1    2    0    0  0.11532140692E+03  0.21727091539E+01  0.15381964449E+03  0.19226083998E+03  0.00000000000E+00 0. -1.
         11    1    1    2    0    0  0.88740314759E+02 -0.74606728230E+02  0.92053405421E+02  0.14803660632E+03  0.00000000000E+00 0.  1.
</event>
<event>
 7    1  0.2820496E-009  0.3776666E+03  0.7561462E-02  0.1051800E+00
         -1   -1    0    0    0  501 -0.00000000000E+00  0.00000000000E+00  0.61932964092E+03  0.61932964092E+03  0.00000000000E+00 0.  1.
          1   -1    0    0  501    0  0.00000000000E+00 -0.00000000000E+00 -0.29683742085E+03  0.29683742085E+03  0.00000000000E+00 0. -1.
         25    2    1    2    0    0  0.35236421689E+03 -0.11877411739E+03  0.35959338943E+03  0.53218644958E+03  0.12508868490E+03 0.  0.
          5    1    3    3  502    0  0.27731992826E+03 -0.50429407410E+02  0.31043695523E+03  0.41933047029E+03  0.41800000000E+01 0.  1.
         -5    1    3    3    0  502  0.75044288630E+02 -0.68344709984E+02  0.49156434203E+02  0.11285597929E+03  0.41800000000E+01 0.  1.
        -11    1    1    2    0    0 -0.39961264032E+02  0.13930773276E+02  0.24273877855E+02  0.48787193127E+02  0.00000000000E+00 0. -1.
         11    1    1    2    0    0 -0.31240295286E+03  0.10484334412E+03 -0.61375047207E+02  0.33519341906E+03  0.00000000000E+00 0.  1.
</event>
<event>
 7    1  0.2820496E-009  0.9759745E+02  0.7561462E-02  0.1285431E+00
         -2   -1    0    0    0  501 -0.00000000000E+00  0.00000000000E+00  0.28682459792E+02  0.28682459792E+02  0.00000000000E+00 0.  1.
          2   -1    0    0  501    0  0.00000000000E+00 -0.00000000000E+00 -0.53264721194E+03  0.53264721194E+03  0.00000000000E+00 0. -1.
         25    2    1    2    0    0 -0.26125820432E+02 -0.45898981147E+02 -0.33233094848E+03  0.35899907425E+03  0.12508877259E+03 0.  0.
          5    1    3    3  502    0 -0.37754278636E+02 -0.64086167237E+02 -0.95359054904E+02  0.12100927294E+03  0.41800000000E+01 0.  1.
         -5    1    3    3    0  502  0.11628458204E+02  0.18187186091E+02 -0.23697189358E+03  0.23798980130E+03  0.41800000000E+01 0.  1.
        -11    1    1    2    0    0  0.55027420150E+02  0.42660133859E+02 -0.79320342755E+02  0.10554440186E+03  0.00000000000E+00 0.  1.
         11    1    1    2    0    0 -0.28901599718E+02  0.32388472882E+01 -0.92313460916E+02  0.96786195629E+02  0.00000000000E+00 0. -1.
</event>
<event>
 7    1  0.2820496E-009  0.1799408E+03  0.7561462E-02  0.1167860E+00
          1   -1    0    0  501    0  0.00000000000E+00  0.00000000000E+00  0.15059599172E+03  0.15059599172E+03  0.00000000000E+00 0.  1.
         -1   -1    0    0    0  501 -0.00000000000E+00 -0.00000000000E+00 -0.38082448711E+03  0.38082448711E+03  0.00000000000E+00 0. -1.
         25    2    1    2    0    0  0.10150637905E+03 -0.13548783581E+03 -0.26797079568E+03  0.34075670693E+03  0.12508512040E+03 0.  0.
          5    1    3    3  502    0  0.41449590332E+02 -0.88382760348E+02 -0.49975780695E+02  0.10974803835E+03  0.41800000000E+01 0. -1.
         -5    1    3    3    0  502  0.60056788713E+02 -0.47105075457E+02 -0.21799501498E+03  0.23100866859E+03  0.41800000000E+01 0. -1.
        -11    1    1    2    0    0 -0.47822849093E+02  0.94639249616E+01  0.19362173998E+02  0.52454595156E+02  0.00000000000E+00 0.  1.
         11    1    1    2    0    0 -0.53683529952E+02  0.12602391084E+03  0.18380126288E+02  0.13820917674E+03  0.00000000000E+00 0. -1.
</event>
<event>
 7    1  0.2820496E-009  0.1179090E+03  0.7561462E-02  0.1246587E+00
          1   -1    0    0  501    0  0.00000000000E+00  0.00000000000E+00  0.70607616905E+02  0.70607616905E+02  0.00000000000E+00 0. -1.
         -1   -1    0    0    0  501 -0.00000000000E+00 -0.00000000000E+00 -0.23678550541E+03  0.23678550541E+03  0.00000000000E+00 0.  1.
         25    2    1    2    0    0 -0.22053771814E+02  0.61599562849E+02 -0.59247659532E+02  0.15309845881E+03  0.12509187798E+03 0.  0.
          5    1    3    3  502    0  0.43333591444E+02  0.48092858461E+02 -0.17627170630E+01  0.64894551033E+02  0.41800000000E+01 0. -1.
         -5    1    3    3    0  502 -0.65387363258E+02  0.13506704388E+02 -0.57484942469E+02  0.88203907781E+02  0.41800000000E+01 0. -1.
        -11    1    1    2    0    0 -0.30896580565E+02 -0.23402277887E+02 -0.15048090292E+02  0.41577762354E+02  0.00000000000E+00 0. -1.
         11    1    1    2    0    0  0.52950352379E+02 -0.38197284962E+02 -0.91882138676E+02  0.11271690114E+03  0.00000000000E+00 0.  1.
</event>
<event>
 7    1  0.2820496E-009  0.1379173E+03  0.7561462E-02  0.1216159E+00
         -1   -1    0    0    0  501 -0.00000000000E+00  0.00000000000E+00  0.46737556712E+03  0.46737556712E+03  0.00000000000E+00 0.  1.
          1   -1    0    0  501    0  0.00000000000E+00 -0.00000000000E+00 -0.55811643956E+02  0.55811643956E+02  0.00000000000E+00 0. -1.
         25    2    1    2    0    0  0.45500081140E+02  0.81708317984E+02  0.34518789033E+03  0.37887931330E+03  0.12509335636E+03 0.  0.
          5    1    3    3  502    0  0.29867697071E+01  0.10101482113E+03  0.28610773921E+03  0.30346008916E+03  0.41800000000E+01 0.  1.
         -5    1    3    3    0  502  0.42513311433E+02 -0.19306503146E+02  0.59080151128E+02  0.75419224141E+02  0.41800000000E+01 0.  1.
        -11    1    1    2    0    0 -0.51885740519E+02 -0.97682531512E+02  0.60839344978E+02  0.12623562464E+03  0.00000000000E+00 0.  1.
         11    1    1    2    0    0  0.63856593790E+01  0.15974213528E+02  0.55366878486E+01  0.18072273124E+02  0.00000000000E+00 0. -1.
</event>
<event>
 7    1  0.4010271E-009  0.1069471E+03  0.7561462E-02  0.1266330E+00
         -1   -1    0    0    0  501 -0.00000000000E+00  0.00000000000E+00  0.10162336329E+03  0.10162336329E+03  0.00000000000E+00 0.  1.
          1   -1    0    0  501    0  0.00000000000E+00 -0.00000000000E+00 -0.17053578017E+03  0.17053578017E+03  0.00000000000E+00 0. -1.
         25    2    1    2    0    0  0.74177439508E+02  0.65487482906E+01 -0.36326810849E+02  0.15003787095E+03  0.12508615789E+03 0.  0.
          5    1    3    3  502    0  0.91952874982E+02  0.14216649594E+02 -0.66148434812E+02  0.11423892581E+03  0.41800000000E+01 0. -1.
         -5    1    3    3    0  502 -0.17775435474E+02 -0.76679013036E+01  0.29821623963E+02  0.35798945131E+02  0.41800000000E+01 0. -1.
        -11    1    1    2    0    0 -0.50172462449E+02 -0.36880101727E+02  0.11660170890E+02  0.63351223167E+02  0.00000000000E+00 0.  1.
         11    1    1    2    0    0 -0.24004977059E+02  0.30331353436E+02 -0.44245776918E+02  0.58770049344E+02  0.00000000000E+00 0. -1.
</event>
<event>
 7    1  0.2820496E-009  0.8676910E+02  0.7561462E-02  0.1310870E+00
         -1   -1    0    0    0  501 -0.00000000000E+00  0.00000000000E+00  0.26949014539E+03  0.26949014539E+03  0.00000000000E+00 0.  1.
          1   -1    0    0  501    0  0.00000000000E+00 -0.00000000000E+00 -0.47409242098E+02  0.47409242098E+02  0.00000000000E+00 0. -1.
         25    2    1    2    0    0 -0.22227554441E+01 -0.37400270079E+01  0.93963656488E+02  0.15651050594E+03  0.12508973294E+03 0.  0.
          5    1    3    3  502    0 -0.14581437505E+02  0.35152730480E+02  0.10685757621E+03  0.11350923651E+03  0.41800000000E+01 0. -1.
         -5    1    3    3    0  502  0.12358682061E+02 -0.38892757488E+02 -0.12893919718E+02  0.43001269435E+02  0.41800000000E+01 0. -1.
        -11    1    1    2    0    0  0.36204480154E+02  0.33300249742E+02  0.83994165076E+02  0.97338023316E+02  0.00000000000E+00 0.  1.
         11    1    1    2    0    0 -0.33981724710E+02 -0.29560222734E+02  0.44123081729E+02  0.63050858231E+02  0.00000000000E+00 0. -1.
</event>
<event>
 7    1  0.2820496E-009  0.1375781E+03  0.7561462E-02  0.1216625E+00
         -2   -1    0    0    0  501 -0.00000000000E+00  0.00000000000E+00  0.84302416044E+02  0.84302416044E+02  0.00000000000E+00 0.  1.
          2   -1    0    0  501    0  0.00000000000E+00 -0.00000000000E+00 -0.31880494749E+03  0.31880494749E+03  0.00000000000E+00 0. -1.
         25    2    1    2    0    0  0.23729525256E+02 -0.10743058803E+03 -0.58459239795E+02  0.17654781280E+03  0.12508887190E+03 0.  0.
          5    1    3    3  502    0 -0.15454730385E+02 -0.11722036161E+03 -0.65663291611E+02  0.13530928325E+03  0.41800000000E+01 0. -1.
         -5    1    3    3    0  502  0.39184255640E+02  0.97897735837E+01  0.72040518152E+01  0.41238529550E+02  0.41800000000E+01 0. -1.
        -11    1    1    2    0    0 -0.27403783230E+02  0.38730192402E+02 -0.12394013321E+02  0.49036789302E+02  0.00000000000E+00 0.  1.
         11    1    1    2    0    0  0.36742579748E+01  0.68700395624E+02 -0.16364927832E+03  0.17752276143E+03  0.00000000000E+00 0. -1.
</event>
<event>
 7    1  0.2820496E-009  0.8054574E+02  0.7561462E-02  0.1327510E+00
         -3   -1    0    0    0  501 -0.00000000000E+00  0.00000000000E+00  0.33578935413E+02  0.33578935413E+02  0.00000000000E+00 0.  1.
          3   -1    0    0  501    0  0.00000000000E+00 -0.00000000000E+00 -0.42260030922E+03  0.42260030922E+03  0.00000000000E+00 0. -1.
         25    2    1    2    0    0  0.34095623747E+02  0.17804053356E+02 -0.16417795946E+03  0.20995684385E+03  0.12509187838E+03 0.  0.
          5    1    3    3  502    0  0.86202595162E+01  0.57051572750E+02 -0.15018275102E+03  0.16093949774E+03  0.41800000000E+01 0. -1.
         -5    1    3    3    0  502  0.25475364230E+02 -0.39247519395E+02 -0.13995208435E+02  0.49017346118E+02  0.41800000000E+01 0. -1.
        -11    1    1    2    0    0 -0.20170426373E+02 -0.31062402412E+02 -0.22393116978E+03  0.22697331945E+03  0.00000000000E+00 0. -1.
         11    1    1    2    0    0 -0.13925197374E+02  0.13258349057E+02 -0.91224456563E+00  0.19249081322E+02  0.00000000000E+00 0.  1.
</event>
<event>
 7    1  0.2820496E-009  0.1704127E+03  0.7561462E-02  0.1177418E+00
         -2   -1    0    0    0  501 -0.00000000000E+00  0.00000000000E+00  0.87668530481E+02  0.87668530481E+02  0.00000000000E+00 0. -1.
          2   -1    0    0  501    0  0.00000000000E+00 -0.00000000000E+00 -0.42556708285E+03  0.42556708285E+03  0.00000000000E+00 0.  1.
         25    2    1    2    0    0  0.13834854883E+03  0.60691774013E+02 -0.24505346445E+03  0.31388342912E+03  0.12509114373E+03 0.  0.
          5    1    3    3  502    0  0.13034526603E+03  0.83867509336E+02 -0.15038387243E+03  0.21600099302E+03  0.41800000000E+01 0.  1.
         -5    1    3    3    0  502  0.80032827969E+01 -0.23175735323E+02 -0.94669592018E+02  0.97882436096E+02  0.41800000000E+01 0.  1.
        -11    1    1    2    0    0 -0.19946140839E+02 -0.34168193455E+02 -0.63009511715E+02  0.74401025161E+02  0.00000000000E+00 0.  1.
         11    1    1    2    0    0 -0.11840240799E+03 -0.26523580558E+02 -0.29835576211E+02  0.12495115906E+03  0.00000000000E+00 0. -1.
</event>
<event>
 7    1  0.2820496E-009  0.1049546E+03  0.7561462E-02  0.1270209E+00
          2   -1    0    0  501    0  0.00000000000E+00  0.00000000000E+00  0.12425812971E+03  0.12425812971E+03  0.00000000000E+00 0. -1.
         -2   -1    0    0    0  501 -0.00000000000E+00 -0.00000000000E+00 -0.12414467786E+03  0.12414467786E+03  0.00000000000E+00 0.  1.
         25    2    1    2    0    0 -0.43840665125E+02  0.32722137161E+02 -0.23884813800E+02  0.13860533110E+03  0.12509281074E+03 0.  0.
          5    1    3    3  502    0  0.31930090282E+01  0.53112735800E+02 -0.56483608929E+02  0.77711186379E+02  0.41800000000E+01 0.  1.
         -5    1    3    3    0  502 -0.47033674153E+02 -0.20390598639E+02  0.32598795129E+02  0.60894144719E+02  0.41800000000E+01 0.  1.
        -11    1    1    2    0    0  0.79810113087E+01  0.30985229817E+02 -0.23625168246E+01  0.32083679559E+02  0.00000000000E+00 0.  1.
         11    1    1    2    0    0  0.35859653816E+02 -0.63707366978E+02  0.26360782474E+02  0.77713796920E+02  0.00000000000E+00 0. -1.
</event>
<event>
 7    1  0.2820496E-009  0.1509021E+03  0.7561462E-02  0.1199369E+00
          1   -1    0    0  501    0  0.00000000000E+00  0.00000000000E+00  0.62456034845E+03  0.62456034845E+03  0.00000000000E+00 0. -1.
         -1   -1    0    0    0  501 -0.00000000000E+00 -0.00000000000E+00 -0.36845030873E+02  0.36845030873E+02  0.00000000000E+00 0.  1.
         25    2    1    2    0    0 -0.16043595301E+02  0.10498980736E+03  0.31179385387E+03  0.35233544925E+03  0.12507839497E+03 0.  0.
          5    1    3    3  502    0 -0.43313246648E+02 -0.10855818723E+02  0.92247361998E+02  0.10257160587E+03  0.41800000000E+01 0.  1.
         -5    1    3    3    0  502  0.27269651347E+02  0.11584562608E+03  0.21954649187E+03  0.24976384338E+03  0.41800000000E+01 0.  1.
        -11    1    1    2    0    0 -0.29365739015E+02 -0.74762144337E+01  0.44098432650E+02  0.53506188169E+02  0.00000000000E+00 0.  1.
         11    1    1    2    0    0  0.45409334316E+02 -0.97513592922E+02  0.23182303106E+03  0.25556374190E+03  0.00000000000E+00 0. -1.
</event>
<event>
 7    1  0.2820496E-009  0.1199959E+03  0.7561462E-02  0.1243104E+00
         -1   -1    0    0    0  501 -0.00000000000E+00  0.00000000000E+00  0.51408771359E+02  0.51408771359E+02  0.00000000000E+00 0.  1.
          1   -1    0    0  501    0  0.00000000000E+00 -0.00000000000E+00 -0.49059990320E+03  0.49059990320E+03  0.00000000000E+00 0. -1.
         25    2    1    2    0    0 -0.19163621750E+02  0.11438119663E+03 -0.22173000848E+03  0.27975435572E+03  0.12509196755E+03 0.  0.
          5    1    3    3  502    0  0.11911371426E+02  0.20045838747E+02 -0.16212106245E+03  0.16384269197E+03  0.41800000000E+01 0. -1.
         -5    1    3    3    0  502 -0.31074993177E+02  0.94335357882E+02 -0.59608946022E+02  0.11591166375E+03  0.41800000000E+01 0. -1.
        -11    1    1    2    0    0  0.53780446748E+01 -0.74544066636E+02 -0.50857685733E+02  0.90400472528E+02  0.00000000000E+00 0.  1.
         11    1    1    2    0    0  0.13785577076E+02 -0.39837129993E+02 -0.16660343763E+03  0.17185384631E+03  0.00000000000E+00 0. -1.
</event>
<event>
 7    1  0.3621532E-009  0.5855128E+02  0.7561462E-02  0.1404014E+00
         -1   -1    0    0    0  501 -0.00000000000E+00  0.00000000000E+00  0.11706920982E+03  0.11706920982E+03  0.00000000000E+00 0.  1.
          1   -1    0    0  501    0  0.00000000000E+00 -0.00000000000E+00 -0.10248454990E+03  0.10248454990E+03  0.00000000000E+00 0. -1.
         25    2    1    2    0    0  0.12632580712E+02 -0.66308472827E+00  0.16562755476E+02  0.12681275655E+03  0.12508848299E+03 0.  0.
          5    1    3    3  502    0  0.20782052174E+02 -0.27554109203E+02 -0.46259210068E+02  0.57866307491E+02  0.41800000000E+01 0.  1.
         -5    1    3    3    0  502 -0.81494714620E+01  0.26891024475E+02  0.62821965544E+02  0.68946449055E+02  0.41800000000E+01 0.  1.
        -11    1    1    2    0    0 -0.28800422161E+02  0.14864758639E+02  0.36402147599E+02  0.48739529294E+02  0.00000000000E+00 0.  1.
         11    1    1    2    0    0  0.16167841449E+02 -0.14201673911E+02 -0.38380243151E+02  0.44001473876E+02  0.00000000000E+00 0. -1.
</event>
<event>
 7    1  0.2820496E-009  0.1348543E+03  0.7561462E-02  0.1220426E+00
          2   -1    0    0  501    0  0.00000000000E+00  0.00000000000E+00  0.38295836480E+03  0.38295836480E+03  0.00000000000E+00 0. -1.
         -2   -1    0    0    0  501 -0.00000000000E+00 -0.00000000000E+00 -0.55745224210E+02  0.55745224210E+02  0.00000000000E+00 0.  1.
         25    2    1    2    0    0 -0.30431449549E+02  0.92055905292E+02  0.19273138533E+03  0.24938644246E+03  0.12509135850E+03 0.  0.
          5    1    3    3  502    0  0.36280949816E+02  0.20004411306E+02  0.11465354142E+02  0.43190398665E+02  0.41800000000E+01 0.  1.
         -5    1    3    3    0  502 -0.66712399365E+02  0.72051493986E+02  0.18126603119E+03  0.20619604379E+03  0.41800000000E+01 0.  1.
        -11    1    1    2    0    0  0.23660271045E+02 -0.10900001058E+03  0.97780540516E+02  0.14833018855E+03  0.00000000000E+00 0. -1.
         11    1    1    2    0    0  0.67711785040E+01  0.16944105285E+02  0.36701214744E+02  0.40986957998E+02  0.00000000000E+00 0.  1.
</event>
<event>
 7    1  0.2820496E-009  0.4920752E+02  0.7561462E-02  0.1449663E+00
         -1   -1    0    0    0  501 -0.00000000000E+00  0.00000000000E+00  0.15125045190E+03  0.15125045190E+03  0.00000000000E+00 0.  1.
          1   -1    0    0  501    0  0.00000000000E+00 -0.00000000000E+00 -0.96467633029E+02  0.96467633029E+02  0.00000000000E+00 0. -1.
         25    2    1    2    0    0  0.29701142678E+01  0.12046980858E+02 -0.23298947651E+02  0.12784776479E+03  0.12509300010E+03 0.  0.
          5    1    3    3  502    0 -0.20488225299E+01 -0.46955684263E-01  0.51543663569E+02  0.51753468799E+02  0.41800000000E+01 0.  1.
         -5    1    3    3    0  502  0.50189367977E+01  0.12093936543E+02 -0.74842611221E+02  0.76094295989E+02  0.41800000000E+01 0.  1.
        -11    1    1    2    0    0  0.30970733418E+02 -0.28686086588E+02  0.12246603833E+02  0.43955172593E+02  0.00000000000E+00 0. -1.
         11    1    1    2    0    0 -0.33940847686E+02  0.16639105730E+02  0.65835162687E+02  0.75915147547E+02  0.00000000000E+00 0.  1.
</event>
<event>
 7    1  0.2820496E-009  0.1191649E+03  0.7561462E-02  0.1244481E+00
         -1   -1    0    0    0  501 -0.00000000000E+00  0.00000000000E+00  0.55614472644E+03  0.55614472644E+03  0.00000000000E+00 0.  1.
          1   -1    0    0  501    0  0.00000000000E+00 -0.00000000000E+00 -0.64690902992E+02  0.64690902992E+02  0.00000000000E+00 0. -1.
         25    2    1    2    0    0  0.26788051021E+02 -0.73560981635E+02  0.48209099147E+03  0.50416813844E+03  0.12507985476E+03 0.  0.
          5    1    3    3  502    0  0.36781587702E+02  0.14912255563E+02  0.55467841498E+02  0.68333113498E+02  0.41800000000E+01 0. -1.
         -5    1    3    3    0  502 -0.99935366813E+01 -0.88473237198E+02  0.42662314998E+03  0.43583502495E+03  0.41800000000E+01 0. -1.
        -11    1    1    2    0    0 -0.40081729912E+02  0.61177186407E+01  0.22958925172E+02  0.46594890269E+02  0.00000000000E+00 0.  1.
         11    1    1    2    0    0  0.13293678891E+02  0.67443262994E+02 -0.13596093195E+02  0.70072600722E+02  0.00000000000E+00 0. -1.
</event>
<event>
 7    1  0.2820496E-009  0.1182907E+03  0.7561462E-02  0.1245944E+00
         -2   -1    0    0    0  501 -0.00000000000E+00  0.00000000000E+00  0.29735654920E+03  0.29735654920E+03  0.00000000000E+00 0.  1.
          2   -1    0    0  501    0  0.00000000000E+00 -0.00000000000E+00 -0.80706979625E+02  0.80706979625E+02  0.00000000000E+00 0. -1.
         25    2    1    2    0    0  0.47669727197E+01 -0.56321934010E+02  0.26260109761E+01  0.13729111691E+03  0.12508825112E+03 0.  0.
          5    1    3    3  502    0  0.62076549443E+02 -0.14298272731E+02 -0.11084295339E+02  0.64794078410E+02  0.41800000000E+01 0. -1.
         -5    1    3    3    0  502 -0.57309576724E+02 -0.42023661279E+02  0.13710306315E+02  0.72497038497E+02  0.41800000000E+01 0. -1.
        -11    1    1    2    0    0 -0.44619124621E+02  0.31167656583E+02  0.66662883966E+02  0.86059451529E+02  0.00000000000E+00 0. -1.
         11    1    1    2    0    0  0.39852151901E+02  0.25154277427E+02  0.14736067463E+03  0.15471296039E+03  0.00000000000E+00 0.  1.
</event>
<event>
 7    1  0.2820496E-009  0.1015584E+03  0.7561462E-02  0.1277052E+00
         -2   -1    0    0    0  501 -0.00000000000E+00  0.00000000000E+00  0.36095646247E+02  0.36095646247E+02  0.00000000000E+00 0.  1.
          2   -1    0    0  501    0  0.00000000000E+00 -0.00000000000E+00 -0.39659890015E+03  0.39659890015E+03  0.00000000000E+00 0. -1.
         25    2    1    2    0    0 -0.30679166855E+02  0.29558832012E+02 -0.26054317468E+03  0.29213750236E+03  0.12508652439E+03 0.  0.
          5    1    3    3  502    0 -0.44904217890E+02 -0.22841896017E+02 -0.38583474598E+02  0.63594794677E+02  0.41800000000E+01 0.  1.
         -5    1    3    3    0  502  0.14225051035E+02  0.52400728029E+02 -0.22195970008E+03  0.22854270768E+03  0.41800000000E+01 0.  1.
        -11    1    1    2    0    0  0.98244311073E+01  0.31808860187E+02 -0.26189093463E+02  0.42357899492E+02  0.00000000000E+00 0. -1.
         11    1    1    2    0    0  0.20854735747E+02 -0.61367692199E+02 -0.73770985758E+02  0.98199144541E+02  0.00000000000E+00 0.  1.
</event>
<event>
 7    1  0.2820496E-009  0.1248638E+03  0.7561462E-02  0.1235282E+00
          2   -1    0    0  501    0  0.00000000000E+00  0.00000000000E+00  0.39903732239E+03  0.39903732239E+03  0.00000000000E+00 0. -1.
         -2   -1    0    0    0  501 -0.00000000000E+00 -0.00000000000E+00 -0.58348809831E+02  0.58348809831E+02  0.00000000000E+00 0.  1.
         25    2    1    2    0    0 -0.10639304129E+03  0.15270852891E+02  0.17384446472E+03  0.23962512635E+03  0.12508247313E+03 0.  0.
          5    1    3    3  502    0 -0.52638070698E+02 -0.14567610276E+02 -0.42839219459E+00  0.54778076598E+02  0.41800000000E+01 0.  1.
         -5    1    3    3    0  502 -0.53754970592E+02  0.29838463167E+02  0.17427285691E+03  0.18484704975E+03  0.41800000000E+01 0.  1.
        -11    1    1    2    0    0  0.98916203084E+02  0.16856570209E+02  0.15066543476E+03  0.18102108282E+03  0.00000000000E+00 0. -1.
         11    1    1    2    0    0  0.74768382053E+01 -0.32127423101E+02  0.16178613084E+02  0.36739923053E+02  0.00000000000E+00 0.  1.
</event>
<event>
 7    1  0.2820496E-009  0.1296724E+03  0.7561462E-02  0.1227943E+00
          2   -1    0    0  501    0  0.00000000000E+00  0.00000000000E+00  0.60193932993E+03  0.60193932993E+03  0.00000000000E+00 0. -1.
         -2   -1    0    0    0  501 -0.00000000000E+00 -0.00000000000E+00 -0.64579675677E+02  0.64579675677E+02  0.00000000000E+00 0.  1.
         25    2    1    2    0    0  0.11298217183E+03  0.20103312921E+02  0.47771323748E+03  0.50697749853E+03  0.12508849829E+03 0.  0.
          5    1    3    3  502    0  0.10393781347E+03  0.12877554745E+02  0.48251337846E+03  0.49376667899E+03  0.41800000000E+01 0.  1.
         -5    1    3    3    0  502  0.90443583609E+01  0.72257581758E+01 -0.48001409805E+01  0.13210819536E+02  0.41800000000E+01 0.  1.
        -11    1    1    2    0    0 -0.12588490412E+03 -0.25138958722E+02  0.65954095020E+02  0.14432227472E+03  0.00000000000E+00 0.  1.
         11    1    1    2    0    0  0.12902732282E+02  0.50356458017E+01 -0.63076782454E+01  0.15219232367E+02  0.00000000000E+00 0. -1.
</event>
<event>
 7    1  0.2820496E-009  0.1024725E+03  0.7561462E-02  0.1275181E+00
         -2   -1    0    0    0  501 -0.00000000000E+00  0.00000000000E+00  0.14025148221E+03  0.14025148221E+03  0.00000000000E+00 0.  1.
          2   -1    0    0  501    0  0.00000000000E+00 -0.00000000000E+00 -0.10080479627E+03  0.10080479627E+03  0.00000000000E+00 0. -1.
         25    2    1    2    0    0 -0.26897508338E+02  0.52684730282E+01  0.61072930377E+02  0.14187413109E+03  0.12508850261E+03 0.  0.
          5    1    3    3  502    0 -0.12741822233E+02  0.65045148728E+02  0.34051376802E+02  0.74633732782E+02  0.41800000000E+01 0.  1.
         -5    1    3    3    0  502 -0.14155686104E+02 -0.59776675700E+02  0.27021553575E+02  0.67240398306E+02  0.41800000000E+01 0.  1.
        -11    1    1    2    0    0  0.54780040864E+00 -0.36269486843E+02 -0.40467445354E+02  0.54345100006E+02  0.00000000000E+00 0. -1.
         11    1    1    2    0    0  0.26349707929E+02  0.31001013815E+02  0.18841200917E+02  0.44837047377E+02  0.00000000000E+00 0.  1.
</event>
<event>
 7    1  0.2820496E-009  0.1088954E+03  0.7561462E-02  0.1262629E+00
         -2   -1    0    0    0  501 -0.00000000000E+00  0.00000000000E+00  0.27036351108E+03  0.27036351108E+03  0.00000000000E+00 0.  1.
          2   -1    0    0  501    0  0.00000000000E+00 -0.00000000000E+00 -0.55681375263E+02  0.55681375263E+02  0.00000000000E+00 0. -1.
         25    2    1    2    0    0 -0.46122222589E+02 -0.20106234484E+02  0.86061179794E+02  0.15995465824E+03  0.12508975155E+03 0.  0.
          5    1    3    3  502    0 -0.28864510399E+02  0.48118364228E+02  0.11667802990E+02  0.57464310342E+02  0.41800000000E+01 0. -1.
         -5    1    3    3    0  502 -0.17257712190E+02 -0.68224598711E+02  0.74393376804E+02  0.10249034790E+03  0.41800000000E+01 0. -1.
        -11    1    1    2    0    0 -0.16164214373E+02  0.23641767298E+02  0.85716380060E+02  0.90374292793E+02  0.00000000000E+00 0.  1.
         11    1    1    2    0    0  0.62286436962E+02 -0.35355328143E+01  0.42904575963E+02  0.75715935312E+02  0.00000000000E+00 0. -1.
</event>
<event>
 7    1  0.2820496E-009  0.1293965E+03  0.7561462E-02  0.1228354E+00
          2   -1    0    0  501    0  0.00000000000E+00  0.00000000000E+00  0.76482485178E+03  0.76482485178E+03  0.00000000000E+00 0. -1.
         -2   -1    0    0    0  501 -0.00000000000E+00 -0.00000000000E+00 -0.37415255390E+02  0.37415255390E+02  0.00000000000E+00 0.  1.
         25    2    1    2    0    0 -0.27523716548E+02 -0.10980424496E+03  0.53670387892E+03  0.56259535918E+03  0.12509179564E+03 0.  0.
          5    1    3    3  502    0  0.15242608647E+02 -0.94117642974E+02  0.48166561068E+03  0.49102922597E+03  0.41800000000E+01 0. -1.
         -5    1    3    3    0  502 -0.42766325195E+02 -0.15686601987E+02  0.55038268237E+02  0.71566133213E+02  0.41800000000E+01 0. -1.
        -11    1    1    2    0    0  0.34132576331E+02  0.78180913490E+02  0.18892178494E+03  0.20728899832E+03  0.00000000000E+00 0. -1.
         11    1    1    2    0    0 -0.66088597825E+01  0.31623331471E+02  0.17839325238E+01  0.32355749662E+02  0.00000000000E+00 0.  1.
</event>
<event>
 7    1  0.2820496E-009  0.1325785E+03  0.7561462E-02  0.1223679E+00
          2   -1    0    0  501    0  0.00000000000E+00  0.00000000000E+00  0.88807502794E+03  0.88807502794E+03  0.00000000000E+00 0. -1.
         -2   -1    0    0    0  501 -0.00000000000E+00 -0.00000000000E+00 -0.20857067556E+02  0.20857067556E+02  0.00000000000E+00 0.  1.
         25    2    1    2    0    0  0.18909083492E+02  0.74845638905E+02  0.37901030271E+03  0.40651783829E+03  0.12509404535E+03 0.  0.
          5    1    3    3  502    0 -0.51505422934E+02  0.13547111654E+02  0.12991446220E+03  0.14046911659E+03  0.41800000000E+01 0.  1.
         -5    1    3    3    0  502  0.70414506426E+02  0.61298527251E+02  0.24909584051E+03  0.26604872170E+03  0.41800000000E+01 0.  1.
        -11    1    1    2    0    0  0.32671680153E+02 -0.53015803682E+02  0.27612258305E+03  0.28305793576E+03  0.00000000000E+00 0.  1.
         11    1    1    2    0    0 -0.51580763645E+02 -0.21829835223E+02  0.21208507462E+03  0.21935632145E+03  0.00000000000E+00 0. -1.
</event>
<event>
 7    1  0.2820496E-009  0.1484279E+03  0.7561462E-02  0.1202418E+00
         -2   -1    0    0    0  501 -0.00000000000E+00  0.00000000000E+00  0.36504159470E+02  0.36504159470E+02  0.00000000000E+00 0. -1.
          2   -1    0    0  501    0  0.00000000000E+00 -0.00000000000E+00 -0.83053382171E+03  0.83053382171E+03  0.00000000000E+00 0.  1.
         25    2    1    2    0    0 -0.98338253905E+02 -0.54031114140E+02 -0.23174590040E+03  0.28624531836E+03  0.12506177055E+03 0.  0.
          5    1    3    3  502    0 -0.27522578374E+02  0.32438873243E+02 -0.12312987819E+03  0.13033883582E+03  0.41800000000E+01 0.  1.
         -5    1    3    3    0  502 -0.70815675531E+02 -0.86469987384E+02 -0.10861602220E+03  0.15590648254E+03  0.41800000000E+01 0.  1.
        -11    1    1    2    0    0  0.26455317831E+02 -0.24319187740E+02 -0.20099931679E+03  0.20418626811E+03  0.00000000000E+00 0.  1.
         11    1    1    2    0    0  0.71882936074E+02  0.78350301880E+02 -0.36128444505E+03  0.37660639471E+03  0.00000000000E+00 0. -1.
</event>
<event>
 7    1  0.2820496E-009  0.6817992E+02  0.7561462E-02  0.1366394E+00
          2   -1    0    0  501    0  0.00000000000E+00  0.00000000000E+00  0.56689469660E+03  0.56689469660E+03  0.00000000000E+00 0. -1.
         -2   -1    0    0    0  501 -0.00000000000E+00 -0.00000000000E+00 -0.24485189233E+02  0.24485189233E+02  0.00000000000E+00 0.  1.
         25    2    1    2    0    0 -0.18738309244E+02  0.67416285631E+01  0.41152107220E+03  0.43057352267E+03  0.12508953502E+03 0.  0.
          5    1    3    3  502    0 -0.21305933279E+02 -0.11240282942E+02  0.67367098761E+01  0.25360252630E+02  0.41800000000E+01 0. -1.
         -5    1    3    3    0  502  0.25676240343E+01  0.17981911505E+02  0.40478436233E+03  0.40521327004E+03  0.41800000000E+01 0. -1.
        -11    1    1    2    0    0 -0.36632446798E+02  0.40614134374E+01  0.56161614461E+02  0.67175577231E+02  0.00000000000E+00 0.  1.
         11    1    1    2    0    0  0.55370756042E+02 -0.10803042001E+02  0.74726820701E+02  0.93630785927E+02  0.00000000000E+00 0. -1.
</event>
<event>
 7    1  0.2820496E-009  0.1398694E+03  0.7561462E-02  0.1213505E+00
         -1   -1    0    0    0  501 -0.00000000000E+00  0.00000000000E+00  0.88679324392E+02  0.88679324392E+02  0.00000000000E+00 0.  1.
          1   -1    0    0  501    0  0.00000000000E+00 -0.00000000000E+00 -0.30763847428E+03  0.30763847428E+03  0.00000000000E+00 0. -1.
         25    2    1    2    0    0 -0.11756319148E+03 -0.35146079429E+02 -0.14059012499E+03  0.22465305867E+03  0.12508821939E+03 0.  0.
          5    1    3    3  502    0 -0.15183944823E+02 -0.47859319011E+02 -0.20143343427E+00  0.50384318711E+02  0.41800000000E+01 0. -1.
         -5    1    3    3    0  502 -0.10237924666E+03  0.12713239581E+02 -0.14038869156E+03  0.17426873995E+03  0.41800000000E+01 0. -1.
        -11    1    1    2    0    0  0.78027947324E+02  0.86368358404E+01 -0.93153225767E+02  0.12182150454E+03  0.00000000000E+00 0. -1.
         11    1    1    2    0    0  0.39535244159E+02  0.26509243589E+02  0.14784200874E+02  0.49843235468E+02  0.00000000000E+00 0.  1.
</event>
<event>
 7    1  0.3735513E-009  0.9827101E+02  0.7561462E-02  0.1283974E+00
         -1   -1    0    0    0  501 -0.00000000000E+00  0.00000000000E+00  0.53078683442E+03  0.53078683442E+03  0.00000000000E+00 0.  1.
          1   -1    0    0  501    0  0.00000000000E+00 -0.00000000000E+00 -0.35628148297E+02  0.35628148297E+02  0.00000000000E+00 0. -1.
         25    2    1    2    0    0  0.72953739588E+02  0.30720961634E+02  0.33130415750E+03  0.36287192829E+03  0.12509023128E+03 0.  0.
          5    1    3    3  502    0  0.80178560364E+02  0.31557069036E+02  0.34000952636E+03  0.35078255453E+03  0.41800000000E+01 0. -1.
         -5    1    3    3    0  502 -0.72248207761E+01 -0.83610740197E+00 -0.87053688618E+01  0.12089373758E+02  0.41800000000E+01 0. -1.
        -11    1    1    2    0    0 -0.65174059843E+02 -0.49316218747E+02  0.16416395766E+03  0.18338362114E+03  0.00000000000E+00 0.  1.
         11    1    1    2    0    0 -0.77796797450E+01  0.18595257113E+02 -0.30942903654E+00  0.20159433285E+02  0.00000000000E+00 0. -1.
</event>
<event>
 7    1  0.2820496E-009  0.9556495E+02  0.7561462E-02  0.1289909E+00
         -2   -1    0    0    0  501 -0.00000000000E+00  0.00000000000E+00  0.85492123477E+02  0.85492123477E+02  0.00000000000E+00 0. -1.
          2   -1    0    0  501    0  0.00000000000E+00 -0.00000000000E+00 -0.19557049141E+03  0.19557049141E+03  0.00000000000E+00 0.  1.
         25    2    1    2    0    0 -0.59441419181E+02  0.16112723354E+02 -0.26458840423E+02  0.14191637765E+03  0.12508911160E+03 0.  0.
          5    1    3    3  502    0 -0.98853655276E+01  0.56356367005E+02 -0.47592952512E+02  0.74540741091E+02  0.41800000000E+01 0.  1.
         -5    1    3    3    0  502 -0.49556053653E+02 -0.40243643650E+02  0.21134112089E+02  0.67375636559E+02  0.41800000000E+01 0.  1.
        -11    1    1    2    0    0  0.42562606210E+02  0.48880889196E+01 -0.99176433544E+02  0.10803441040E+03  0.00000000000E+00 0.  1.
         11    1    1    2    0    0  0.16878812971E+02 -0.21000812274E+02  0.15556906035E+02  0.31111826832E+02  0.00000000000E+00 0. -1.
</event>
<event>
 7    1  0.2820496E-009  0.9765757E+02  0.7561462E-02  0.1285300E+00
         -1   -1    0    0    0  501 -0.00000000000E+00  0.00000000000E+00  0.15470446664E+03  0.15470446664E+03  0.00000000000E+00 0.  1.
          1   -1    0    0  501    0  0.00000000000E+00 -0.00000000000E+00 -0.17865076732E+03  0.17865076732E+03  0.00000000000E+00 0. -1.
         25    2    1    2    0    0 -0.38897411644E+02  0.65727930577E+02 -0.11300454380E+03  0.18506962193E+03  0.12509024163E+03 0.  0.
          5    1    3    3  502    0  0.17009181584E+02  0.33640144308E+02 -0.11433351119E+03  0.12045993420E+03  0.41800000000E+01 0.  1.
         -5    1    3    3    0  502 -0.55906593228E+02  0.32087786269E+02  0.13289673877E+01  0.64609687728E+02  0.41800000000E+01 0.  1.
        -11    1    1    2    0    0 -0.13293332046E+02 -0.12529157979E+02 -0.12632889961E+02  0.22209961398E+02  0.00000000000E+00 0. -1.
         11    1    1    2    0    0  0.52190743690E+02 -0.53198772598E+02  0.10169113309E+03  0.12607565063E+03  0.00000000000E+00 0.  1.
</event>
<event>
 7    1  0.2820496E-009  0.1079387E+03  0.7561462E-02  0.1264435E+00
          2   -1    0    0  501    0  0.00000000000E+00  0.00000000000E+00  0.17910144291E+04  0.17910144291E+04  0.00000000000E+00 0. -1.
         -2   -1    0    0    0  501 -0.00000000000E+00 -0.00000000000E+00 -0.12556541211E+02  0.12556541211E+02  0.00000000000E+00 0.  1.
         25    2    1    2    0    0  0.55393147431E+02  0.20843784647E+01  0.14835030365E+04  0.14897992445E+04  0.12509110321E+03 0.  0.
          5    1    3    3  502    0 -0.22008316213E+02 -0.37530663913E+02  0.30917896794E+03  0.31225313983E+03  0.41800000000E+01 0.  1.
         -5    1    3    3    0  502  0.77401463644E+02  0.39615042378E+02  0.11743240686E+04  0.11775461047E+04  0.41800000000E+01 0.  1.
        -11    1    1    2    0    0 -0.60179746639E+02 -0.22425270940E+02  0.28192129034E+03  0.28914375081E+03  0.00000000000E+00 0. -1.
         11    1    1    2    0    0  0.47865992078E+01  0.20340892475E+02  0.13033560958E+02  0.24627974945E+02  0.00000000000E+00 0.  1.
</event>
<event>
 7    1  0.2820496E-009  0.8278148E+02  0.7561462E-02  0.1321338E+00
          2   -1    0    0  501    0  0.00000000000E+00  0.00000000000E+00  0.33385156536E+03  0.33385156536E+03  0.00000000000E+00 0.  1.
         -2   -1    0    0    0  501 -0.00000000000E+00 -0.00000000000E+00 -0.41781740409E+02  0.41781740409E+02  0.00000000000E+00 0. -1.
         25    2    1    2    0    0 -0.35235730805E+01 -0.22762019348E+02  0.22639413901E+03  0.25967725996E+03  0.12508976004E+03 0.  0.
          5    1    3    3  502    0 -0.40737969651E+02 -0.59247470576E+02  0.15753458167E+03  0.17321796028E+03  0.41800000000E+01 0. -1.
         -5    1    3    3    0  502  0.37214396570E+02  0.36485451228E+02  0.68859557341E+02  0.86459299677E+02  0.41800000000E+01 0. -1.
        -11    1    1    2    0    0 -0.15053831150E+02  0.14580029282E+02  0.85230951499E+02  0.87769642700E+02  0.00000000000E+00 0.  1.
         11    1    1    2    0    0  0.18577404231E+02  0.81819900664E+01 -0.19555265559E+02  0.28186403114E+02  0.00000000000E+00 0. -1.
</event>
<event>
 7    1  0.2820496E-009  0.1127861E+03  0.7561462E-02  0.1255496E+00
         -2   -1    0    0    0  501 -0.00000000000E+00  0.00000000000E+00  0.20238710882E+02  0.20238710882E+02  0.00000000000E+00 0.  1.
          2   -1    0    0  501    0  0.00000000000E+00 -0.00000000000E+00 -0.76103678144E+03  0.76103678144E+03  0.00000000000E+00 0. -1.
         25    2    1    2    0    0 -0.45697213602E+02 -0.26633288203E+02 -0.53068812194E+03  0.54779123776E+03  0.12509112691E+03 0.  0.
          5    1    3    3  502    0  0.29682656457E+02 -0.38472046277E+02 -0.11158096100E+03  0.12177414215E+03  0.41800000000E+01 0. -1.
         -5    1    3    3    0  502 -0.75379870059E+02  0.11838758074E+02 -0.41910716094E+03  0.42601709561E+03  0.41800000000E+01 0. -1.
        -11    1    1    2    0    0  0.57147508399E+02 -0.13439218539E+02 -0.10306071273E+03  0.11860843486E+03  0.00000000000E+00 0. -1.
         11    1    1    2    0    0 -0.11450294797E+02  0.40072506742E+02 -0.10704923588E+03  0.11487581970E+03  0.00000000000E+00 0.  1.
</event>
<event>
 7    1  0.2820496E-009  0.1711882E+03  0.7561462E-02  0.1176614E+00
         -1   -1    0    0    0  501 -0.00000000000E+00  0.00000000000E+00  0.61031178306E+03  0.61031178306E+03  0.00000000000E+00 0.  1.
          1   -1    0    0  501    0  0.00000000000E+00 -0.00000000000E+00 -0.57165127068E+02  0.57165127068E+02  0.00000000000E+00 0. -1.
         25    2    1    2    0    0  0.97369763676E+02 -0.11246617281E+03  0.34369887346E+03  0.39484868052E+03  0.12508818484E+03 0.  0.
          5    1    3    3  502    0 -0.26657208678E+02 -0.22293677124E+02  0.10885682388E+03  0.11434550852E+03  0.41800000000E+01 0.  1.
         -5    1    3    3    0  502  0.12402697235E+03 -0.90172495685E+02  0.23484204958E+03  0.28050317200E+03  0.41800000000E+01 0.  1.
        -11    1    1    2    0    0 -0.30415345337E+02  0.65422655466E+02  0.16366678505E+03  0.17886317007E+03  0.00000000000E+00 0.  1.
         11    1    1    2    0    0 -0.66954418340E+02  0.47043517342E+02  0.45780997484E+02  0.93765059536E+02  0.00000000000E+00 0. -1.
</event>
<event>
 7    1  0.2820496E-009  0.1352726E+03  0.7561462E-02  0.1219835E+00
         -2   -1    0    0    0  501 -0.00000000000E+00  0.00000000000E+00  0.25719060422E+02  0.25719060422E+02  0.00000000000E+00 0. -1.
          2   -1    0    0  501    0  0.00000000000E+00 -0.00000000000E+00 -0.82481052264E+03  0.82481052264E+03  0.00000000000E+00 0.  1.
         25    2    1    2    0    0  0.43548025367E+01 -0.93571159355E+02 -0.32552736038E+03  0.36109575472E+03  0.12509018966E+03 0.  0.
          5    1    3    3  502    0 -0.26170406705E+02  0.18898436587E+02 -0.33801881550E+02  0.46926332574E+02  0.41800000000E+01 0.  1.
         -5    1    3    3    0  502  0.30525209242E+02 -0.11246959594E+03 -0.29172547883E+03  0.31416942214E+03  0.41800000000E+01 0.  1.
        -11    1    1    2    0    0  0.36419243204E+02  0.40723206732E+02 -0.16783763735E+03  0.17650556182E+03  0.00000000000E+00 0. -1.
         11    1    1    2    0    0 -0.40774045741E+02  0.52847952622E+02 -0.30572646448E+03  0.31292826652E+03  0.00000000000E+00 0.  1.
</event>
<event>
 7    1  0.2820496E-009  0.9547199E+02  0.7561462E-02  0.1290117E+00
          1   -1    0    0  501    0  0.00000000000E+00  0.00000000000E+00  0.26229974185E+03  0.26229974185E+03  0.00000000000E+00 0. -1.
         -1   -1    0    0    0  501 -0.00000000000E+00 -0.00000000000E+00 -0.60303307934E+02  0.60303307934E+02  0.00000000000E+00 0.  1.
         25    2    1    2    0    0 -0.30935729316E+02  0.29756461097E+01  0.18402951970E+03  0.22467678056E+03  0.12508764040E+03 0.  0.
          5    1    3    3  502    0 -0.62241499942E+02  0.13108441338E+02  0.18037455976E+03  0.19130679485E+03  0.41800000000E+01 0. -1.
         -5    1    3    3    0  502  0.31305770626E+02 -0.10132795228E+02  0.36549599452E+01  0.33369985703E+02  0.41800000000E+01 0. -1.
        -11    1    1    2    0    0  0.40906986527E+02  0.35574479106E+02 -0.72148388179E-01  0.54211901976E+02  0.00000000000E+00 0.  1.
         11    1    1    2    0    0 -0.99712572115E+01 -0.38550125216E+02  0.18039062601E+02  0.43714367250E+02  0.00000000000E+00 0. -1.
</event>
<event>
 7    1  0.2820496E-009  0.1017840E+03  0.7561462E-02  0.1276588E+00
         -1   -1    0    0    0  501 -0.00000000000E+00  0.00000000000E+00  0.15901801938E+03  0.15901801938E+03  0.00000000000E+00 0.  1.
          1   -1    0    0  501    0  0.00000000000E+00 -0.00000000000E+00 -0.13604107570E+03  0.13604107570E+03  0.00000000000E+00 0. -1.
         25    2    1    2    0    0  0.21291131414E+02 -0.91363023468E+02 -0.19703561627E+02  0.15759773763E+03  0.12509317420E+03 0.  0.
          5    1    3    3  502    0  0.70394630369E+01 -0.84095056359E+02 -0.66783328737E+02  0.10769873695E+03  0.41800000000E+01 0. -1.
         -5    1    3    3    0  502  0.14251668377E+02 -0.72679671096E+01  0.47079767110E+02  0.49899000677E+02  0.41800000000E+01 0. -1.
        -11    1    1    2    0    0  0.11662601023E+02  0.38679291623E+02 -0.23453075272E+02  0.46713494868E+02  0.00000000000E+00 0.  1.
         11    1    1    2    0    0 -0.32953732437E+02  0.52683731846E+02  0.66133580577E+02  0.90747862579E+02  0.00000000000E+00 0. -1.
</event>
<event>
 7    1  0.2820496E-009  0.8670205E+02  0.7561462E-02  0.1311041E+00
         -4   -1    0    0    0  501 -0.00000000000E+00  0.00000000000E+00  0.18615856674E+03  0.18615856674E+03  0.00000000000E+00 0.  1.
          4   -1    0    0  501    0  0.00000000000E+00 -0.00000000000E+00 -0.76506192096E+02  0.76506192096E+02  0.00000000000E+00 0. -1.
         25    2    1    2    0    0 -0.25345681608E+02  0.35045628297E+01  0.10413976803E+03  0.16476888248E+03  0.12509599439E+03 0.  0.
          5    1    3    3  502    0 -0.41829342485E+02  0.35773294396E+02  0.82558363481E+00  0.55204859143E+02  0.41800000000E+01 0. -1.
         -5    1    3    3    0  502  0.16483660878E+02 -0.32268731566E+02  0.10331418440E+03  0.10956402334E+03  0.41800000000E+01 0. -1.
        -11    1    1    2    0    0 -0.15595954905E+02  0.26652723306E+02 -0.23993075146E+02  0.39105870710E+02  0.00000000000E+00 0. -1.
         11    1    1    2    0    0  0.40941636513E+02 -0.30157286136E+02  0.29505681760E+02  0.58790005643E+02  0.00000000000E+00 0.  1.
</event>
<event>
 7    1  0.2820496E-009  0.9227436E+02  0.7561462E-02  0.1297436E+00
          3   -1    0    0  501    0  0.00000000000E+00  0.00000000000E+00  0.34649069843E+03  0.34649069843E+03  0.00000000000E+00 0. -1.
         -3   -1    0    0    0  501 -0.00000000000E+00 -0.00000000000E+00 -0.66906333056E+02  0.66906333056E+02  0.00000000000E+00 0.  1.
         25    2    1    2    0    0 -0.23689444790E+02  0.23320657741E+02  0.28700869168E+03  0.31483968933E+03  0.12507996643E+03 0.  0.
          5    1    3    3  502    0 -0.21509329488E+02  0.63002319796E+02  0.80712152820E+02  0.10470848852E+03  0.41800000000E+01 0. -1.
         -5    1    3    3    0  502 -0.21801153018E+01 -0.39681662055E+02  0.20629653886E+03  0.21013120081E+03  0.41800000000E+01 0. -1.
        -11    1    1    2    0    0  0.48999748677E+02 -0.15230128899E+02 -0.33539003900E+02  0.61300872582E+02  0.00000000000E+00 0.  1.
         11    1    1    2    0    0 -0.25310303887E+02 -0.80905288428E+01  0.26114677587E+02  0.37256469576E+02  0.00000000000E+00 0. -1.
</event>
<event>
 7    1  0.2820496E-009  0.1131166E+03  0.7561462E-02  0.1254905E+00
         -1   -1    0    0    0  501 -0.00000000000E+00  0.00000000000E+00  0.24519759112E+02  0.24519759112E+02  0.00000000000E+00 0.  1.
          1   -1    0    0  501    0  0.00000000000E+00 -0.00000000000E+00 -0.76356406917E+03  0.76356406917E+03  0.00000000000E+00 0. -1.
         25    2    1    2    0    0 -0.58698851637E+02  0.19969627075E+02 -0.55859503829E+03  0.57577908574E+03  0.12509515414E+03 0.  0.
          5    1    3    3  502    0 -0.18220038795E+02  0.62180736238E+02 -0.42434580073E+03  0.42928457318E+03  0.41800000000E+01 0. -1.
         -5    1    3    3    0  502 -0.40478812842E+02 -0.42211109163E+02 -0.13424923756E+03  0.14649451257E+03  0.41800000000E+01 0. -1.
        -11    1    1    2    0    0  0.68917789846E+02  0.11242084704E+02 -0.15736317446E+03  0.17216043361E+03  0.00000000000E+00 0. -1.
         11    1    1    2    0    0 -0.10218938209E+02 -0.31211711778E+02 -0.23086097309E+02  0.40144308927E+02  0.00000000000E+00 0.  1.
</event>
<event>
 7    1  0.3778573E-009  0.2329215E+03  0.7561462E-02  0.1124600E+00
          2   -1    0    0  501    0  0.00000000000E+00  0.00000000000E+00  0.14484083209E+04  0.14484083209E+04  0.00000000000E+00 0. -1.
         -2   -1    0    0    0  501 -0.00000000000E+00 -0.00000000000E+00 -0.46411573963E+02  0.46411573963E+02  0.00000000000E+00 0.  1.
         25    2    1    2    0    0 -0.42942105108E+01 -0.21979876941E+03  0.47925387297E+03  0.54190569057E+03  0.12509022120E+03 0.  0.
          5    1    3    3  502    0 -0.41772458610E+02 -0.96420735586E+02  0.32066005837E+03  0.33746443069E+03  0.41800000000E+01 0.  1.
         -5    1    3    3    0  502  0.37478248099E+02 -0.12337803383E+03  0.15859381459E+03  0.20444125988E+03  0.41800000000E+01 0.  1.
        -11    1    1    2    0    0 -0.33856383407E+02  0.82773258087E+02  0.46718732555E+03  0.47566970064E+03  0.00000000000E+00 0. -1.
         11    1    1    2    0    0  0.38150593918E+02  0.13702551133E+03  0.45555554844E+03  0.47724450367E+03  0.00000000000E+00 0.  1.
</event>
<event>
 7    1  0.2820496E-009  0.1007091E+03  0.7561462E-02  0.1278812E+00
         -1   -1    0    0    0  501 -0.00000000000E+00  0.00000000000E+00  0.16753030884E+03  0.16753030884E+03  0.00000000000E+00 0.  1.
          1   -1    0    0  501    0  0.00000000000E+00 -0.00000000000E+00 -0.17607283092E+03  0.17607283092E+03  0.00000000000E+00 0. -1.
         25    2    1    2    0    0  0.48703041625E+02 -0.10487355990E+02 -0.12812366695E+03  0.18586475045E+03  0.12509220810E+03 0.  0.
          5    1    3    3  502    0  0.78700504514E+02 -0.12747188738E+02 -0.13298289156E+03  0.15510700203E+03  0.41800000000E+01 0. -1.
         -5    1    3    3    0  502 -0.29997462889E+02  0.22598327474E+01  0.48592246117E+01  0.30757748417E+02  0.41800000000E+01 0. -1.
        -11    1    1    2    0    0  0.17998511964E+02  0.16266141237E+02  0.46100247890E+01  0.24693847659E+02  0.00000000000E+00 0. -1.
         11    1    1    2    0    0 -0.66701553590E+02 -0.57787852466E+01  0.11497112008E+03  0.13304454165E+03  0.00000000000E+00 0.  1.
</event>
<event>
 7    1  0.2820496E-009  0.9526136E+02  0.7561462E-02  0.1290589E+00
          1   -1    0    0  501    0  0.00000000000E+00  0.00000000000E+00  0.98252979338E+02  0.98252979338E+02  0.00000000000E+00 0. -1.
         -1   -1    0    0    0  501 -0.00000000000E+00 -0.00000000000E+00 -0.18540383983E+03  0.18540383983E+03  0.00000000000E+00 0.  1.
         25    2    1    2    0    0 -0.21799549883E+02  0.13557025229E+02  0.33572165870E+02  0.13203734466E+03  0.12509099390E+03 0.  0.
          5    1    3    3  502    0  0.18952742943E+02  0.47647232477E+02  0.54346632543E+02  0.74836448984E+02  0.41800000000E+01 0. -1.
         -5    1    3    3    0  502 -0.40752292826E+02 -0.34090207248E+02 -0.20774466673E+02  0.57200895678E+02  0.41800000000E+01 0. -1.
        -11    1    1    2    0    0 -0.31111290205E+02  0.18945896427E+00 -0.71826534086E+02  0.78275151049E+02  0.00000000000E+00 0.  1.
         11    1    1    2    0    0  0.52910840087E+02 -0.13746484193E+02 -0.48896492276E+02  0.73344323457E+02  0.00000000000E+00 0. -1.
</event>
<event>
 7    1  0.2820496E-009  0.1194140E+03  0.7561462E-02  0.1244067E+00
         -2   -1    0    0    0  501 -0.00000000000E+00  0.00000000000E+00  0.19925426652E+03  0.19925426652E+03  0.00000000000E+00 0.  1.
          2   -1    0    0  501    0  0.00000000000E+00 -0.00000000000E+00 -0.90966665814E+02  0.90966665814E+02  0.00000000000E+00 0. -1.
         25    2    1    2    0    0  0.60376742257E+02 -0.36589649638E+02  0.19780259214E+02  0.14499307941E+03  0.12509029121E+03 0.  0.
          5    1    3    3  502    0 -0.36486787785E+02 -0.37410886363E+01  0.21289969403E+02  0.42614746559E+02  0.41800000000E+01 0. -1.
         -5    1    3    3    0  502  0.96863530043E+02 -0.32848561001E+02 -0.15097101891E+01  0.10237833285E+03  0.41800000000E+01 0. -1.
        -11    1    1    2    0    0  0.18010257333E+01  0.37319729289E+02  0.71641339888E+02  0.80799056114E+02  0.00000000000E+00 0. -1.
         11    1    1    2    0    0 -0.62177767991E+02 -0.73007965127E+00  0.16866001603E+02  0.64428796812E+02  0.00000000000E+00 0.  1.
</event>
<event>
 7    1  0.2820496E-009  0.1135316E+03  0.7561462E-02  0.1254166E+00
         -1   -1    0    0    0  501 -0.00000000000E+00  0.00000000000E+00  0.71205264108E+02  0.71205264108E+02  0.00000000000E+00 0.  1.
          1   -1    0    0  501    0  0.00000000000E+00 -0.00000000000E+00 -0.32163879951E+03  0.32163879951E+03  0.00000000000E+00 0. -1.
         25    2    1    2    0    0 -0.17628631911E+02 -0.10208957695E+03 -0.11049327575E+03  0.19644248287E+03  0.12509130547E+03 0.  0.
          5    1    3    3  502    0 -0.22639239965E+02 -0.89623624715E+01 -0.99407131821E+02  0.10243099816E+03  0.41800000000E+01 0.  1.
         -5    1    3    3    0  502  0.50106080532E+01 -0.93127214480E+02 -0.11086143930E+02  0.94011484708E+02  0.41800000000E+01 0.  1.
        -11    1    1    2    0    0 -0.99456257592E+01  0.18817568386E+02  0.93505529238E+01  0.23247563134E+02  0.00000000000E+00 0.  1.
         11    1    1    2    0    0  0.27574257671E+02  0.83272008565E+02 -0.14929081257E+03  0.17315401761E+03  0.00000000000E+00 0. -1.
</event>
<event>
 7    1  0.2820496E-009  0.1216688E+03  0.7561462E-02  0.1240369E+00
          1   -1    0    0  501    0  0.00000000000E+00  0.00000000000E+00  0.79067703723E+03  0.79067703723E+03  0.00000000000E+00 0. -1.
         -1   -1    0    0    0  501 -0.00000000000E+00 -0.00000000000E+00 -0.30372568265E+02  0.30372568265E+02  0.00000000000E+00 0.  1.
         25    2    1    2    0    0  0.96164179246E+02 -0.41042474170E+02  0.51141198995E+03  0.53676963140E+03  0.12508948668E+03 0.  0.
          5    1    3    3  502    0  0.66200844141E+02 -0.16301897202E+02  0.48456372292E+03  0.48935444985E+03  0.41800000000E+01 0. -1.
         -5    1    3    3    0  502  0.29963335105E+02 -0.24740576968E+02  0.26848267027E+02  0.47415181552E+02  0.41800000000E+01 0. -1.
        -11    1    1    2    0    0  0.48230013074E+01 -0.18227032817E+02  0.50552248178E+02  0.53953830845E+02  0.00000000000E+00 0. -1.
         11    1    1    2    0    0 -0.10098718055E+03  0.59269506986E+02  0.19834023084E+03  0.23032614325E+03  0.00000000000E+00 0.  1.
</event>
<event>
 7    1  0.2820496E-009  0.7775439E+02  0.7561462E-02  0.1335548E+00
         -2   -1    0    0    0  501 -0.00000000000E+00  0.00000000000E+00  0.15207298318E+03  0.15207298318E+03  0.00000000000E+00 0.  1.
          2   -1    0    0  501    0  0.00000000000E+00 -0.00000000000E+00 -0.83857315036E+02  0.83857315036E+02  0.00000000000E+00 0. -1.
         25    2    1    2    0    0  0.20910502112E+02 -0.48078855118E+02  0.82984979614E+02  0.15900514264E+03  0.12508918074E+03 0.  0.
          5    1    3    3  502    0  0.67042229200E+01  0.14555009893E+02  0.92477112301E+02  0.93948302898E+02  0.41800000000E+01 0. -1.
         -5    1    3    3    0  502  0.14206279192E+02 -0.62633865011E+02 -0.94921326863E+01  0.65056839745E+02  0.41800000000E+01 0. -1.
        -11    1    1    2    0    0 -0.22210130179E+02 -0.39358620579E+01  0.93598038216E+00  0.22575583093E+02  0.00000000000E+00 0.  1.
         11    1    1    2    0    0  0.12996280668E+01  0.52014717176E+02 -0.15705291856E+02  0.54349572476E+02  0.00000000000E+00 0. -1.
</event>
<event>
 7    1  0.3258358E-009  0.1560466E+03  0.7561462E-02  0.1193234E+00
          1   -1    0    0  501    0  0.00000000000E+00  0.00000000000E+00  0.25181608044E+03  0.25181608044E+03  0.00000000000E+00 0. -1.
         -1   -1    0    0    0  501 -0.00000000000E+00 -0.00000000000E+00 -0.11888720137E+03  0.11888720137E+03  0.00000000000E+00 0.  1.
         25    2    1    2    0    0  0.12352903711E+03 -0.10311860708E+02  0.15031992928E+02  0.17674654668E+03  0.12509046114E+03 0.  0.
          5    1    3    3  502    0 -0.12985488852E+02 -0.22142487680E+02  0.28991983532E+02  0.38947659628E+02  0.41800000000E+01 0.  1.
         -5    1    3    3    0  502  0.13651452597E+03  0.11830626972E+02 -0.13959990604E+02  0.13779888705E+03  0.41800000000E+01 0.  1.
        -11    1    1    2    0    0 -0.42400566171E+02  0.44041718197E+02  0.24876734113E+02  0.66002521569E+02  0.00000000000E+00 0.  1.
         11    1    1    2    0    0 -0.81128470944E+02 -0.33729857489E+02  0.93020152029E+02  0.12795421356E+03  0.00000000000E+00 0. -1.
</event>
<event>
 7    1  0.2820496E-009  0.1509462E+03  0.7561462E-02  0.1199315E+00
         -1   -1    0    0    0  501 -0.00000000000E+00  0.00000000000E+00  0.59100190877E+02  0.59100190877E+02  0.00000000000E+00 0.  1.
          1   -1    0    0  501    0  0.00000000000E+00 -0.00000000000E+00 -0.56731342622E+03  0.56731342622E+03  0.00000000000E+00 0. -1.
         25    2    1    2    0    0  0.33580675297E+02 -0.13159529959E+03 -0.17130488361E+03  0.25186524977E+03  0.12508299751E+03 0.  0.
          5    1    3    3  502    0 -0.12257169553E+02 -0.34472241342E+01  0.15635135876E+02  0.20592509161E+02  0.41800000000E+01 0. -1.
         -5    1    3    3    0  502  0.45837844850E+02 -0.12814807546E+03 -0.18694001948E+03  0.23127274061E+03  0.41800000000E+01 0. -1.
        -11    1    1    2    0    0  0.21325228455E+02  0.29444173228E+02 -0.32379004534E+02  0.48683925893E+02  0.00000000000E+00 0.  1.
         11    1    1    2    0    0 -0.54905903753E+02  0.10215112637E+03 -0.30452934720E+03  0.32586444143E+03  0.00000000000E+00 0. -1.
</event>
<event>
 7    1  0.2820496E-009  0.1166492E+03  0.7561462E-02  0.1248729E+00
          2   -1    0    0  501    0  0.00000000000E+00  0.00000000000E+00  0.37767705221E+03  0.37767705221E+03  0.00000000000E+00 0. -1.
         -2   -1    0    0    0  501 -0.00000000000E+00 -0.00000000000E+00 -0.46861591531E+02  0.46861591531E+02  0.00000000000E+00 0.  1.
         25    2    1    2    0    0  0.21794222790E+02  0.46461500996E+02  0.86371034491E+02  0.16042884282E+03  0.12507517255E+03 0.  0.
          5    1    3    3  502    0 -0.20669415981E+02  0.78282384790E+02  0.43012662793E+02  0.91776457144E+02  0.41800000000E+01 0. -1.
         -5    1    3    3    0  502  0.42463638770E+02 -0.31820883793E+02  0.43358371697E+02  0.68652385678E+02  0.41800000000E+01 0. -1.
        -11    1    1    2    0    0  0.29196060238E+02 -0.37008597773E+02  0.97840192847E+02  0.10860363520E+03  0.00000000000E+00 0.  1.
         11    1    1    2    0    0 -0.50990283028E+02 -0.94529032233E+01  0.14660423334E+03  0.15550616572E+03  0.00000000000E+00 0. -1.
</event>
<event>
 7    1  0.2820496E-009  0.1652885E+03  0.7561462E-02  0.1182852E+00
          3   -1    0    0  501    0  0.00000000000E+00  0.00000000000E+00  0.14005713978E+03  0.14005713978E+03  0.00000000000E+00 0. -1.
         -3   -1    0    0    0  501 -0.00000000000E+00 -0.00000000000E+00 -0.25947111267E+03  0.25947111267E+03  0.00000000000E+00 0.  1.
         25    2    1    2    0    0 -0.13405886869E+03 -0.55786331606E+02 -0.12342805218E+03  0.22796490213E+03  0.12509843113E+03 0.  0.
          5    1    3    3  502    0 -0.98819855866E+02 -0.69765125920E+02 -0.14112417671E+03  0.18591945127E+03  0.41800000000E+01 0.  1.
         -5    1    3    3    0  502 -0.35239012820E+02  0.13978794313E+02  0.17696124529E+02  0.42045450864E+02  0.41800000000E+01 0.  1.
        -11    1    1    2    0    0  0.62575205043E+02  0.74709863932E+02 -0.85182149895E+00  0.97457404309E+02  0.00000000000E+00 0.  1.
         11    1    1    2    0    0  0.71483663644E+02 -0.18923532325E+02  0.48659007873E+01  0.74105946010E+02  0.00000000000E+00 0. -1.
</event>
<event>
 7    1  0.2820496E-009  0.1311671E+03  0.7561462E-02  0.1225734E+00
          2   -1    0    0  501    0  0.00000000000E+00  0.00000000000E+00  0.50477125432E+03  0.50477125432E+03  0.00000000000E+00 0. -1.
         -2   -1    0    0    0  501 -0.00000000000E+00 -0.00000000000E+00 -0.48510831112E+02  0.48510831112E+02  0.00000000000E+00 0.  1.
         25    2    1    2    0    0 -0.83928617976E+02  0.63917396593E+02  0.31166003833E+03  0.35200645163E+03  0.12508843271E+03 0.  0.
          5    1    3    3  502    0  0.20628983795E+02  0.23483361089E+02  0.15152804261E+02  0.34987184760E+02  0.41800000000E+01 0. -1.
         -5    1    3    3    0  502 -0.10455760177E+03  0.40434035504E+02  0.29650723407E+03  0.31701926687E+03  0.41800000000E+01 0. -1.
        -11    1    1    2    0    0 -0.78883383735E+01 -0.72970317674E+01 -0.87001474799E+01  0.13826247542E+02  0.00000000000E+00 0.  1.
         11    1    1    2    0    0  0.91816956349E+02 -0.56620364825E+02  0.15330053236E+03  0.18744938626E+03  0.00000000000E+00 0. -1.
</event>
<event>
 7    1  0.3151912E-009  0.1100046E+03  0.7561462E-02  0.1260561E+00
          1   -1    0    0  501    0  0.00000000000E+00  0.00000000000E+00  0.10311413824E+04  0.10311413824E+04  0.00000000000E+00 0. -1.
         -1   -1    0    0    0  501 -0.00000000000E+00 -0.00000000000E+00 -0.18402279689E+02  0.18402279689E+02  0.00000000000E+00 0.  1.
         25    2    1    2    0    0 -0.37127283130E+02 -0.51316313266E+02  0.77071667532E+03  0.78336596092E+03  0.12508491498E+03 0.  0.
          5    1    3    3  502    0 -0.25908192547E+02 -0.82353582524E+02  0.69883284624E+03  0.70415777095E+03  0.41800000000E+01 0. -1.
         -5    1    3    3    0  502 -0.11219090583E+02  0.31037269258E+02  0.71883829075E+02  0.79208189974E+02  0.41800000000E+01 0. -1.
        -11    1    1    2    0    0  0.59098693229E+02  0.20688175254E+02  0.90583906829E+02  0.11011857388E+03  0.00000000000E+00 0.  1.
         11    1    1    2    0    0 -0.21971410099E+02  0.30628138012E+02  0.15143852057E+03  0.15605912730E+03  0.00000000000E+00 0. -1.
</event>
<event>
 7    1  0.2820496E-009  0.3160666E+03  0.7561462E-02  0.1077474E+00
          2   -1    0    0  501    0  0.00000000000E+00  0.00000000000E+00  0.88114852668E+03  0.88114852668E+03  0.00000000000E+00 0. -1.
         -2   -1    0    0    0  501 -0.00000000000E+00 -0.00000000000E+00 -0.13516134181E+03  0.13516134181E+03  0.00000000000E+00 0.  1.
         25    2    1    2    0    0 -0.14219026803E+03 -0.27429993992E+03  0.21900294654E+03  0.39883430935E+03  0.12509191161E+03 0.  0.
          5    1    3    3  502    0 -0.57235708249E+02 -0.76326870932E+02  0.13972658279E+03  0.16924156660E+03  0.41800000000E+01 0.  1.
         -5    1    3    3    0  502 -0.84954559786E+02 -0.19797306899E+03  0.79276363753E+02  0.22959274275E+03  0.41800000000E+01 0.  1.
        -11    1    1    2    0    0  0.93405867158E+02  0.24956111677E+03  0.42181081532E+03  0.49892862309E+03  0.00000000000E+00 0.  1.
         11    1    1    2    0    0  0.48784400877E+02  0.24738823153E+02  0.10517342301E+03  0.11854693605E+03  0.00000000000E+00 0. -1.
</event>
<event>
 7    1  0.3699890E-009  0.1288716E+03  0.7561462E-02  0.1229140E+00
         -2   -1    0    0    0  501 -0.00000000000E+00  0.00000000000E+00  0.23805758375E+02  0.23805758375E+02  0.00000000000E+00 0.  1.
          2   -1    0    0  501    0  0.00000000000E+00 -0.00000000000E+00 -0.78742983772E+03  0.78742983772E+03  0.00000000000E+00 0. -1.
         25    2    1    2    0    0 -0.76707646797E+02  0.30664504367E+02 -0.38856263615E+03  0.41647722348E+03  0.12509188848E+03 0.  0.
          5    1    3    3  502    0  0.33527515971E+01  0.53932301420E+02 -0.24023355706E+03  0.24627133089E+03  0.41800000000E+01 0.  1.
         -5    1    3    3    0  502 -0.80060398394E+02 -0.23267797053E+02 -0.14832907909E+03  0.17020589259E+03  0.41800000000E+01 0.  1.
        -11    1    1    2    0    0 -0.19597504348E+02 -0.26864201934E+01 -0.34837096111E+02  0.40061231828E+02  0.00000000000E+00 0. -1.
         11    1    1    2    0    0  0.96305151145E+02 -0.27978084174E+02 -0.34022434708E+03  0.35469714078E+03  0.00000000000E+00 0.  1.
</event>
<event>
 7    1  0.2820496E-009  0.1208381E+03  0.7561462E-02  0.1241721E+00
          1   -1    0    0  501    0  0.00000000000E+00  0.00000000000E+00  0.19857830372E+04  0.19857830372E+04  0.00000000000E+00 0. -1.
         -1   -1    0    0    0  501 -0.00000000000E+00 -0.00000000000E+00 -0.57194087951E+02  0.57194087951E+02  0.00000000000E+00 0.  1.
         25    2    1    2    0    0 -0.44581032200E+02  0.61863389380E+02  0.19200039381E+04  0.19255849287E+04  0.12509055890E+03 0.  0.
          5    1    3    3  502    0  0.28902930318E+02 -0.15630173541E+02  0.25310358529E+03  0.25526178522E+03  0.41800000000E+01 0.  1.
         -5    1    3    3    0  502 -0.73483962518E+02  0.77493562920E+02  0.16669003528E+04  0.16703231435E+04  0.41800000000E+01 0.  1.
        -11    1    1    2    0    0 -0.47345450403E+01 -0.50947585840E+02  0.33413109969E+02  0.61110623770E+02  0.00000000000E+00 0. -1.
         11    1    1    2    0    0  0.49315577240E+02 -0.10915803540E+02 -0.24828098866E+02  0.56281572639E+02  0.00000000000E+00 0.  1.
</event>
<event>
 7    1  0.2820496E-009  0.1219293E+03  0.7561462E-02  0.1239948E+00
         -2   -1    0    0    0  501 -0.00000000000E+00  0.00000000000E+00  0.14525387719E+03  0.14525387719E+03  0.00000000000E+00 0.  1.
          2   -1    0    0  501    0  0.00000000000E+00 -0.00000000000E+00 -0.11953185671E+03  0.11953185671E+03  0.00000000000E+00 0. -1.
         25    2    1    2    0    0 -0.41805155643E+02 -0.59598885682E+02  0.53563650654E+01  0.14483035559E+03  0.12508973994E+03 0.  0.
          5    1    3    3  502    0  0.24246358852E+01 -0.80729062588E+02  0.34194214613E+02  0.87805336504E+02  0.41800000000E+01 0.  1.
         -5    1    3    3    0  502 -0.44229791528E+02  0.21130176906E+02 -0.28837849548E+02  0.57025019082E+02  0.41800000000E+01 0.  1.
        -11    1    1    2    0    0 -0.26387159283E+02  0.60173901005E+01 -0.87976531222E+01  0.28458563897E+02  0.00000000000E+00 0. -1.
         11    1    1    2    0    0  0.68192314926E+02  0.53581495582E+02  0.29163308539E+02  0.91496814418E+02  0.00000000000E+00 0.  1.
</event>
<event>
 7    1  0.2820496E-009  0.1189364E+03  0.7561462E-02  0.1244862E+00
         -1   -1    0    0    0  501 -0.00000000000E+00  0.00000000000E+00  0.68114397139E+03  0.68114397139E+03  0.00000000000E+00 0.  1.
          1   -1    0    0  501    0  0.00000000000E+00 -0.00000000000E+00 -0.22277799881E+02  0.22277799881E+02  0.00000000000E+00 0. -1.
         25    2    1    2    0    0 -0.53176536919E+02 -0.14435637023E+02  0.42266866768E+03  0.44422147731E+03  0.12509111307E+03 0.  0.
          5    1    3    3  502    0 -0.36730379219E+02  0.53051432136E+02  0.24560890830E+03  0.25397791921E+03  0.41800000000E+01 0. -1.
         -5    1    3    3    0  502 -0.16446157700E+02 -0.67487069159E+02  0.17705975938E+03  0.19024355810E+03  0.41800000000E+01 0. -1.
        -11    1    1    2    0    0  0.12442887278E+02  0.48781217949E+02  0.14606492955E+03  0.15449723724E+03  0.00000000000E+00 0.  1.
         11    1    1    2    0    0  0.40733649641E+02 -0.34345580926E+02  0.90132574283E+02  0.10470305673E+03  0.00000000000E+00 0. -1.
</event>
<event>
 7    1  0.2820496E-009  0.9508084E+02  0.7561462E-02  0.1290994E+00
         -1   -1    0    0    0  501 -0.00000000000E+00  0.00000000000E+00  0.42732527940E+02  0.42732527940E+02  0.00000000000E+00 0.  1.
          1   -1    0    0  501    0  0.00000000000E+00 -0.00000000000E+00 -0.38115203131E+03  0.38115203131E+03  0.00000000000E+00 0. -1.
         25    2    1    2    0    0  0.11122570082E+02 -0.64858362703E+02 -0.20186568146E+03  0.24642073297E+03  0.12507240106E+03 0.  0.
          5    1    3    3  502    0 -0.43089938337E+01  0.91717640564E+01 -0.15903419200E+03  0.15941152816E+03  0.41800000000E+01 0. -1.
         -5    1    3    3    0  502  0.15431563916E+02 -0.74030126760E+02 -0.42831489462E+02  0.87009204814E+02  0.41800000000E+01 0. -1.
        -11    1    1    2    0    0 -0.45034454729E+02  0.26455124933E+02 -0.10505498608E+03  0.11732231607E+03  0.00000000000E+00 0. -1.
         11    1    1    2    0    0  0.33911884647E+02  0.38403237770E+02 -0.31498835826E+02  0.60141510207E+02  0.00000000000E+00 0.  1.
</event>
<event>
 7    1  0.2820496E-009  0.1342046E+03  0.7561462E-02  0.1221347E+00
         -1   -1    0    0    0  501 -0.00000000000E+00  0.00000000000E+00  0.25356853443E+02  0.25356853443E+02  0.00000000000E+00 0.  1.
          1   -1    0    0  501    0  0.00000000000E+00 -0.00000000000E+00 -0.12177536763E+04  0.12177536763E+04  0.00000000000E+00 0. -1.
         25    2    1    2    0    0 -0.10708525017E+03 -0.34963012859E+01 -0.93507644567E+03  0.94947827021E+03  0.12514612027E+03 0.  0.
          5    1    3    3  502    0  0.13311047119E+01 -0.41468608688E+02 -0.40153390473E+03  0.40369340643E+03  0.41800000000E+01 0.  1.
         -5    1    3    3    0  502 -0.10841635488E+03  0.37972307402E+02 -0.53354254094E+03  0.54578486377E+03  0.41800000000E+01 0.  1.
        -11    1    1    2    0    0  0.54021365976E+02  0.17665153418E+02 -0.40055421832E+02  0.69532743692E+02  0.00000000000E+00 0.  1.
         11    1    1    2    0    0  0.53063884192E+02 -0.14168852132E+02 -0.21726495533E+03  0.22409951582E+03  0.00000000000E+00 0. -1.
</event>
<event>
 7    1  0.2820496E-009  0.2232157E+03  0.7561462E-02  0.1131508E+00
         -1   -1    0    0    0  501 -0.00000000000E+00  0.00000000000E+00  0.25012722974E+03  0.25012722974E+03  0.00000000000E+00 0.  1.
          1   -1    0    0  501    0  0.00000000000E+00 -0.00000000000E+00 -0.28880180257E+03  0.28880180257E+03  0.00000000000E+00 0. -1.
         25    2    1    2    0    0  0.86058589632E+02  0.18853622388E+03  0.11236312921E+03  0.26687924171E+03  0.12508824200E+03 0.  0.
          5    1    3    3  502    0  0.11212939843E+03  0.13405431432E+03  0.54457737417E+02  0.18310291845E+03  0.41800000000E+01 0.  1.
         -5    1    3    3    0  502 -0.26070808796E+02  0.54481909559E+02  0.57905391797E+02  0.83776323264E+02  0.41800000000E+01 0.  1.
        -11    1    1    2    0    0 -0.64426460149E+02 -0.93126389658E+02 -0.12921629373E+03  0.17181427119E+03  0.00000000000E+00 0. -1.
         11    1    1    2    0    0 -0.21632129483E+02 -0.95409834218E+02 -0.21821408315E+02  0.10023551941E+03  0.00000000000E+00 0.  1.
</event>
<event>
 7    1  0.3864446E-009  0.1158756E+03  0.7561462E-02  0.1250060E+00
         -3   -1    0    0    0  501 -0.00000000000E+00  0.00000000000E+00  0.28735582455E+02  0.28735582455E+02  0.00000000000E+00 0.  1.
          3   -1    0    0  501    0  0.00000000000E+00 -0.00000000000E+00 -0.80402607504E+03  0.80402607504E+03  0.00000000000E+00 0. -1.
         25    2    1    2    0    0 -0.54944032702E+02 -0.44237093921E+02 -0.63260735644E+03  0.64869676320E+03  0.12505861008E+03 0.  0.
          5    1    3    3  502    0 -0.79329470598E+02  0.13207655371E+02 -0.38273647405E+03  0.39111671920E+03  0.41800000000E+01 0. -1.
         -5    1    3    3    0  502  0.24385437896E+02 -0.57444749292E+02 -0.24987088239E+03  0.25758004401E+03  0.41800000000E+01 0. -1.
        -11    1    1    2    0    0  0.95392348336E+01  0.42156938755E+02 -0.10775146713E+02  0.44545575235E+02  0.00000000000E+00 0.  1.
         11    1    1    2    0    0  0.45404797869E+02  0.20801551664E+01 -0.13190798942E+03  0.13951931905E+03  0.00000000000E+00 0. -1.
</event>
<event>
 7    1  0.2820496E-009  0.3152286E+03  0.7561462E-02  0.1077866E+00
         -1   -1    0    0    0  501 -0.00000000000E+00  0.00000000000E+00  0.35362835806E+03  0.35362835806E+03  0.00000000000E+00 0.  1.
          1   -1    0    0  501    0  0.00000000000E+00 -0.00000000000E+00 -0.35386844669E+03  0.35386844669E+03  0.00000000000E+00 0. -1.
         25    2    1    2    0    0 -0.18735513293E+03 -0.24984145935E+03 -0.12517830198E+03  0.35894207188E+03  0.12508838088E+03 0.  0.
          5    1    3    3  502    0 -0.83799560575E+02 -0.10653637069E+03  0.10533639792E+02  0.13601762606E+03  0.41800000000E+01 0.  1.
         -5    1    3    3    0  502 -0.10355557236E+03 -0.14330508866E+03 -0.13571194178E+03  0.22292444582E+03  0.41800000000E+01 0.  1.
        -11    1    1    2    0    0  0.19302947459E+02  0.66681224423E+02 -0.19932988047E+01  0.69447553674E+02  0.00000000000E+00 0. -1.
         11    1    1    2    0    0  0.16805218547E+03  0.18316023493E+03  0.12693151216E+03  0.27910717920E+03  0.00000000000E+00 0.  1.
</event>
<event>
 7    1  0.2820496E-009  0.1248013E+03  0.7561462E-02  0.1235380E+00
          1   -1    0    0  501    0  0.00000000000E+00  0.00000000000E+00  0.62073589609E+03  0.62073589609E+03  0.00000000000E+00 0. -1.
         -1   -1    0    0    0  501 -0.00000000000E+00 -0.00000000000E+00 -0.37320368527E+02  0.37320368527E+02  0.00000000000E+00 0.  1.
         25    2    1    2    0    0 -0.53321254294E+02 -0.92328280501E+02  0.30186199905E+03  0.34370947640E+03  0.12509144718E+03 0.  0.
          5    1    3    3  502    0 -0.55167149011E+02 -0.10336346102E+03  0.14533516100E+03  0.18672761132E+03  0.41800000000E+01 0.  1.
         -5    1    3    3    0  502  0.18458947171E+01  0.11035180522E+02  0.15652683804E+03  0.15698186508E+03  0.41800000000E+01 0.  1.
        -11    1    1    2    0    0  0.35724932447E+02  0.11250167540E+02  0.25819791363E+02  0.45491743142E+02  0.00000000000E+00 0.  1.
         11    1    1    2    0    0  0.17596321847E+02  0.81078112961E+02  0.25573373716E+03  0.26885504508E+03  0.00000000000E+00 0. -1.
</event>
<event>
 7    1  0.2820496E-009  0.7398748E+02  0.7561462E-02  0.1347035E+00
         -2   -1    0    0    0  501 -0.00000000000E+00  0.00000000000E+00  0.50867715290E+02  0.50867715290E+02  0.00000000000E+00 0.  1.
          2   -1    0    0  501    0  0.00000000000E+00 -0.00000000000E+00 -0.24512380807E+03  0.24512380807E+03  0.00000000000E+00 0. -1.
         25    2    1    2    0    0 -0.92572546079E+01  0.14060719744E+01 -0.13820033222E+03  0.18663850435E+03  0.12508767197E+03 0.  0.
          5    1    3    3  502    0 -0.39242361885E+02 -0.41180108319E+02 -0.25626629225E+02  0.62529679456E+02  0.41800000000E+01 0.  1.
         -5    1    3    3    0  502  0.29985107277E+02  0.42586180293E+02 -0.11257370299E+03  0.12410882489E+03  0.41800000000E+01 0.  1.
        -11    1    1    2    0    0 -0.13201052971E+02 -0.78036793328E+01  0.22595754265E+02  0.27308118234E+02  0.00000000000E+00 0.  1.
         11    1    1    2    0    0  0.22458307579E+02  0.63976073584E+01 -0.78651514828E+02  0.82044900780E+02  0.00000000000E+00 0. -1.
</event>
<event>
 7    1  0.2820496E-009  0.1128173E+03  0.7561462E-02  0.1255440E+00
         -2   -1    0    0    0  501 -0.00000000000E+00  0.00000000000E+00  0.77787245963E+02  0.77787245963E+02  0.00000000000E+00 0.  1.
          2   -1    0    0  501    0  0.00000000000E+00 -0.00000000000E+00 -0.24807385102E+03  0.24807385102E+03  0.00000000000E+00 0. -1.
         25    2    1    2    0    0 -0.41206442684E+01  0.63960195453E+02 -0.15360643769E+03  0.20820967814E+03  0.12509374909E+03 0.  0.
          5    1    3    3  502    0 -0.19273043312E+02  0.99002707843E+02 -0.98512358722E+02  0.14105014562E+03  0.41800000000E+01 0.  1.
         -5    1    3    3    0  502  0.15152399043E+02 -0.35042512391E+02 -0.55094078967E+02  0.67159532522E+02  0.41800000000E+01 0.  1.
        -11    1    1    2    0    0  0.12129785925E+02  0.75734013446E+01 -0.39605687746E+02  0.42108177548E+02  0.00000000000E+00 0. -1.
         11    1    1    2    0    0 -0.80091416570E+01 -0.71533596797E+02  0.22925520376E+02  0.75543241295E+02  0.00000000000E+00 0.  1.
</event>
<event>
 7    1  0.2820496E-009  0.1013213E+03  0.7561462E-02  0.1277542E+00
         -2   -1    0    0    0  501 -0.00000000000E+00  0.00000000000E+00  0.31268721305E+02  0.31268721305E+02  0.00000000000E+00 0.  1.
          2   -1    0    0  501    0  0.00000000000E+00 -0.00000000000E+00 -0.74526864631E+03  0.74526864631E+03  0.00000000000E+00 0. -1.
         25    2    1    2    0    0 -0.28837368456E+02 -0.65943807521E+02 -0.18301545813E+03  0.23307137878E+03  0.12508968832E+03 0.  0.
          5    1    3    3  502    0  0.15534602467E+02 -0.53882181499E+01 -0.14999514883E+03  0.15095156124E+03  0.41800000000E+01 0.  1.
         -5    1    3    3    0  502 -0.44371970922E+02 -0.60555589371E+02 -0.33020309302E+02  0.82119817547E+02  0.41800000000E+01 0.  1.
        -11    1    1    2    0    0 -0.23067389477E+02 -0.39773062680E+01 -0.58236901949E+02  0.62765119063E+02  0.00000000000E+00 0.  1.
         11    1    1    2    0    0  0.51904757933E+02  0.69921113789E+02 -0.47274756493E+03  0.48070086977E+03  0.00000000000E+00 0. -1.
</event>
<event>
 7    1  0.2820496E-009  0.9453792E+02  0.7561462E-02  0.1292220E+00
          1   -1    0    0  501    0  0.00000000000E+00  0.00000000000E+00  0.41562555225E+03  0.41562555225E+03  0.00000000000E+00 0. -1.
         -1   -1    0    0    0  501 -0.00000000000E+00 -0.00000000000E+00 -0.29616272669E+02  0.29616272669E+02  0.00000000000E+00 0.  1.
         25    2    1    2    0    0  0.32816492494E+02  0.18267829088E+00  0.25329281898E+03  0.28439734035E+03  0.12509052522E+03 0.  0.
          5    1    3    3  502    0  0.75013838230E+02  0.14437352696E+02  0.10784551061E+03  0.13222571473E+03  0.41800000000E+01 0. -1.
         -5    1    3    3    0  502 -0.42197345736E+02 -0.14254674405E+02  0.14544730838E+03  0.15217162562E+03  0.41800000000E+01 0. -1.
        -11    1    1    2    0    0 -0.49336140148E+01  0.27857849070E+02  0.11332268260E+03  0.11680081633E+03  0.00000000000E+00 0. -1.
         11    1    1    2    0    0 -0.27882878479E+02 -0.28040527361E+02  0.19393777991E+02  0.44043668237E+02  0.00000000000E+00 0.  1.
</event>
<event>
 7    1  0.2820496E-009  0.1474654E+03  0.7561462E-02  0.1203623E+00
         -1   -1    0    0    0  501 -0.00000000000E+00  0.00000000000E+00  0.18091656122E+02  0.18091656122E+02  0.00000000000E+00 0.  1.
          1   -1    0    0  501    0  0.00000000000E+00 -0.00000000000E+00 -0.16523191060E+04  0.16523191060E+04  0.00000000000E+00 0. -1.
         25    2    1    2    0    0 -0.90940981321E+02 -0.95580092055E+02 -0.91137766997E+03  0.92933488470E+03  0.12509298352E+03 0.  0.
          5    1    3    3  502    0 -0.56461177391E+02 -0.91162434216E+02 -0.86283722838E+03  0.86948491019E+03  0.41800000000E+01 0.  1.
         -5    1    3    3    0  502 -0.34479803930E+02 -0.44176578394E+01 -0.48540441590E+02  0.59849974516E+02  0.41800000000E+01 0.  1.
        -11    1    1    2    0    0 -0.75901025808E+01  0.37438359962E+02 -0.87020028892E+02  0.95035392787E+02  0.00000000000E+00 0. -1.
         11    1    1    2    0    0  0.98531083901E+02  0.58141732093E+02 -0.63582975097E+03  0.64604048459E+03  0.00000000000E+00 0.  1.
</event>
<event>
 7    1  0.2820496E-009  0.1172908E+03  0.7561462E-02  0.1247634E+00
         -1   -1    0    0    0  501 -0.00000000000E+00  0.00000000000E+00  0.40890941248E+03  0.40890941248E+03  0.00000000000E+00 0.  1.
          1   -1    0    0  501    0  0.00000000000E+00 -0.00000000000E+00 -0.37644918604E+02  0.37644918604E+02  0.00000000000E+00 0. -1.
         25    2    1    2    0    0 -0.43414291360E+02 -0.42480936423E+02  0.18977808708E+03  0.23527235368E+03  0.12509167605E+03 0.  0.
          5    1    3    3  502    0 -0.77123266262E+02  0.34292553178E+01  0.13801914002E+03  0.15819770353E+03  0.41800000000E+01 0.  1.
         -5    1    3    3    0  502  0.33708974902E+02 -0.45910191741E+02  0.51758947057E+02  0.77074650146E+02  0.41800000000E+01 0.  1.
        -11    1    1    2    0    0 -0.13740619556E+02  0.40721721175E+02  0.40140232817E+02  0.58807325154E+02  0.00000000000E+00 0. -1.
         11    1    1    2    0    0  0.57154910915E+02  0.17592152482E+01  0.14134617398E+03  0.15247465225E+03  0.00000000000E+00 0.  1.
</event>
<event>
 6    1  0.2820496E-009  0.1359858E+03  0.7561462E-02  0.1218835E+00
         -3   -1    0    0    0  501 -0.00000000000E+00  0.00000000000E+00  0.33533694143E+03  0.33533694143E+03  0.00000000000E+00 0.  1.
          3   -1    0    0  501    0  0.00000000000E+00 -0.00000000000E+00 -0.10269992270E+03  0.10269992270E+03  0.00000000000E+00 0. -1.
          5    1    1    2  502    0 -0.40273473890E+02 -0.52265947128E+00  0.15042637619E+02  0.43196981592E+02  0.41800000000E+01 0. -1.
         -5    1    1    2    0  502  0.67759358754E+01  0.99290054749E+02  0.23425589089E+03  0.25455396892E+03  0.41800000000E+01 0. -1.
        -11    1    1    2    0    0  0.37911496350E+02 -0.11182998547E+03  0.74024831565E+00  0.11808376337E+03  0.00000000000E+00 0.  1.
         11    1    1    2    0    0 -0.44139583350E+01  0.13062590188E+02 -0.17401758093E+02  0.22202150242E+02  0.00000000000E+00 0. -1.
</event>
<event>
 7    1  0.2820496E-009  0.1372460E+03  0.7561462E-02  0.1217083E+00
         -3   -1    0    0    0  501 -0.00000000000E+00  0.00000000000E+00  0.53545552796E+02  0.53545552796E+02  0.00000000000E+00 0.  1.
          3   -1    0    0  501    0  0.00000000000E+00 -0.00000000000E+00 -0.48750604092E+03  0.48750604092E+03  0.00000000000E+00 0. -1.
         25    2    1    2    0    0 -0.23272274775E+02 -0.11470274219E+03 -0.19812507615E+03  0.26191427024E+03  0.12508885368E+03 0.  0.
          5    1    3    3  502    0  0.52930902819E+01 -0.10630113988E+03 -0.63573993108E+02  0.12404464577E+03  0.41800000000E+01 0.  1.
         -5    1    3    3    0  502 -0.28565365057E+02 -0.84016023037E+01 -0.13455108304E+03  0.13786962446E+03  0.41800000000E+01 0.  1.
        -11    1    1    2    0    0  0.49886695780E+02  0.72053182152E+02 -0.93340514370E+02  0.12803435124E+03  0.00000000000E+00 0.  1.
         11    1    1    2    0    0 -0.26614421005E+02  0.42649560037E+02 -0.14249489760E+03  0.15110297224E+03  0.00000000000E+00 0. -1.
</event>
<event>
 7    1  0.2820496E-009  0.1276428E+03  0.7561462E-02  0.1230996E+00
         -1   -1    0    0    0  501 -0.00000000000E+00  0.00000000000E+00  0.24619563031E+02  0.24619563031E+02  0.00000000000E+00 0.  1.
          1   -1    0    0  501    0  0.00000000000E+00 -0.00000000000E+00 -0.74069539423E+03  0.74069539423E+03  0.00000000000E+00 0. -1.
         25    2    1    2    0    0 -0.81464230709E+02  0.19075226875E+02 -0.41853705384E+03  0.44476872501E+03  0.12508264524E+03 0.  0.
          5    1    3    3  502    0 -0.97110845270E-01  0.50201273421E+02 -0.75102870958E+02  0.90432797755E+02  0.41800000000E+01 0. -1.
         -5    1    3    3    0  502 -0.81367119864E+02 -0.31126046547E+02 -0.34343418289E+03  0.35433592725E+03  0.41800000000E+01 0. -1.
        -11    1    1    2    0    0  0.62186322623E+02 -0.50982790538E+02 -0.22594662707E+03  0.23982965191E+03  0.00000000000E+00 0.  1.
         11    1    1    2    0    0  0.19277908087E+02  0.31907563663E+02 -0.71592150290E+02  0.80716580343E+02  0.00000000000E+00 0. -1.
</event>
<event>
 6    1  0.2820496E-009  0.9789993E+02  0.7561462E-02  0.1284775E+00
          2   -1    0    0  501    0  0.00000000000E+00  0.00000000000E+00  0.31821355306E+03  0.31821355306E+03  0.00000000000E+00 0. -1.
         -2   -1    0    0    0  501 -0.00000000000E+00 -0.00000000000E+00 -0.39905049039E+02  0.39905049039E+02  0.00000000000E+00 0.  1.
          5    1    1    2  502    0 -0.58761864799E+02  0.14283394291E+01  0.21366267478E+02  0.62681629638E+02  0.41800000000E+01 0. -1.
         -5    1    1    2    0  502  0.36352737624E+02  0.18016869135E+02  0.12762116410E+03  0.13398045765E+03  0.41800000000E+01 0. -1.
        -11    1    1    2    0    0 -0.10712658267E+02  0.32644093847E+02  0.37987163067E+02  0.51219356381E+02  0.00000000000E+00 0. -1.
         11    1    1    2    0    0  0.33121785443E+02 -0.52089302411E+02  0.91333909377E+02  0.11023715843E+03  0.00000000000E+00 0.  1.
</event>
<event>
 7    1  0.2820496E-009  0.8600721E+02  0.7561462E-02  0.1312819E+00
          4   -1    0    0  501    0  0.00000000000E+00  0.00000000000E+00  0.14347167053E+03  0.14347167053E+03  0.00000000000E+00 0. -1.
         -4   -1    0    0    0  501 -0.00000000000E+00 -0.00000000000E+00 -0.10130469459E+03  0.10130469459E+03  0.00000000000E+00 0.  1.
         25    2    1    2    0    0  0.25260798735E+02  0.40396485505E+00 -0.21708145133E+02  0.12944813337E+03  0.12508918629E+03 0.  0.
          5    1    3    3  502    0  0.44260010702E+02  0.27752684764E+02 -0.59242715637E+02  0.79096977281E+02  0.41800000000E+01 0.  1.
         -5    1    3    3    0  502 -0.18999211968E+02 -0.27348719909E+02  0.37534570504E+02  0.50351156084E+02  0.41800000000E+01 0.  1.
        -11    1    1    2    0    0 -0.21002306699E+02 -0.40553639347E+02  0.59074114006E+02  0.74668905821E+02  0.00000000000E+00 0. -1.
         11    1    1    2    0    0 -0.42584920359E+01  0.40149674492E+02  0.48010070738E+01  0.40659325931E+02  0.00000000000E+00 0.  1.
</event>
<event>
 7    1  0.2820496E-009  0.1188629E+03  0.7561462E-02  0.1244985E+00
          1   -1    0    0  501    0  0.00000000000E+00  0.00000000000E+00  0.14665459426E+04  0.14665459426E+04  0.00000000000E+00 0. -1.
         -1   -1    0    0    0  501 -0.00000000000E+00 -0.00000000000E+00 -0.27343285842E+02  0.27343285842E+02  0.00000000000E+00 0.  1.
         25    2    1    2    0    0 -0.29857891854E+02  0.82189401793E+02  0.12862212870E+04  0.12952449169E+04  0.12509038426E+03 0.  0.
          5    1    3    3  502    0  0.11982044244E+02  0.81280685157E+02  0.11435083273E+04  0.11464636437E+04  0.41800000000E+01 0. -1.
         -5    1    3    3    0  502 -0.41839936098E+02  0.90871663622E+00  0.14271295968E+03  0.14878127328E+03  0.41800000000E+01 0. -1.
        -11    1    1    2    0    0  0.40063499027E+02 -0.91311587797E+02  0.90428612148E+02  0.13461138108E+03  0.00000000000E+00 0.  1.
         11    1    1    2    0    0 -0.10205607173E+02  0.91221860034E+01  0.62552757624E+02  0.64032930447E+02  0.00000000000E+00 0. -1.
</event>
<event>
 7    1  0.2820496E-009  0.2293288E+03  0.7561462E-02  0.1127113E+00
          2   -1    0    0  501    0  0.00000000000E+00  0.00000000000E+00  0.13397275738E+04  0.13397275738E+04  0.00000000000E+00 0. -1.
         -2   -1    0    0    0  501 -0.00000000000E+00 -0.00000000000E+00 -0.47220344604E+02  0.47220344604E+02  0.00000000000E+00 0.  1.
         25    2    1    2    0    0  0.20206100912E+03  0.92221360301E+02  0.75571520176E+03  0.79755004072E+03  0.12508865085E+03 0.  0.
          5    1    3    3  502    0  0.35089859671E+02  0.13329166655E+02  0.34678401664E+03  0.34883461918E+03  0.41800000000E+01 0.  1.
         -5    1    3    3    0  502  0.16697114945E+03  0.78892193647E+02  0.40893118512E+03  0.44871542154E+03  0.41800000000E+01 0.  1.
        -11    1    1    2    0    0 -0.16915990556E+03 -0.38993910126E+02  0.45062714289E+03  0.48290829418E+03  0.00000000000E+00 0. -1.
         11    1    1    2    0    0 -0.32901103559E+02 -0.53227450175E+02  0.86164884552E+02  0.10648958352E+03  0.00000000000E+00 0.  1.
</event>
<event>
 7    1  0.2820496E-009  0.1150933E+03  0.7561462E-02  0.1251418E+00
          2   -1    0    0  501    0  0.00000000000E+00  0.00000000000E+00  0.43434063856E+02  0.43434063856E+02  0.00000000000E+00 0. -1.
         -2   -1    0    0    0  501 -0.00000000000E+00 -0.00000000000E+00 -0.34981152160E+03  0.34981152160E+03  0.00000000000E+00 0.  1.
         25    2    1    2    0    0  0.10653219535E+02 -0.52179864238E+02 -0.19419364971E+03  0.23705452192E+03  0.12508974162E+03 0.  0.
          5    1    3    3  502    0 -0.33816754664E+02  0.25897265447E+02 -0.40216731617E+02  0.58729031625E+02  0.41800000000E+01 0. -1.
         -5    1    3    3    0  502  0.44469974199E+02 -0.78077129684E+02 -0.15397691809E+03  0.17832549030E+03  0.41800000000E+01 0. -1.
        -11    1    1    2    0    0 -0.40492025020E+02  0.38977253955E+01 -0.82855948989E+02  0.92303329497E+02  0.00000000000E+00 0.  1.
         11    1    1    2    0    0  0.29838805485E+02  0.48282138842E+02 -0.29327859045E+02  0.63887734035E+02  0.00000000000E+00 0. -1.
</event>
<event>
 7    1  0.2820496E-009  0.1589661E+03  0.7561462E-02  0.1189869E+00
          2   -1    0    0  501    0  0.00000000000E+00  0.00000000000E+00  0.16263904245E+04  0.16263904245E+04  0.00000000000E+00 0. -1.
         -2   -1    0    0    0  501 -0.00000000000E+00 -0.00000000000E+00 -0.26024257331E+02  0.26024257331E+02  0.00000000000E+00 0.  1.
         25    2    1    2    0    0  0.13778666137E+03  0.23120053825E+02  0.12591149776E+04  0.12730032879E+04  0.12508854193E+03 0.  0.
          5    1    3    3  502    0 -0.50288458106E+01 -0.26199806551E+02  0.38256863156E+03  0.38352046805E+03  0.41800000000E+01 0. -1.
         -5    1    3    3    0  502  0.14281550719E+03  0.49319860376E+02  0.87654634605E+03  0.88948281990E+03  0.41800000000E+01 0. -1.
        -11    1    1    2    0    0 -0.10114114806E+03 -0.15039146599E+02  0.13277890958E+03  0.16758862310E+03  0.00000000000E+00 0.  1.
         11    1    1    2    0    0 -0.36645513313E+02 -0.80809072253E+01  0.20847227995E+03  0.21182277076E+03  0.00000000000E+00 0. -1.
</event>
<event>
 7    1  0.2820496E-009  0.7045893E+02  0.7561462E-02  0.1358539E+00
          1   -1    0    0  501    0  0.00000000000E+00  0.00000000000E+00  0.51083035149E+02  0.51083035149E+02  0.00000000000E+00 0. -1.
         -1   -1    0    0    0  501 -0.00000000000E+00 -0.00000000000E+00 -0.24820782668E+03  0.24820782668E+03  0.00000000000E+00 0.  1.
         25    2    1    2    0    0 -0.23702349597E+02 -0.16485853355E+02 -0.12767656374E+03  0.18106220468E+03  0.12509449348E+03 0.  0.
          5    1    3    3  502    0  0.14727523103E+02 -0.18349478408E+02  0.18263927404E+02  0.30077345940E+02  0.41800000000E+01 0. -1.
         -5    1    3    3    0  502 -0.38429872701E+02  0.18636250523E+01 -0.14594049114E+03  0.15098485874E+03  0.41800000000E+01 0. -1.
        -11    1    1    2    0    0  0.46072159668E+02  0.27214668798E+02 -0.10855234887E+02  0.54599617386E+02  0.00000000000E+00 0. -1.
         11    1    1    2    0    0 -0.22369810071E+02 -0.10728815443E+02 -0.58592992907E+02  0.63629039763E+02  0.00000000000E+00 0.  1.
</event>
<event>
 7    1  0.2820496E-009  0.1034069E+03  0.7561462E-02  0.1273291E+00
         -1   -1    0    0    0  501 -0.00000000000E+00  0.00000000000E+00  0.33040860301E+03  0.33040860301E+03  0.00000000000E+00 0.  1.
          1   -1    0    0  501    0  0.00000000000E+00 -0.00000000000E+00 -0.44022433469E+02  0.44022433469E+02  0.00000000000E+00 0. -1.
         25    2    1    2    0    0  0.12188032904E+02 -0.10536743208E+02  0.23870189796E+03  0.26997292497E+03  0.12508882054E+03 0.  0.
          5    1    3    3  502    0  0.64909281261E+02 -0.27299529097E+02  0.13898078078E+03  0.15585765592E+03  0.41800000000E+01 0. -1.
         -5    1    3    3    0  502 -0.52721248357E+02  0.16762785889E+02  0.99721117174E+02  0.11411526905E+03  0.41800000000E+01 0. -1.
        -11    1    1    2    0    0  0.28284637051E+02  0.25064988347E+02 -0.30932841202E+01  0.37918896880E+02  0.00000000000E+00 0.  1.
         11    1    1    2    0    0 -0.40472669955E+02 -0.14528245139E+02  0.50777555702E+02  0.66539214627E+02  0.00000000000E+00 0. -1.
</event>
<event>
 7    1  0.2820496E-009  0.9373045E+02  0.7561462E-02  0.1294061E+00
          2   -1    0    0  501    0  0.00000000000E+00  0.00000000000E+00  0.79527560616E+02  0.79527560616E+02  0.00000000000E+00 0.  1.
         -2   -1    0    0    0  501 -0.00000000000E+00 -0.00000000000E+00 -0.17457989396E+03  0.17457989396E+03  0.00000000000E+00 0. -1.
         25    2    1    2    0    0 -0.15527644433E+02 -0.38511355754E+02 -0.31078913715E+02  0.13542178744E+03  0.12509568087E+03 0.  0.
          5    1    3    3  502    0  0.20324526611E+02 -0.59501413616E+02 -0.58079142150E+02  0.85698096578E+02  0.41800000000E+01 0.  1.
         -5    1    3    3    0  502 -0.35852171044E+02  0.20990057862E+02  0.27000228435E+02  0.49723690864E+02  0.41800000000E+01 0.  1.
        -11    1    1    2    0    0  0.42743650752E+02  0.35008095187E+02 -0.73154247454E+01  0.55732412898E+02  0.00000000000E+00 0.  1.
         11    1    1    2    0    0 -0.27216006319E+02  0.35032605676E+01 -0.56657994886E+02  0.62953254237E+02  0.00000000000E+00 0. -1.
</event>
<event>
 7    1  0.2820496E-009  0.1572062E+03  0.7561462E-02  0.1191887E+00
          2   -1    0    0  501    0  0.00000000000E+00  0.00000000000E+00  0.24125594521E+03  0.24125594521E+03  0.00000000000E+00 0. -1.
         -2   -1    0    0    0  501 -0.00000000000E+00 -0.00000000000E+00 -0.10683279022E+03  0.10683279022E+03  0.00000000000E+00 0.  1.
         25    2    1    2    0    0  0.11583803544E+03  0.23198798690E+02  0.81933116653E+02  0.19057368097E+03  0.12509459444E+03 0.  0.
          5    1    3    3  502    0  0.13442263595E+03 -0.22195383492E+01  0.44940400300E+02  0.14181496178E+03  0.41800000000E+01 0.  1.
         -5    1    3    3    0  502 -0.18584600508E+02  0.25418337040E+02  0.36992716353E+02  0.48758719190E+02  0.41800000000E+01 0.  1.
        -11    1    1    2    0    0 -0.80615277070E+02  0.28569365372E+02  0.35768977279E+02  0.92706263383E+02  0.00000000000E+00 0.  1.
         11    1    1    2    0    0 -0.35222758368E+02 -0.51768164062E+02  0.16721061062E+02  0.64808791074E+02  0.00000000000E+00 0. -1.
</event>
<event>
 7    1  0.2820496E-009  0.1209537E+03  0.7561462E-02  0.1241532E+00
          1   -1    0    0  501    0  0.00000000000E+00  0.00000000000E+00  0.93491638503E+03  0.93491638503E+03  0.00000000000E+00 0. -1.
         -1   -1    0    0    0  501 -0.00000000000E+00 -0.00000000000E+00 -0.21551096267E+02  0.21551096267E+02  0.00000000000E+00 0.  1.
         25    2    1    2    0    0  0.19484515964E+02  0.81912384355E+02  0.36382925393E+03  0.39383871519E+03  0.12509165638E+03 0.  0.
          5    1    3    3  502    0  0.47761328847E+01  0.99718148404E+02  0.15982496010E+03  0.18848875520E+03  0.41800000000E+01 0. -1.
         -5    1    3    3    0  502  0.14708383079E+02 -0.17805764049E+02  0.20400429384E+03  0.20534995999E+03  0.41800000000E+01 0. -1.
        -11    1    1    2    0    0  0.32964066619E+02 -0.27332623382E+02  0.15034833661E+03  0.15632761851E+03  0.00000000000E+00 0.  1.
         11    1    1    2    0    0 -0.52448582583E+02 -0.54579760973E+02  0.39918769822E+03  0.40630114759E+03  0.00000000000E+00 0. -1.
</event>
<event>
 7    1  0.2820496E-009  0.2327270E+03  0.7561462E-02  0.1124735E+00
          1   -1    0    0  501    0  0.00000000000E+00  0.00000000000E+00  0.19984412866E+04  0.19984412866E+04  0.00000000000E+00 0. -1.
         -1   -1    0    0    0  501 -0.00000000000E+00 -0.00000000000E+00 -0.35624189920E+02  0.35624189920E+02  0.00000000000E+00 0.  1.
         25    2    1    2    0    0 -0.20761125368E+03  0.27421739722E+02  0.14767838856E+04  0.14967941463E+04  0.12509071546E+03 0.  0.
          5    1    3    3  502    0  0.11153171643E+02  0.21715599881E+02  0.17336011955E+03  0.17512042704E+03  0.41800000000E+01 0.  1.
         -5    1    3    3    0  502 -0.21876442532E+03  0.57061398412E+01  0.13034237660E+04  0.13216737192E+04  0.41800000000E+01 0.  1.
        -11    1    1    2    0    0  0.15366222914E+03  0.13268656552E+02  0.39385743653E+03  0.42297969008E+03  0.00000000000E+00 0.  1.
         11    1    1    2    0    0  0.53949024538E+02 -0.40690396274E+02  0.92175774564E+02  0.11429164018E+03  0.00000000000E+00 0. -1.
</event>
<event>
 7    1  0.2820496E-009  0.1082468E+03  0.7561462E-02  0.1263851E+00
          1   -1    0    0  501    0  0.00000000000E+00  0.00000000000E+00  0.62139226603E+02  0.62139226603E+02  0.00000000000E+00 0. -1.
         -1   -1    0    0    0  501 -0.00000000000E+00 -0.00000000000E+00 -0.25485185089E+03  0.25485185089E+03  0.00000000000E+00 0.  1.
         25    2    1    2    0    0  0.52556172493E+02 -0.31167754124E+02 -0.10388440009E+03  0.17370792532E+03  0.12509554178E+03 0.  0.
          5    1    3    3  502    0  0.80730301164E+02 -0.50137855892E+01 -0.10780551708E+03  0.13484072636E+03  0.41800000000E+01 0.  1.
         -5    1    3    3    0  502 -0.28174128671E+02 -0.26153968535E+02  0.39211169932E+01  0.38867198959E+02  0.41800000000E+01 0.  1.
        -11    1    1    2    0    0  0.10768383785E+02 -0.14998889806E+02  0.67728331870E+01  0.19667131315E+02  0.00000000000E+00 0. -1.
         11    1    1    2    0    0 -0.63324556279E+02  0.46166643930E+02 -0.95601057381E+02  0.12361602085E+03  0.00000000000E+00 0.  1.
</event>
<event>
 7    1  0.2820496E-009  0.1267996E+03  0.7561462E-02  0.1232283E+00
          3   -1    0    0  501    0  0.00000000000E+00  0.00000000000E+00  0.59481543221E+02  0.59481543221E+02  0.00000000000E+00 0. -1.
         -3   -1    0    0    0  501 -0.00000000000E+00 -0.00000000000E+00 -0.32387297481E+03  0.32387297481E+03  0.00000000000E+00 0.  1.
         25    2    1    2    0    0  0.77986342428E+02 -0.13980102230E+02 -0.10065199822E+03  0.17904178783E+03  0.12509126341E+03 0.  0.
          5    1    3    3  502    0  0.10545356632E+03 -0.20770571500E+01 -0.10454512469E+03  0.14856622870E+03  0.41800000000E+01 0.  1.
         -5    1    3    3    0  502 -0.27467223890E+02 -0.11903045080E+02  0.38931264680E+01  0.30475559127E+02  0.41800000000E+01 0.  1.
        -11    1    1    2    0    0 -0.97393756289E+02  0.14098069350E+02 -0.15358779215E+03  0.18241027718E+03  0.00000000000E+00 0.  1.
         11    1    1    2    0    0  0.19407413861E+02 -0.11796711985E+00 -0.10151641227E+02  0.21902453027E+02  0.00000000000E+00 0. -1.
</event>
<event>
 7    1  0.2820496E-009  0.1476860E+03  0.7561462E-02  0.1203346E+00
         -2   -1    0    0    0  501 -0.00000000000E+00  0.00000000000E+00  0.32539658190E+03  0.32539658190E+03  0.00000000000E+00 0.  1.
          2   -1    0    0  501    0  0.00000000000E+00 -0.00000000000E+00 -0.11804319465E+03  0.11804319465E+03  0.00000000000E+00 0. -1.
         25    2    1    2    0    0 -0.13621387248E+03  0.93949929305E+01  0.20816379705E+03  0.27861167938E+03  0.12509922677E+03 0.  0.
          5    1    3    3  502    0 -0.13363213467E+03  0.32560645755E+01  0.22402547147E+03  0.26090809424E+03  0.41800000000E+01 0. -1.
         -5    1    3    3    0  502 -0.25817378122E+01  0.61389283550E+01 -0.15861674422E+02  0.17703585144E+02  0.41800000000E+01 0. -1.
        -11    1    1    2    0    0  0.11169473369E+03  0.22097943675E+02  0.25944145774E+02  0.11677812872E+03  0.00000000000E+00 0.  1.
         11    1    1    2    0    0  0.24519138795E+02 -0.31492936606E+02 -0.26754555567E+02  0.48049968438E+02  0.00000000000E+00 0. -1.
</event>
<event>
 7    1  0.2820496E-009  0.1356491E+03  0.7561462E-02  0.1219306E+00
         -3   -1    0    0    0  501 -0.00000000000E+00  0.00000000000E+00  0.18821270803E+03  0.18821270803E+03  0.00000000000E+00 0.  1.
          3   -1    0    0  501    0  0.00000000000E+00 -0.00000000000E+00 -0.12241952451E+03  0.12241952451E+03  0.00000000000E+00 0. -1.
         25    2    1    2    0    0  0.89784361633E+00 -0.10584408755E+03  0.59050732078E+02  0.17418709703E+03  0.12510147409E+03 0.  0.
          5    1    3    3  502    0 -0.60680049550E+02 -0.40761289867E+02  0.35935150853E+02  0.81561992569E+02  0.41800000000E+01 0. -1.
         -5    1    3    3    0  502  0.61577893167E+02 -0.65082797678E+02  0.23115581226E+02  0.92625104458E+02  0.41800000000E+01 0. -1.
        -11    1    1    2    0    0  0.96619524854E+01  0.24151355107E+02 -0.35391190870E+02  0.43922405109E+02  0.00000000000E+00 0. -1.
         11    1    1    2    0    0 -0.10559796102E+02  0.81692732438E+02  0.42133642314E+02  0.92522730405E+02  0.00000000000E+00 0.  1.
</event>
<event>
 7    1  0.2820496E-009  0.1783127E+03  0.7561462E-02  0.1169446E+00
          1   -1    0    0  501    0  0.00000000000E+00  0.00000000000E+00  0.34488315194E+03  0.34488315194E+03  0.00000000000E+00 0. -1.
         -1   -1    0    0    0  501 -0.00000000000E+00 -0.00000000000E+00 -0.11494086810E+03  0.11494086810E+03  0.00000000000E+00 0.  1.
         25    2    1    2    0    0  0.81902172613E+01  0.15925493087E+03  0.64030294789E+02  0.21254834402E+03  0.12509079594E+03 0.  0.
          5    1    3    3  502    0  0.30861026074E+02  0.13975782046E+03  0.15932732932E+01  0.14319449092E+03  0.41800000000E+01 0.  1.
         -5    1    3    3    0  502 -0.22670808813E+02  0.19497110414E+02  0.62437021496E+02  0.69353853102E+02  0.41800000000E+01 0.  1.
        -11    1    1    2    0    0 -0.35894300030E+02 -0.14969822274E+03  0.13623151166E+03  0.20556503457E+03  0.00000000000E+00 0.  1.
         11    1    1    2    0    0  0.27704082769E+02 -0.95567081282E+01  0.29680477394E+02  0.41710641456E+02  0.00000000000E+00 0. -1.
</event>
<event>
 7    1  0.2820496E-009  0.8837844E+02  0.7561462E-02  0.1306827E+00
         -1   -1    0    0    0  501 -0.00000000000E+00  0.00000000000E+00  0.18648551813E+03  0.18648551813E+03  0.00000000000E+00 0.  1.
          1   -1    0    0  501    0  0.00000000000E+00 -0.00000000000E+00 -0.86690328450E+02  0.86690328450E+02  0.00000000000E+00 0. -1.
         25    2    1    2    0    0 -0.15022497163E+02 -0.55048931923E+02  0.20535277708E+02  0.13901518591E+03  0.12508982355E+03 0.  0.
          5    1    3    3  502    0  0.23133990338E+02 -0.50291295746E+02  0.61381357154E+02  0.82761943808E+02  0.41800000000E+01 0. -1.
         -5    1    3    3    0  502 -0.38156487501E+02 -0.47576361767E+01 -0.40846079446E+02  0.56253242097E+02  0.41800000000E+01 0. -1.
        -11    1    1    2    0    0  0.32173582042E+02  0.89761731463E+01 -0.76890431400E+01  0.34275828949E+02  0.00000000000E+00 0. -1.
         11    1    1    2    0    0 -0.17151084879E+02  0.46072758777E+02  0.86948955108E+02  0.99884831722E+02  0.00000000000E+00 0.  1.
</event>
<event>
 7    1  0.2820496E-009  0.1114607E+03  0.7561462E-02  0.1257889E+00
         -1   -1    0    0    0  501 -0.00000000000E+00  0.00000000000E+00  0.58553045448E+03  0.58553045448E+03  0.00000000000E+00 0. -1.
          1   -1    0    0  501    0  0.00000000000E+00 -0.00000000000E+00 -0.36257028635E+02  0.36257028635E+02  0.00000000000E+00 0.  1.
         25    2    1    2    0    0  0.60068047567E+02 -0.70611159660E+02  0.23611478833E+03  0.28283911655E+03  0.12511461297E+03 0.  0.
          5    1    3    3  502    0  0.21873584116E+02 -0.29688737623E+02 -0.29907529299E+01  0.37232940077E+02  0.41800000000E+01 0. -1.
         -5    1    3    3    0  502  0.38194463451E+02 -0.40922422037E+02  0.23910554126E+03  0.24560617648E+03  0.41800000000E+01 0. -1.
        -11    1    1    2    0    0 -0.67786793603E+00 -0.20720793457E+02  0.51405748402E+02  0.55428889175E+02  0.00000000000E+00 0. -1.
         11    1    1    2    0    0 -0.59390179631E+02  0.91331953117E+02  0.26175288911E+03  0.28351947738E+03  0.00000000000E+00 0.  1.
</event>
<event>
 7    1  0.2820496E-009  0.8293540E+02  0.7561462E-02  0.1320922E+00
         -1   -1    0    0    0  501 -0.00000000000E+00  0.00000000000E+00  0.53859571289E+02  0.53859571289E+02  0.00000000000E+00 0.  1.
          1   -1    0    0  501    0  0.00000000000E+00 -0.00000000000E+00 -0.25407225449E+03  0.25407225449E+03  0.00000000000E+00 0. -1.
         25    2    1    2    0    0  0.35678677899E+02  0.12903443007E+02 -0.14356740826E+03  0.19416123555E+03  0.12509003868E+03 0.  0.
          5    1    3    3  502    0 -0.42367372369E+02  0.93027544137E+01 -0.20097802733E+02  0.47988848244E+02  0.41800000000E+01 0. -1.
         -5    1    3    3    0  502  0.78046050268E+02  0.36006885933E+01 -0.12346960553E+03  0.14617238731E+03  0.41800000000E+01 0. -1.
        -11    1    1    2    0    0 -0.14975974186E+02  0.58892049785E+01  0.23729482301E+02  0.28671429479E+02  0.00000000000E+00 0.  1.
         11    1    1    2    0    0 -0.20702703714E+02 -0.18792647986E+02 -0.80374757234E+02  0.85099160747E+02  0.00000000000E+00 0. -1.
</event>
<event>
 7    1  0.2820496E-009  0.1793236E+03  0.7561462E-02  0.1168459E+00
         -2   -1    0    0    0  501 -0.00000000000E+00  0.00000000000E+00  0.10832686760E+03  0.10832686760E+03  0.00000000000E+00 0.  1.
          2   -1    0    0  501    0  0.00000000000E+00 -0.00000000000E+00 -0.52977498706E+03  0.52977498706E+03  0.00000000000E+00 0. -1.
         25    2    1    2    0    0 -0.12894340532E+03  0.78138157479E+02 -0.16622972117E+02  0.19661361242E+03  0.12509442816E+03 0.  0.
          5    1    3    3  502    0 -0.16833666631E+02  0.79020927883E+02  0.93930370528E+01  0.81445570296E+02  0.41800000000E+01 0. -1.
         -5    1    3    3    0  502 -0.11210973869E+03 -0.88277040458E+00 -0.26016009170E+02  0.11516804212E+03  0.41800000000E+01 0. -1.
        -11    1    1    2    0    0  0.71745086719E+02 -0.39195942325E+01 -0.25363512976E+03  0.26361619779E+03  0.00000000000E+00 0.  1.
         11    1    1    2    0    0  0.57198318602E+02 -0.74218563246E+02 -0.15119001759E+03  0.17787204446E+03  0.00000000000E+00 0. -1.
</event>
<event>
 7    1  0.2820496E-009  0.1095552E+03  0.7561462E-02  0.1261396E+00
         -2   -1    0    0    0  501 -0.00000000000E+00  0.00000000000E+00  0.31157795186E+02  0.31157795186E+02  0.00000000000E+00 0.  1.
          2   -1    0    0  501    0  0.00000000000E+00 -0.00000000000E+00 -0.42032551677E+03  0.42032551677E+03  0.00000000000E+00 0. -1.
         25    2    1    2    0    0  0.11520466425E+02  0.31163355071E+02 -0.25453724613E+03  0.28555278260E+03  0.12508919272E+03 0.  0.
          5    1    3    3  502    0  0.16479485161E+02  0.78773052213E+02 -0.17431429155E+03  0.19204091186E+03  0.41800000000E+01 0. -1.
         -5    1    3    3    0  502 -0.49590187368E+01 -0.47609697142E+02 -0.80222954575E+02  0.93511870741E+02  0.41800000000E+01 0. -1.
        -11    1    1    2    0    0  0.26439215986E+02 -0.43202871685E+02 -0.10403953807E+03  0.11571406892E+03  0.00000000000E+00 0. -1.
         11    1    1    2    0    0 -0.37959682410E+02  0.12039516614E+02 -0.30590937380E+02  0.50216460437E+02  0.00000000000E+00 0.  1.
</event>
<event>
 7    1  0.2820496E-009  0.2915636E+03  0.7561462E-02  0.1089536E+00
          3   -1    0    0  501    0  0.00000000000E+00  0.00000000000E+00  0.12654280220E+03  0.12654280220E+03  0.00000000000E+00 0. -1.
         -3   -1    0    0    0  501 -0.00000000000E+00 -0.00000000000E+00 -0.71969347739E+03  0.71969347739E+03  0.00000000000E+00 0.  1.
         25    2    1    2    0    0 -0.24804478877E+03 -0.12544428914E+03 -0.24238194483E+03  0.38943290161E+03  0.12508593354E+03 0.  0.
          5    1    3    3  502    0  0.12097396304E+02 -0.20628251719E+02 -0.17674401237E+02  0.30028796602E+02  0.41800000000E+01 0.  1.
         -5    1    3    3    0  502 -0.26014218507E+03 -0.10481603742E+03 -0.22470754359E+03  0.35940410501E+03  0.41800000000E+01 0.  1.
        -11    1    1    2    0    0  0.55382989526E+02  0.35042875026E+02 -0.15230373843E+03  0.16580623437E+03  0.00000000000E+00 0.  1.
         11    1    1    2    0    0  0.19266179924E+03  0.90401414115E+02 -0.19846499193E+03  0.29099714360E+03  0.00000000000E+00 0. -1.
</event>
<event>
 7    1  0.2820496E-009  0.1138239E+03  0.7561462E-02  0.1253648E+00
          1   -1    0    0  501    0  0.00000000000E+00  0.00000000000E+00  0.43113119004E+03  0.43113119004E+03  0.00000000000E+00 0. -1.
         -1   -1    0    0    0  501 -0.00000000000E+00 -0.00000000000E+00 -0.35826675047E+02  0.35826675047E+02  0.00000000000E+00 0.  1.
         25    2    1    2    0    0 -0.35509323027E+02 -0.49022883712E+02  0.22376947381E+03  0.26340925491E+03  0.12508997968E+03 0.  0.
          5    1    3    3  502    0 -0.70547528491E+02 -0.63320779132E+02  0.12070427125E+03  0.15353653749E+03  0.41800000000E+01 0. -1.
         -5    1    3    3    0  502  0.35038205464E+02  0.14297895420E+02  0.10306520255E+03  0.10987271742E+03  0.41800000000E+01 0. -1.
        -11    1    1    2    0    0 -0.33343852537E+01  0.55245831296E+02  0.45913643445E+02  0.71911630874E+02  0.00000000000E+00 0.  1.
         11    1    1    2    0    0  0.38843708281E+02 -0.62229475840E+01  0.12562139774E+03  0.13163697930E+03  0.00000000000E+00 0. -1.
</event>
<event>
 7    1  0.2820496E-009  0.2002209E+03  0.7561462E-02  0.1149553E+00
          2   -1    0    0  501    0  0.00000000000E+00  0.00000000000E+00  0.42112290009E+03  0.42112290009E+03  0.00000000000E+00 0. -1.
         -2   -1    0    0    0  501 -0.00000000000E+00 -0.00000000000E+00 -0.19461449259E+03  0.19461449259E+03  0.00000000000E+00 0.  1.
         25    2    1    2    0    0  0.12247773715E+03  0.15185934614E+03  0.30839135934E+03  0.38576530544E+03  0.12509030041E+03 0.  0.
          5    1    3    3  502    0  0.91177611430E+02  0.12860301615E+03  0.13377091802E+03  0.20679512445E+03  0.41800000000E+01 0.  1.
         -5    1    3    3    0  502  0.31300125724E+02  0.23256329987E+02  0.17462044133E+03  0.17897018099E+03  0.41800000000E+01 0.  1.
        -11    1    1    2    0    0 -0.90377796692E+02 -0.66149293165E+02 -0.81385865377E+02  0.13844686419E+03  0.00000000000E+00 0.  1.
         11    1    1    2    0    0 -0.32099940461E+02 -0.85710052974E+02 -0.49708646164E+00  0.91525223044E+02  0.00000000000E+00 0. -1.
</event>
<event>
 7    1  0.2820496E-009  0.8954548E+02  0.7561462E-02  0.1303956E+00
         -2   -1    0    0    0  501 -0.00000000000E+00  0.00000000000E+00  0.58533966966E+03  0.58533966966E+03  0.00000000000E+00 0.  1.
          2   -1    0    0  501    0  0.00000000000E+00 -0.00000000000E+00 -0.27791093354E+02  0.27791093354E+02  0.00000000000E+00 0. -1.
         25    2    1    2    0    0  0.62648115312E+02 -0.17611131171E+02  0.32363338729E+03  0.35301709824E+03  0.12509022338E+03 0.  0.
          5    1    3    3  502    0  0.26517447518E+02 -0.15744971838E+01  0.30974572433E+03  0.31091082356E+03  0.41800000000E+01 0. -1.
         -5    1    3    3    0  502  0.36130667794E+02 -0.16036633987E+02  0.13887662957E+02  0.42106274678E+02  0.41800000000E+01 0. -1.
        -11    1    1    2    0    0  0.20857648691E+02 -0.11741588845E+02  0.67578038866E+02  0.71691685393E+02  0.00000000000E+00 0.  1.
         11    1    1    2    0    0 -0.83505764003E+02  0.29352720016E+02  0.16633715015E+03  0.18842197938E+03  0.00000000000E+00 0. -1.
</event>
<event>
 7    1  0.2820496E-009  0.9510214E+02  0.7561462E-02  0.1290946E+00
          2   -1    0    0  501    0  0.00000000000E+00  0.00000000000E+00  0.59812156721E+03  0.59812156721E+03  0.00000000000E+00 0. -1.
         -2   -1    0    0    0  501 -0.00000000000E+00 -0.00000000000E+00 -0.22208825353E+02  0.22208825353E+02  0.00000000000E+00 0.  1.
         25    2    1    2    0    0  0.16355008478E+02 -0.24090139290E+02  0.35982067104E+03  0.38205514847E+03  0.12508956810E+03 0.  0.
          5    1    3    3  502    0  0.52274489717E+02 -0.10492850419E+01  0.31751950986E+03  0.32182267604E+03  0.41800000000E+01 0.  1.
         -5    1    3    3    0  502 -0.35919481239E+02 -0.23040854248E+02  0.42301161185E+02  0.60232472426E+02  0.41800000000E+01 0.  1.
        -11    1    1    2    0    0 -0.51929459611E+02  0.28150131469E+02  0.16961089151E+03  0.17960220822E+03  0.00000000000E+00 0. -1.
         11    1    1    2    0    0  0.35574451133E+02 -0.40599921794E+01  0.46481179310E+02  0.58673035885E+02  0.00000000000E+00 0.  1.
</event>
<event>
 7    1  0.2820496E-009  0.1356193E+03  0.7561462E-02  0.1219348E+00
         -2   -1    0    0    0  501 -0.00000000000E+00  0.00000000000E+00  0.84488055739E+02  0.84488055739E+02  0.00000000000E+00 0.  1.
          2   -1    0    0  501    0  0.00000000000E+00 -0.00000000000E+00 -0.30509744255E+03  0.30509744255E+03  0.00000000000E+00 0. -1.
         25    2    1    2    0    0 -0.10250650529E+03 -0.35111193246E+02 -0.58911702087E+02  0.17566648123E+03  0.12509094478E+03 0.  0.
          5    1    3    3  502    0  0.11920053406E+02  0.26698415986E+02 -0.30545635589E+02  0.42490014626E+02  0.41800000000E+01 0.  1.
         -5    1    3    3    0  502 -0.11442655869E+03 -0.61809609232E+02 -0.28366066498E+02  0.13317646660E+03  0.41800000000E+01 0.  1.
        -11    1    1    2    0    0  0.79359040230E+02  0.14675076414E+02 -0.16417813355E+03  0.18294172480E+03  0.00000000000E+00 0. -1.
         11    1    1    2    0    0  0.23147465058E+02  0.20436116831E+02  0.24804488298E+01  0.30977292266E+02  0.00000000000E+00 0.  1.
</event>
<event>
 7    1  0.2820496E-009  0.1336482E+03  0.7561462E-02  0.1222141E+00
          1   -1    0    0  501    0  0.00000000000E+00  0.00000000000E+00  0.71475182456E+02  0.71475182456E+02  0.00000000000E+00 0. -1.
         -1   -1    0    0    0  501 -0.00000000000E+00 -0.00000000000E+00 -0.34890375745E+03  0.34890375745E+03  0.00000000000E+00 0.  1.
         25    2    1    2    0    0 -0.71003720261E+02  0.86410712541E+02 -0.11641376262E+03  0.20422544673E+03  0.12509008527E+03 0.  0.
          5    1    3    3  502    0 -0.48015338989E+02 -0.41986124754E+01 -0.97380244550E+02  0.10873585220E+03  0.41800000000E+01 0. -1.
         -5    1    3    3    0  502 -0.22988381272E+02  0.90609325016E+02 -0.19033518072E+02  0.95489594531E+02  0.41800000000E+01 0. -1.
        -11    1    1    2    0    0  0.56579969006E+02 -0.24295628852E+02 -0.13288249889E+03  0.14645589434E+03  0.00000000000E+00 0.  1.
         11    1    1    2    0    0  0.14423751256E+02 -0.62115083689E+02 -0.28132313476E+02  0.69697598836E+02  0.00000000000E+00 0. -1.
</event>
<event>
 7    1  0.2852908E-009  0.1013142E+03  0.7561462E-02  0.1277556E+00
         -1   -1    0    0    0  501 -0.00000000000E+00  0.00000000000E+00  0.43306130688E+02  0.43306130688E+02  0.00000000000E+00 0.  1.
          1   -1    0    0  501    0  0.00000000000E+00 -0.00000000000E+00 -0.38240049723E+03  0.38240049723E+03  0.00000000000E+00 0. -1.
         25    2    1    2    0    0  0.35667620326E+02  0.41142567378E+02 -0.11605069718E+03  0.17910980501E+03  0.12509063891E+03 0.  0.
          5    1    3    3  502    0 -0.45355803856E+02  0.24858871402E+02 -0.59151442597E+02  0.78685945328E+02  0.41800000000E+01 0.  1.
         -5    1    3    3    0  502  0.81023424182E+02  0.16283695977E+02 -0.56899254581E+02  0.10042385968E+03  0.41800000000E+01 0.  1.
        -11    1    1    2    0    0 -0.95384085051E+00 -0.32103688150E+02 -0.14937187241E+02  0.35421408327E+02  0.00000000000E+00 0.  1.
         11    1    1    2    0    0 -0.34713779475E+02 -0.90388792282E+01 -0.20810648212E+03  0.21117541458E+03  0.00000000000E+00 0. -1.
</event>
<event>
 7    1  0.2820496E-009  0.1031134E+03  0.7561462E-02  0.1273882E+00
          1   -1    0    0  501    0  0.00000000000E+00  0.00000000000E+00  0.14416125652E+03  0.14416125652E+03  0.00000000000E+00 0. -1.
         -1   -1    0    0    0  501 -0.00000000000E+00 -0.00000000000E+00 -0.10296661101E+03  0.10296661101E+03  0.00000000000E+00 0.  1.
         25    2    1    2    0    0 -0.52329653435E+02  0.24323442066E+02  0.15602011379E+02  0.13864635596E+03  0.12509742922E+03 0.  0.
          5    1    3    3  502    0 -0.27181536175E+02 -0.50127862153E+02 -0.47174534884E+01  0.57370421301E+02  0.41800000000E+01 0.  1.
         -5    1    3    3    0  502 -0.25148117260E+02  0.74451304219E+02  0.20319464868E+02  0.81275934656E+02  0.41800000000E+01 0.  1.
        -11    1    1    2    0    0  0.11189398556E+02  0.11324127814E+02 -0.27924962980E+02  0.32144082942E+02  0.00000000000E+00 0.  1.
         11    1    1    2    0    0  0.41140254879E+02 -0.35647569880E+02  0.53517597109E+02  0.76337428633E+02  0.00000000000E+00 0. -1.
</event>
<event>
 7    1  0.2820496E-009  0.1309589E+03  0.7561462E-02  0.1226040E+00
         -2   -1    0    0    0  501 -0.00000000000E+00  0.00000000000E+00  0.26071247017E+02  0.26071247017E+02  0.00000000000E+00 0.  1.
          2   -1    0    0  501    0  0.00000000000E+00 -0.00000000000E+00 -0.95958031931E+03  0.95958031931E+03  0.00000000000E+00 0. -1.
         25    2    1    2    0    0  0.43872030218E+02  0.10488397012E+03 -0.45374391810E+03  0.48420712405E+03  0.12509034152E+03 0.  0.
          5    1    3    3  502    0 -0.50715142063E+01  0.67181707354E+01  0.62568435594E+01  0.11290463485E+02  0.41800000000E+01 0. -1.
         -5    1    3    3    0  502  0.48943544425E+02  0.98165799383E+02 -0.46000076166E+03  0.47291666056E+03  0.41800000000E+01 0. -1.
        -11    1    1    2    0    0 -0.15664262321E+01 -0.10016991927E+03 -0.28539806849E+03  0.30247069927E+03  0.00000000000E+00 0.  1.
         11    1    1    2    0    0 -0.42305603986E+02 -0.47140508490E+01 -0.19436708569E+03  0.19897374301E+03  0.00000000000E+00 0. -1.
</event>
<event>
 7    1  0.2820496E-009  0.1008349E+03  0.7561462E-02  0.1278550E+00
          2   -1    0    0  501    0  0.00000000000E+00  0.00000000000E+00  0.13770428477E+03  0.13770428477E+03  0.00000000000E+00 0. -1.
         -2   -1    0    0    0  501 -0.00000000000E+00 -0.00000000000E+00 -0.14274054833E+03  0.14274054833E+03  0.00000000000E+00 0.  1.
         25    2    1    2    0    0  0.63545498525E+02 -0.25970905338E+02  0.50276196237E+02  0.15129486985E+03  0.12509965398E+03 0.  0.
          5    1    3    3  502    0  0.57417485582E+02  0.36694743019E+02  0.55490105863E+02  0.87976679094E+02  0.41800000000E+01 0.  1.
         -5    1    3    3    0  502  0.61280129434E+01 -0.62665648357E+02 -0.52139096261E+01  0.63318190753E+02  0.41800000000E+01 0.  1.
        -11    1    1    2    0    0 -0.10300396934E+02 -0.14565798778E+01  0.26089864054E+02  0.28087378095E+02  0.00000000000E+00 0. -1.
         11    1    1    2    0    0 -0.53245101592E+02  0.27427485216E+02 -0.81402323853E+02  0.10106258515E+03  0.00000000000E+00 0.  1.
</event>
<event>
 7    1  0.2820496E-009  0.1445120E+03  0.7561462E-02  0.1207384E+00
          1   -1    0    0  501    0  0.00000000000E+00  0.00000000000E+00  0.26734002690E+03  0.26734002690E+03  0.00000000000E+00 0. -1.
         -1   -1    0    0    0  501 -0.00000000000E+00 -0.00000000000E+00 -0.14725444518E+03  0.14725444518E+03  0.00000000000E+00 0.  1.
         25    2    1    2    0    0 -0.84332876372E+02  0.77935715465E+02 -0.61325350865E+02  0.18053989449E+03  0.12509134687E+03 0.  0.
          5    1    3    3  502    0 -0.51919135311E+02 -0.12079316545E+02 -0.65660340195E+02  0.84677382896E+02  0.41800000000E+01 0. -1.
         -5    1    3    3    0  502 -0.32413741061E+02  0.90015032010E+02  0.43349893303E+01  0.95862511597E+02  0.41800000000E+01 0. -1.
        -11    1    1    2    0    0  0.62182572456E+02 -0.93803769197E+02  0.17135992556E+03  0.20501230090E+03  0.00000000000E+00 0. -1.
         11    1    1    2    0    0  0.22150303916E+02  0.15868053732E+02  0.10051007018E+02  0.29042276682E+02  0.00000000000E+00 0.  1.
</event>
<event>
 7    1  0.2820496E-009  0.1136708E+03  0.7561462E-02  0.1253919E+00
          2   -1    0    0  501    0  0.00000000000E+00  0.00000000000E+00  0.10571459745E+02  0.10571459745E+02  0.00000000000E+00 0. -1.
         -2   -1    0    0    0  501 -0.00000000000E+00 -0.00000000000E+00 -0.13593851011E+04  0.13593851011E+04  0.00000000000E+00 0.  1.
         25    2    1    2    0    0  0.40802767085E+02  0.40919924063E+01 -0.94400251314E+03  0.95313605891E+03  0.12508393891E+03 0.  0.
          5    1    3    3  502    0  0.10411247781E+02 -0.59229838615E+02 -0.49429011218E+03  0.49795256327E+03  0.41800000000E+01 0. -1.
         -5    1    3    3    0  502  0.30391519304E+02  0.63321831022E+02 -0.44971240096E+03  0.45518349564E+03  0.41800000000E+01 0. -1.
        -11    1    1    2    0    0 -0.68643888300E+02 -0.67749454037E+00 -0.23939344659E+03  0.24904149186E+03  0.00000000000E+00 0.  1.
         11    1    1    2    0    0  0.27841121215E+02 -0.34144978659E+01 -0.16541768161E+03  0.16777901006E+03  0.00000000000E+00 0. -1.
</event>
<event>
 7    1  0.2820496E-009  0.2031455E+03  0.7561462E-02  0.1147112E+00
          1   -1    0    0  501    0  0.00000000000E+00  0.00000000000E+00  0.95681017003E+02  0.95681017003E+02  0.00000000000E+00 0. -1.
         -1   -1    0    0    0  501 -0.00000000000E+00 -0.00000000000E+00 -0.55873994681E+03  0.55873994681E+03  0.00000000000E+00 0.  1.
         25    2    1    2    0    0  0.11008931818E+03 -0.16027305541E+03 -0.32503483809E+03  0.39887663830E+03  0.12509123208E+03 0.  0.
          5    1    3    3  502    0  0.22833784307E+02 -0.59507519579E+02 -0.21598256054E+02  0.67427617908E+02  0.41800000000E+01 0. -1.
         -5    1    3    3    0  502  0.87255533870E+02 -0.10076553583E+03 -0.30343658204E+03  0.33144902039E+03  0.41800000000E+01 0. -1.
        -11    1    1    2    0    0 -0.97081998916E+01 -0.83577883862E+01  0.38603576774E+01  0.13379242626E+02  0.00000000000E+00 0. -1.
         11    1    1    2    0    0 -0.10038111829E+03  0.16863084380E+03 -0.14188444939E+03  0.24216508288E+03  0.00000000000E+00 0.  1.
</event>
<event>
 7    1  0.2820496E-009  0.1853421E+03  0.7561462E-02  0.1162731E+00
          1   -1    0    0  501    0  0.00000000000E+00  0.00000000000E+00  0.64576846873E+03  0.64576846873E+03  0.00000000000E+00 0. -1.
         -1   -1    0    0    0  501 -0.00000000000E+00 -0.00000000000E+00 -0.73535649032E+02  0.73535649032E+02  0.00000000000E+00 0.  1.
         25    2    1    2    0    0  0.15178000916E+03 -0.38719020948E+02  0.12338383374E+03  0.23538846361E+03  0.12509126512E+03 0.  0.
          5    1    3    3  502    0  0.14829084229E+03  0.12493582184E+02  0.94619449930E+02  0.17639891215E+03  0.41800000000E+01 0.  1.
         -5    1    3    3    0  502  0.34891668631E+01 -0.51212603132E+02  0.28764383809E+02  0.58989551455E+02  0.41800000000E+01 0.  1.
        -11    1    1    2    0    0 -0.14254399996E+03  0.13182044245E+02  0.29749923358E+03  0.33014898485E+03  0.00000000000E+00 0.  1.
         11    1    1    2    0    0 -0.92360092002E+01  0.25536976703E+02  0.15134975237E+03  0.15376666930E+03  0.00000000000E+00 0. -1.
</event>
<event>
 7    1  0.2820496E-009  0.3960158E+03  0.7561462E-02  0.1045168E+00
         -2   -1    0    0    0  501 -0.00000000000E+00  0.00000000000E+00  0.50318895171E+03  0.50318895171E+03  0.00000000000E+00 0. -1.
          2   -1    0    0  501    0  0.00000000000E+00 -0.00000000000E+00 -0.47908154757E+03  0.47908154757E+03  0.00000000000E+00 0.  1.
         25    2    1    2    0    0  0.30157651734E+03  0.25292098841E+03  0.28455774490E+03  0.50153329138E+03  0.12508041408E+03 0.  0.
          5    1    3    3  502    0  0.24703059632E+03  0.17364992423E+03  0.26809686344E+03  0.40382151044E+03  0.41800000000E+01 0.  1.
         -5    1    3    3    0  502  0.54545921017E+02  0.79271064180E+02  0.16460881457E+02  0.97711780938E+02  0.41800000000E+01 0.  1.
        -11    1    1    2    0    0 -0.72201692040E+02 -0.54905317877E+02 -0.10952437514E+03  0.14220853355E+03  0.00000000000E+00 0.  1.
         11    1    1    2    0    0 -0.22937482530E+03 -0.19801567053E+03 -0.15092596562E+03  0.33852867435E+03  0.00000000000E+00 0. -1.
</event>
<event>
 7    1  0.2820496E-009  0.1069464E+03  0.7561462E-02  0.1266331E+00
         -2   -1    0    0    0  501 -0.00000000000E+00  0.00000000000E+00  0.23701089390E+02  0.23701089390E+02  0.00000000000E+00 0.  1.
          2   -1    0    0  501    0  0.00000000000E+00 -0.00000000000E+00 -0.10691657461E+04  0.10691657461E+04  0.00000000000E+00 0. -1.
         25    2    1    2    0    0  0.67924748456E+02  0.23965622732E+02 -0.70392723221E+03  0.71857475937E+03  0.12509202227E+03 0.  0.
          5    1    3    3  502    0  0.25267886922E+02  0.30398054293E+02 -0.53218897565E+02  0.66424628508E+02  0.41800000000E+01 0. -1.
         -5    1    3    3    0  502  0.42656861534E+02 -0.64324315619E+01 -0.65070833464E+03  0.65215013086E+03  0.41800000000E+01 0. -1.
        -11    1    1    2    0    0  0.15108614192E+02  0.28729371978E+02 -0.19583365615E+03  0.19850558662E+03  0.00000000000E+00 0. -1.
         11    1    1    2    0    0 -0.83033362648E+02 -0.52694994709E+02 -0.14570376836E+03  0.17578648951E+03  0.00000000000E+00 0.  1.
</event>
<event>
 7    1  0.2820496E-009  0.7246075E+02  0.7561462E-02  0.1351920E+00
          2   -1    0    0  501    0  0.00000000000E+00  0.00000000000E+00  0.38980999517E+02  0.38980999517E+02  0.00000000000E+00 0. -1.
         -2   -1    0    0    0  501 -0.00000000000E+00 -0.00000000000E+00 -0.28774490873E+03  0.28774490873E+03  0.00000000000E+00 0.  1.
         25    2    1    2    0    0  0.40161015768E+02 -0.12451721295E+02 -0.14185284959E+03  0.19374601237E+03  0.12508930338E+03 0.  0.
          5    1    3    3  502    0  0.26908300362E+02 -0.31908432147E+02 -0.15892434067E+03  0.16436734204E+03  0.41800000000E+01 0.  1.
         -5    1    3    3    0  502  0.13252715406E+02  0.19456710853E+02  0.17071491078E+02  0.29378670332E+02  0.41800000000E+01 0.  1.
        -11    1    1    2    0    0 -0.94470329196E+01 -0.27265491407E+02 -0.40346535363E+02  0.49603390695E+02  0.00000000000E+00 0. -1.
         11    1    1    2    0    0 -0.30713982848E+02  0.39717212702E+02 -0.66564524258E+02  0.83376505185E+02  0.00000000000E+00 0.  1.
</event>
<event>
 7    1  0.2956863E-009  0.7423717E+02  0.7561462E-02  0.1346250E+00
         -2   -1    0    0    0  501 -0.00000000000E+00  0.00000000000E+00  0.73856737619E+02  0.73856737619E+02  0.00000000000E+00 0.  1.
          2   -1    0    0  501    0  0.00000000000E+00 -0.00000000000E+00 -0.17958861095E+03  0.17958861095E+03  0.00000000000E+00 0. -1.
         25    2    1    2    0    0  0.36947049988E+02 -0.12214096392E+02 -0.55625741238E+02  0.14232316765E+03  0.12508953717E+03 0.  0.
          5    1    3    3  502    0  0.58169160678E+02 -0.13837492041E+02  0.20360214256E+02  0.63301960195E+02  0.41800000000E+01 0.  1.
         -5    1    3    3    0  502 -0.21222110690E+02  0.16233956490E+01 -0.75985955494E+02  0.79021207456E+02  0.41800000000E+01 0.  1.
        -11    1    1    2    0    0  0.11562222556E+02  0.14179867324E+02  0.19188163765E+02  0.26513001649E+02  0.00000000000E+00 0.  1.
         11    1    1    2    0    0 -0.48509272544E+02 -0.19657709315E+01 -0.69294295860E+02  0.84609179270E+02  0.00000000000E+00 0. -1.
</event>
<event>
 7    1  0.2820496E-009  0.5724409E+02  0.7561462E-02  0.1409775E+00
          2   -1    0    0  501    0  0.00000000000E+00  0.00000000000E+00  0.45463615412E+02  0.45463615412E+02  0.00000000000E+00 0.  1.
         -2   -1    0    0    0  501 -0.00000000000E+00 -0.00000000000E+00 -0.29056429049E+03  0.29056429049E+03  0.00000000000E+00 0. -1.
         25    2    1    2    0    0  0.21576379882E+02  0.21504280404E+01 -0.96799598014E+02  0.15965085520E+03  0.12509224149E+03 0.  0.
          5    1    3    3  502    0  0.28587850777E+02 -0.68345475375E+01 -0.12524904358E+03  0.12871974040E+03  0.41800000000E+01 0.  1.
         -5    1    3    3    0  502 -0.70114708945E+01  0.89849755779E+01  0.28449445562E+02  0.30931114804E+02  0.41800000000E+01 0.  1.
        -11    1    1    2    0    0  0.21810630451E+02  0.14496383770E+02 -0.62588310797E+01  0.26926227169E+02  0.00000000000E+00 0.  1.
         11    1    1    2    0    0 -0.43387010334E+02 -0.16646811810E+02 -0.14204224598E+03  0.14945082353E+03  0.00000000000E+00 0. -1.
</event>
<event>
 7    1  0.2820496E-009  0.9133468E+02  0.7561462E-02  0.1299651E+00
          2   -1    0    0  501    0  0.00000000000E+00  0.00000000000E+00  0.42648550467E+02  0.42648550467E+02  0.00000000000E+00 0. -1.
         -2   -1    0    0    0  501 -0.00000000000E+00 -0.00000000000E+00 -0.40627024006E+03  0.40627024006E+03  0.00000000000E+00 0.  1.
         25    2    1    2    0    0 -0.62146248729E+02  0.26196684890E+02 -0.25624530828E+03  0.29301511771E+03  0.12509108147E+03 0.  0.
          5    1    3    3  502    0 -0.42378476976E+02 -0.32172559146E+02 -0.20771819763E+03  0.21446522072E+03  0.41800000000E+01 0. -1.
         -5    1    3    3    0  502 -0.19767771754E+02  0.58369244036E+02 -0.48527110651E+02  0.78549896993E+02  0.41800000000E+01 0. -1.
        -11    1    1    2    0    0  0.49165011242E+02 -0.19172587868E+02 -0.12334445979E+03  0.13415901840E+03  0.00000000000E+00 0.  1.
         11    1    1    2    0    0  0.12981237488E+02 -0.70240970219E+01  0.15968078475E+02  0.21744654420E+02  0.00000000000E+00 0. -1.
</event>
<event>
 7    1  0.2820496E-009  0.1260558E+03  0.7561462E-02  0.1233428E+00
         -3   -1    0    0    0  501 -0.00000000000E+00  0.00000000000E+00  0.49324100029E+03  0.49324100029E+03  0.00000000000E+00 0.  1.
          3   -1    0    0  501    0  0.00000000000E+00 -0.00000000000E+00 -0.46878033163E+02  0.46878033163E+02  0.00000000000E+00 0. -1.
         25    2    1    2    0    0 -0.37856070439E+02 -0.76068157150E+02  0.12864971861E+03  0.19854277111E+03  0.12509610410E+03 0.  0.
          5    1    3    3  502    0  0.40427747260E+02  0.14921829160E+01  0.40069928493E+02  0.57093790624E+02  0.41800000000E+01 0. -1.
         -5    1    3    3    0  502 -0.78283817699E+02 -0.77560340066E+02  0.88579790114E+02  0.14144898049E+03  0.41800000000E+01 0. -1.
        -11    1    1    2    0    0 -0.92973750528E+01  0.41929468610E+02  0.24348217466E+03  0.24724095716E+03  0.00000000000E+00 0.  1.
         11    1    1    2    0    0  0.47153445491E+02  0.34138688541E+02  0.74231073861E+02  0.94335305181E+02  0.00000000000E+00 0. -1.
</event>
<event>
 7    1  0.2820496E-009  0.6401732E+02  0.7561462E-02  0.1381707E+00
          2   -1    0    0  501    0  0.00000000000E+00  0.00000000000E+00  0.73242823738E+02  0.73242823738E+02  0.00000000000E+00 0. -1.
         -2   -1    0    0    0  501 -0.00000000000E+00 -0.00000000000E+00 -0.20054772307E+03  0.20054772307E+03  0.00000000000E+00 0.  1.
         25    2    1    2    0    0  0.21734445742E+01 -0.16870813642E+02 -0.12944514704E+03  0.18081130317E+03  0.12508930030E+03 0.  0.
          5    1    3    3  502    0  0.12116665046E+02 -0.24525696959E+02 -0.15208982954E+03  0.15458690770E+03  0.41800000000E+01 0. -1.
         -5    1    3    3    0  502 -0.99432204719E+01  0.76548833170E+01  0.22644682505E+02  0.26224395468E+02  0.41800000000E+01 0. -1.
        -11    1    1    2    0    0 -0.15875679590E+02  0.49373111795E+02  0.17179981989E+02  0.54634175677E+02  0.00000000000E+00 0.  1.
         11    1    1    2    0    0  0.13702235016E+02 -0.32502298152E+02 -0.15039734285E+02  0.38345067962E+02  0.00000000000E+00 0. -1.
</event>
<event>
 7    1  0.2820496E-009  0.8743545E+02  0.7561462E-02  0.1309184E+00
          1   -1    0    0  501    0  0.00000000000E+00  0.00000000000E+00  0.50612146812E+02  0.50612146812E+02  0.00000000000E+00 0. -1.
         -1   -1    0    0    0  501 -0.00000000000E+00 -0.00000000000E+00 -0.27729943475E+03  0.27729943475E+03  0.00000000000E+00 0.  1.
         25    2    1    2    0    0  0.24609975659E+02 -0.32272545013E+02 -0.92311674069E+02  0.16067863043E+03  0.12509599932E+03 0.  0.
          5    1    3    3  502    0 -0.36547567164E+02  0.16620060211E+02 -0.67115574073E+02  0.78319370210E+02  0.41800000000E+01 0.  1.
         -5    1    3    3    0  502  0.61157542823E+02 -0.48892605224E+02 -0.25196099996E+02  0.82359260225E+02  0.41800000000E+01 0.  1.
        -11    1    1    2    0    0 -0.26794915593E+02  0.32519150043E+01 -0.13544724972E+03  0.13811046271E+03  0.00000000000E+00 0.  1.
         11    1    1    2    0    0  0.21849399337E+01  0.29020630009E+02  0.10716358464E+01  0.29122488424E+02  0.00000000000E+00 0. -1.
</event>
<event>
 7    1  0.2820496E-009  0.1270668E+03  0.7561462E-02  0.1231874E+00
         -1   -1    0    0    0  501 -0.00000000000E+00  0.00000000000E+00  0.23702908354E+03  0.23702908354E+03  0.00000000000E+00 0.  1.
          1   -1    0    0  501    0  0.00000000000E+00 -0.00000000000E+00 -0.85655998632E+02  0.85655998632E+02  0.00000000000E+00 0. -1.
         25    2    1    2    0    0  0.69639964305E+02 -0.58787661944E+02  0.65365294906E+02  0.16799982907E+03  0.12508240069E+03 0.  0.
          5    1    3    3  502    0  0.89284730080E+02 -0.39143932971E+02  0.79361357482E+00  0.97581313460E+02  0.41800000000E+01 0.  1.
         -5    1    3    3    0  502 -0.19644765776E+02 -0.19643728972E+02  0.64571681331E+02  0.70418515606E+02  0.41800000000E+01 0.  1.
        -11    1    1    2    0    0  0.22186347851E+02  0.14577572991E+02  0.20385808872E+02  0.33471194610E+02  0.00000000000E+00 0.  1.
         11    1    1    2    0    0 -0.91826312155E+02  0.44210088953E+02  0.65621981127E+02  0.12121405849E+03  0.00000000000E+00 0. -1.
</event>
<event>
 7    1  0.2820496E-009  0.1066155E+03  0.7561462E-02  0.1266969E+00
          3   -1    0    0  501    0  0.00000000000E+00  0.00000000000E+00  0.12047173074E+03  0.12047173074E+03  0.00000000000E+00 0. -1.
         -3   -1    0    0    0  501 -0.00000000000E+00 -0.00000000000E+00 -0.14310291109E+03  0.14310291109E+03  0.00000000000E+00 0.  1.
         25    2    1    2    0    0 -0.47020460310E+02 -0.23897016923E+02 -0.64562051338E+02  0.15032928945E+03  0.12509454700E+03 0.  0.
          5    1    3    3  502    0 -0.22808155613E+02 -0.74984685992E+02 -0.44305678348E+02  0.90129798789E+02  0.41800000000E+01 0. -1.
         -5    1    3    3    0  502 -0.24212304697E+02  0.51087669069E+02 -0.20256372990E+02  0.60199490665E+02  0.41800000000E+01 0. -1.
        -11    1    1    2    0    0  0.34318887401E+02 -0.14763883765E+02  0.58414402955E+02  0.69339748838E+02  0.00000000000E+00 0. -1.
         11    1    1    2    0    0  0.12701572909E+02  0.38660900688E+02 -0.16483531969E+02  0.43905603543E+02  0.00000000000E+00 0.  1.
</event>
<event>
 7    1  0.2820496E-009  0.1411325E+03  0.7561462E-02  0.1211813E+00
          2   -1    0    0  501    0  0.00000000000E+00  0.00000000000E+00  0.62931676919E+02  0.62931676919E+02  0.00000000000E+00 0. -1.
         -2   -1    0    0    0  501 -0.00000000000E+00 -0.00000000000E+00 -0.57264957940E+03  0.57264957940E+03  0.00000000000E+00 0.  1.
         25    2    1    2    0    0  0.61384298402E+02 -0.10349350628E+03 -0.43262307026E+03  0.46614236098E+03  0.12508813631E+03 0.  0.
          5    1    3    3  502    0 -0.17699154318E+02 -0.23976954804E+02 -0.24991522325E+03  0.25172057054E+03  0.41800000000E+01 0.  1.
         -5    1    3    3    0  502  0.79083452720E+02 -0.79516551472E+02 -0.18270784701E+03  0.21442179043E+03  0.41800000000E+01 0.  1.
        -11    1    1    2    0    0 -0.47717494937E+02  0.14446729608E+02  0.15079348544E+01  0.49879266103E+02  0.00000000000E+00 0.  1.
         11    1    1    2    0    0 -0.13666803465E+02  0.89046776668E+02 -0.78602767080E+02  0.11955962924E+03  0.00000000000E+00 0. -1.
</event>
<event>
 7    1  0.2820496E-009  0.1320091E+03  0.7561462E-02  0.1224505E+00
         -2   -1    0    0    0  501 -0.00000000000E+00  0.00000000000E+00  0.30561327461E+02  0.30561327461E+02  0.00000000000E+00 0.  1.
          2   -1    0    0  501    0  0.00000000000E+00 -0.00000000000E+00 -0.69027905874E+03  0.69027905874E+03  0.00000000000E+00 0. -1.
         25    2    1    2    0    0  0.91403826962E+02  0.31447834062E+02 -0.35188313754E+03  0.38576306929E+03  0.12509107598E+03 0.  0.
          5    1    3    3  502    0  0.80161974169E+01  0.64772151609E+02 -0.11351963971E+03  0.13101096155E+03  0.41800000000E+01 0.  1.
         -5    1    3    3    0  502  0.83387629545E+02 -0.33324317546E+02 -0.23836349783E+03  0.25475210774E+03  0.41800000000E+01 0.  1.
        -11    1    1    2    0    0 -0.73592789647E+02 -0.11807026036E+01 -0.28208712849E+03  0.29153120040E+03  0.00000000000E+00 0. -1.
         11    1    1    2    0    0 -0.17811037315E+02 -0.30267131459E+02 -0.25747465253E+02  0.43546116519E+02  0.00000000000E+00 0.  1.
</event>
<event>
 7    1  0.2820496E-009  0.1157797E+03  0.7561462E-02  0.1250226E+00
         -1   -1    0    0    0  501 -0.00000000000E+00  0.00000000000E+00  0.10472452443E+03  0.10472452443E+03  0.00000000000E+00 0.  1.
          1   -1    0    0  501    0  0.00000000000E+00 -0.00000000000E+00 -0.12983208258E+03  0.12983208258E+03  0.00000000000E+00 0. -1.
         25    2    1    2    0    0 -0.51237496902E+02  0.49260536926E+01 -0.28441533590E+01  0.13529680876E+03  0.12509032799E+03 0.  0.
          5    1    3    3  502    0  0.24481770030E+01  0.58746767876E+02 -0.47721731678E+01  0.59139008642E+02  0.41800000000E+01 0. -1.
         -5    1    3    3    0  502 -0.53685673905E+02 -0.53820714183E+02  0.19280198088E+01  0.76157800114E+02  0.41800000000E+01 0. -1.
        -11    1    1    2    0    0  0.46714245880E+01 -0.38683792391E+02 -0.54965451584E+01  0.39350603682E+02  0.00000000000E+00 0.  1.
         11    1    1    2    0    0  0.46566072314E+02  0.33757738698E+02 -0.16766859628E+02  0.59909194575E+02  0.00000000000E+00 0. -1.
</event>
<event>
 7    1  0.2820496E-009  0.8034849E+02  0.7561462E-02  0.1328065E+00
         -2   -1    0    0    0  501 -0.00000000000E+00  0.00000000000E+00  0.68372779179E+02  0.68372779179E+02  0.00000000000E+00 0.  1.
          2   -1    0    0  501    0  0.00000000000E+00 -0.00000000000E+00 -0.21412054038E+03  0.21412054038E+03  0.00000000000E+00 0. -1.
         25    2    1    2    0    0  0.28144540395E+00 -0.28892977298E+01 -0.14400550707E+03  0.19077172679E+03  0.12509132034E+03 0.  0.
          5    1    3    3  502    0  0.28220568615E+02  0.53131288935E+02 -0.87935662370E+02  0.10662779878E+03  0.41800000000E+01 0.  1.
         -5    1    3    3    0  502 -0.27939123211E+02 -0.56020586665E+02 -0.56069844702E+02  0.84143928010E+02  0.41800000000E+01 0.  1.
        -11    1    1    2    0    0 -0.11523259630E+02  0.16419454305E+02  0.40921486069E+02  0.45573588999E+02  0.00000000000E+00 0.  1.
         11    1    1    2    0    0  0.11241814226E+02 -0.13530156575E+02 -0.42663740193E+02  0.46148003763E+02  0.00000000000E+00 0. -1.
</event>
<event>
 7    1  0.2820496E-009  0.1169764E+03  0.7561462E-02  0.1248170E+00
          2   -1    0    0  501    0  0.00000000000E+00  0.00000000000E+00  0.10792576477E+04  0.10792576477E+04  0.00000000000E+00 0. -1.
         -2   -1    0    0    0  501 -0.00000000000E+00 -0.00000000000E+00 -0.15251868260E+02  0.15251868260E+02  0.00000000000E+00 0.  1.
         25    2    1    2    0    0  0.17807773621E+02  0.45499341062E+02  0.81470300732E+03  0.82569741087E+03  0.12509163582E+03 0.  0.
          5    1    3    3  502    0  0.37879768797E+02 -0.34626695569E+02  0.32794461846E+03  0.33196239261E+03  0.41800000000E+01 0. -1.
         -5    1    3    3    0  502 -0.20071995176E+02  0.80126036630E+02  0.48675838885E+03  0.49373501826E+03  0.41800000000E+01 0. -1.
        -11    1    1    2    0    0 -0.46627740468E+02 -0.52376724383E+02  0.15912302591E+03  0.17388963400E+03  0.00000000000E+00 0. -1.
         11    1    1    2    0    0  0.28819966847E+02  0.68773833211E+01  0.90179746242E+02  0.94922471115E+02  0.00000000000E+00 0.  1.
</event>
<event>
 7    1  0.2820496E-009  0.1032365E+03  0.7561462E-02  0.1273634E+00
         -2   -1    0    0    0  501 -0.00000000000E+00  0.00000000000E+00  0.40661395100E+02  0.40661395100E+02  0.00000000000E+00 0. -1.
          2   -1    0    0  501    0  0.00000000000E+00 -0.00000000000E+00 -0.41664795618E+03  0.41664795618E+03  0.00000000000E+00 0.  1.
         25    2    1    2    0    0  0.52324883413E+02  0.19484356357E+01 -0.30021330804E+03  0.32941924913E+03  0.12508925434E+03 0.  0.
          5    1    3    3  502    0 -0.16750580813E+02 -0.24492734444E+02 -0.21252410322E+03  0.21462628648E+03  0.41800000000E+01 0. -1.
         -5    1    3    3    0  502  0.69075464225E+02  0.26441170079E+02 -0.87689204815E+02  0.11479296265E+03  0.41800000000E+01 0. -1.
        -11    1    1    2    0    0 -0.76096954654E+02  0.82814821610E+01 -0.62408789795E+02  0.98763285173E+02  0.00000000000E+00 0.  1.
         11    1    1    2    0    0  0.23772071241E+02 -0.10229917797E+02 -0.13364463247E+02  0.29126816975E+02  0.00000000000E+00 0. -1.
</event>
<event>
 7    1  0.2820496E-009  0.1433496E+03  0.7561462E-02  0.1208892E+00
         -2   -1    0    0    0  501 -0.00000000000E+00  0.00000000000E+00  0.57542310674E+02  0.57542310674E+02  0.00000000000E+00 0.  1.
          2   -1    0    0  501    0  0.00000000000E+00 -0.00000000000E+00 -0.58370396952E+03  0.58370396952E+03  0.00000000000E+00 0. -1.
         25    2    1    2    0    0 -0.11777270990E+03  0.18535780025E+01 -0.41958843504E+03  0.45340573209E+03  0.12509378930E+03 0.  0.
          5    1    3    3  502    0 -0.43043340603E+02 -0.45981477173E+02 -0.28667947345E+03  0.29354662034E+03  0.41800000000E+01 0.  1.
         -5    1    3    3    0  502 -0.74729369295E+02  0.47835055175E+02 -0.13290896159E+03  0.15985911175E+03  0.41800000000E+01 0.  1.
        -11    1    1    2    0    0  0.62291053660E+02 -0.33653881414E+02 -0.10141464834E+03  0.12368383079E+03  0.00000000000E+00 0. -1.
         11    1    1    2    0    0  0.55481656238E+02  0.31800303411E+02 -0.51585754624E+01  0.64156717316E+02  0.00000000000E+00 0.  1.
</event>
<event>
 7    1  0.2820496E-009  0.1044300E+03  0.7561462E-02  0.1271247E+00
          2   -1    0    0  501    0  0.00000000000E+00  0.00000000000E+00  0.74425624327E+03  0.74425624327E+03  0.00000000000E+00 0. -1.
         -2   -1    0    0    0  501 -0.00000000000E+00 -0.00000000000E+00 -0.28158803543E+02  0.28158803543E+02  0.00000000000E+00 0.  1.
         25    2    1    2    0    0  0.22825817741E+02 -0.33840728048E+02  0.61846468436E+03  0.63231556209E+03  0.12513269532E+03 0.  0.
          5    1    3    3  502    0 -0.43829775605E+02 -0.41484916009E+02  0.37023953163E+03  0.37514907792E+03  0.41800000000E+01 0.  1.
         -5    1    3    3    0  502  0.66655593346E+02  0.76441879612E+01  0.24822515273E+03  0.25716648417E+03  0.41800000000E+01 0.  1.
        -11    1    1    2    0    0 -0.14362703931E+01 -0.21637320109E+02  0.72277423719E+02  0.75460337089E+02  0.00000000000E+00 0. -1.
         11    1    1    2    0    0 -0.21389547348E+02  0.55478048156E+02  0.25355331649E+02  0.64639147628E+02  0.00000000000E+00 0.  1.
</event>
<event>
 7    1  0.2820496E-009  0.8040088E+02  0.7561462E-02  0.1327918E+00
         -1   -1    0    0    0  501 -0.00000000000E+00  0.00000000000E+00  0.31949201447E+02  0.31949201447E+02  0.00000000000E+00 0.  1.
          1   -1    0    0  501    0  0.00000000000E+00 -0.00000000000E+00 -0.44990733031E+03  0.44990733031E+03  0.00000000000E+00 0. -1.
         25    2    1    2    0    0 -0.37659636619E+02  0.31866977417E+02 -0.26030574267E+03  0.29298517506E+03  0.12508989032E+03 0.  0.
          5    1    3    3  502    0 -0.34000435188E+02  0.11687463762E+02 -0.26818832408E+03  0.27061979967E+03  0.41800000000E+01 0.  1.
         -5    1    3    3    0  502 -0.36592014311E+01  0.20179513655E+02  0.78825814138E+01  0.22365375388E+02  0.41800000000E+01 0.  1.
        -11    1    1    2    0    0 -0.29892448787E+02 -0.24367331175E+01 -0.52680696145E+02  0.60619732011E+02  0.00000000000E+00 0.  1.
         11    1    1    2    0    0  0.67552085406E+02 -0.29430244299E+02 -0.10497169005E+03  0.12825162469E+03  0.00000000000E+00 0. -1.
</event>
<event>
 7    1  0.2820496E-009  0.7515455E+02  0.7561462E-02  0.1343393E+00
          2   -1    0    0  501    0  0.00000000000E+00  0.00000000000E+00  0.52887658364E+03  0.52887658364E+03  0.00000000000E+00 0.  1.
         -2   -1    0    0    0  501 -0.00000000000E+00 -0.00000000000E+00 -0.19850992556E+02  0.19850992556E+02  0.00000000000E+00 0. -1.
         25    2    1    2    0    0  0.24909121821E+02 -0.23942699033E+02  0.39664468313E+03  0.41733294421E+03  0.12508422954E+03 0.  0.
          5    1    3    3  502    0  0.36048669414E+02  0.16695977698E+02  0.35731551795E+03  0.35954153307E+03  0.41800000000E+01 0.  1.
         -5    1    3    3    0  502 -0.11139547593E+02 -0.40638676732E+02  0.39329165179E+02  0.57791411133E+02  0.41800000000E+01 0.  1.
        -11    1    1    2    0    0 -0.13811572971E+02  0.43440383736E+02  0.77947039480E+02  0.90297106547E+02  0.00000000000E+00 0.  1.
         11    1    1    2    0    0 -0.11097548850E+02 -0.19497684703E+02  0.34433868477E+02  0.41097525443E+02  0.00000000000E+00 0. -1.
</event>
<event>
 7    1  0.2820496E-009  0.1101495E+03  0.7561462E-02  0.1260293E+00
         -1   -1    0    0    0  501 -0.00000000000E+00  0.00000000000E+00  0.26796100480E+02  0.26796100480E+02  0.00000000000E+00 0.  1.
          1   -1    0    0  501    0  0.00000000000E+00 -0.00000000000E+00 -0.66651466705E+03  0.66651466705E+03  0.00000000000E+00 0. -1.
         25    2    1    2    0    0 -0.36203719748E+02 -0.67083872525E+02 -0.39879837789E+03  0.42484980163E+03  0.12508498095E+03 0.  0.
          5    1    3    3  502    0 -0.72011195888E+02 -0.16665487017E+02 -0.13603495973E+03  0.15487521900E+03  0.41800000000E+01 0. -1.
         -5    1    3    3    0  502  0.35807476139E+02 -0.50418385508E+02 -0.26276341815E+03  0.26997458263E+03  0.41800000000E+01 0. -1.
        -11    1    1    2    0    0  0.18854791428E+02  0.45591011378E+01 -0.46398505207E+00  0.19403706994E+02  0.00000000000E+00 0.  1.
         11    1    1    2    0    0  0.17348928320E+02  0.62524771387E+02 -0.24045620363E+03  0.24905725891E+03  0.00000000000E+00 0. -1.
</event>
<event>
 7    1  0.2820496E-009  0.1131703E+03  0.7561462E-02  0.1254809E+00
          2   -1    0    0  501    0  0.00000000000E+00  0.00000000000E+00  0.77366734798E+03  0.77366734798E+03  0.00000000000E+00 0. -1.
         -2   -1    0    0    0  501 -0.00000000000E+00 -0.00000000000E+00 -0.24815941800E+02  0.24815941800E+02  0.00000000000E+00 0.  1.
         25    2    1    2    0    0  0.56759707842E+02 -0.67119891573E+02  0.41032588680E+03  0.43788254801E+03  0.12508816168E+03 0.  0.
          5    1    3    3  502    0  0.57815278192E+02 -0.85529856211E+02  0.40537767150E+03  0.41833777220E+03  0.41800000000E+01 0.  1.
         -5    1    3    3    0  502 -0.10555703496E+01  0.18409964638E+02  0.49482152982E+01  0.19544775808E+02  0.41800000000E+01 0.  1.
        -11    1    1    2    0    0 -0.13758629395E+02  0.58702665410E+02  0.90571192352E+02  0.10880461246E+03  0.00000000000E+00 0.  1.
         11    1    1    2    0    0 -0.43001078447E+02  0.84172261633E+01  0.24795432703E+03  0.25179612931E+03  0.00000000000E+00 0. -1.
</event>
<event>
 7    1  0.2820496E-009  0.1344308E+03  0.7561462E-02  0.1221025E+00
         -1   -1    0    0    0  501 -0.00000000000E+00  0.00000000000E+00  0.16677011548E+02  0.16677011548E+02  0.00000000000E+00 0.  1.
          1   -1    0    0  501    0  0.00000000000E+00 -0.00000000000E+00 -0.11518418935E+04  0.11518418935E+04  0.00000000000E+00 0. -1.
         25    2    1    2    0    0  0.75958776569E+02 -0.32546277809E+02 -0.62571605032E+03  0.64342629638E+03  0.12509127591E+03 0.  0.
          5    1    3    3  502    0  0.37452136638E+02 -0.75671098048E+02 -0.46394579264E+03  0.47158450836E+03  0.41800000000E+01 0. -1.
         -5    1    3    3    0  502  0.38506639930E+02  0.43124820239E+02 -0.16177025768E+03  0.17184178802E+03  0.41800000000E+01 0. -1.
        -11    1    1    2    0    0 -0.89399213876E+01 -0.32053321324E+02 -0.16261788312E+03  0.16598769085E+03  0.00000000000E+00 0. -1.
         11    1    1    2    0    0 -0.67018855181E+02  0.64599599134E+02 -0.34683094853E+03  0.35910491784E+03  0.00000000000E+00 0.  1.
</event>
<event>
 7    1  0.2820496E-009  0.1037266E+03  0.7561462E-02  0.1272649E+00
         -1   -1    0    0    0  501 -0.00000000000E+00  0.00000000000E+00  0.35277048516E+03  0.35277048516E+03  0.00000000000E+00 0.  1.
          1   -1    0    0  501    0  0.00000000000E+00 -0.00000000000E+00 -0.48325403705E+02  0.48325403705E+02  0.00000000000E+00 0. -1.
         25    2    1    2    0    0 -0.76462692012E+01 -0.69977506729E+02  0.18073145534E+03  0.23079581492E+03  0.12509009694E+03 0.  0.
          5    1    3    3  502    0 -0.28006352575E+02 -0.89198646931E+02  0.70996781832E+02  0.11746816517E+03  0.41800000000E+01 0. -1.
         -5    1    3    3    0  502  0.20360083374E+02  0.19221140202E+02  0.10973467351E+03  0.11332764974E+03  0.41800000000E+01 0. -1.
        -11    1    1    2    0    0  0.20226454618E+02  0.71036277072E+01  0.99463472348E+02  0.10174749788E+03  0.00000000000E+00 0.  1.
         11    1    1    2    0    0 -0.12580185417E+02  0.62873879022E+02  0.24250153764E+02  0.68552576070E+02  0.00000000000E+00 0. -1.
</event>
<event>
 7    1  0.2820496E-009  0.1263706E+03  0.7561462E-02  0.1232943E+00
         -1   -1    0    0    0  501 -0.00000000000E+00  0.00000000000E+00  0.21865420468E+02  0.21865420468E+02  0.00000000000E+00 0.  1.
          1   -1    0    0  501    0  0.00000000000E+00 -0.00000000000E+00 -0.82638513883E+03  0.82638513883E+03  0.00000000000E+00 0. -1.
         25    2    1    2    0    0  0.17831921493E+01 -0.70148069050E+02 -0.53942270377E+03  0.55816223227E+03  0.12507714752E+03 0.  0.
          5    1    3    3  502    0 -0.60814471659E+02 -0.24094792060E+02 -0.25346419803E+03  0.26180246570E+03  0.41800000000E+01 0. -1.
         -5    1    3    3    0  502  0.62597663808E+02 -0.46053276990E+02 -0.28595850574E+03  0.29635976657E+03  0.41800000000E+01 0. -1.
        -11    1    1    2    0    0  0.37637500671E+02  0.56026163896E+02 -0.10674454075E+03  0.12629295102E+03  0.00000000000E+00 0.  1.
         11    1    1    2    0    0 -0.39420692820E+02  0.14121905154E+02 -0.15835247384E+03  0.16379537600E+03  0.00000000000E+00 0. -1.
</event>
<event>
 7    1  0.2820496E-009  0.6768216E+02  0.7561462E-02  0.1368157E+00
          1   -1    0    0  501    0  0.00000000000E+00  0.00000000000E+00  0.37307298381E+03  0.37307298381E+03  0.00000000000E+00 0. -1.
         -1   -1    0    0    0  501 -0.00000000000E+00 -0.00000000000E+00 -0.33096491214E+02  0.33096491214E+02  0.00000000000E+00 0.  1.
         25    2    1    2    0    0 -0.18628446358E+02  0.17686704816E+02  0.19383100838E+03  0.23211456712E+03  0.12508746507E+03 0.  0.
          5    1    3    3  502    0 -0.32819264070E+02  0.20031566525E+01  0.20511819056E+03  0.20777887580E+03  0.41800000000E+01 0.  1.
         -5    1    3    3    0  502  0.14190817712E+02  0.15683548164E+02 -0.11287182180E+02  0.24335691318E+02  0.41800000000E+01 0.  1.
        -11    1    1    2    0    0  0.40296575248E+02 -0.34646639632E+02  0.46287225638E+02  0.70474895330E+02  0.00000000000E+00 0.  1.
         11    1    1    2    0    0 -0.21668128890E+02  0.16959934815E+02  0.99858258582E+02  0.10358001258E+03  0.00000000000E+00 0. -1.
</event>
<event>
 7    1  0.2820496E-009  0.1226494E+03  0.7561462E-02  0.1238789E+00
          3   -1    0    0  501    0  0.00000000000E+00  0.00000000000E+00  0.33222195476E+02  0.33222195476E+02  0.00000000000E+00 0. -1.
         -3   -1    0    0    0  501 -0.00000000000E+00 -0.00000000000E+00 -0.10008607682E+04  0.10008607682E+04  0.00000000000E+00 0.  1.
         25    2    1    2    0    0  0.81234615587E+02  0.14041719931E+02 -0.85091878924E+03  0.86400609617E+03  0.12509003020E+03 0.  0.
          5    1    3    3  502    0  0.89190893183E+02  0.42623430368E+02 -0.78943060118E+03  0.79560663567E+03  0.41800000000E+01 0.  1.
         -5    1    3    3    0  502 -0.79562775962E+01 -0.28581710436E+02 -0.61488188061E+02  0.68399460493E+02  0.41800000000E+01 0.  1.
        -11    1    1    2    0    0  0.13674774812E+02  0.11767290329E+02 -0.44607484938E+02  0.48117525917E+02  0.00000000000E+00 0.  1.
         11    1    1    2    0    0 -0.94909390399E+02 -0.25809010260E+02 -0.72112298494E+02  0.12195934155E+03  0.00000000000E+00 0. -1.
</event>
<event>
 7    1  0.4001469E-009  0.1802667E+03  0.7561462E-02  0.1167545E+00
         -1   -1    0    0    0  501 -0.00000000000E+00  0.00000000000E+00  0.36106352041E+02  0.36106352041E+02  0.00000000000E+00 0.  1.
          1   -1    0    0  501    0  0.00000000000E+00 -0.00000000000E+00 -0.13109729406E+04  0.13109729406E+04  0.00000000000E+00 0. -1.
         25    2    1    2    0    0 -0.35184089269E+02 -0.16084166167E+03 -0.94393095162E+03  0.96631247316E+03  0.12508474762E+03 0.  0.
          5    1    3    3  502    0 -0.35563782703E+02 -0.21577761133E+01 -0.33929672670E+03  0.34118789514E+03  0.41800000000E+01 0.  1.
         -5    1    3    3    0  502  0.37969343494E+00 -0.15868388555E+03 -0.60463422492E+03  0.62512457802E+03  0.41800000000E+01 0.  1.
        -11    1    1    2    0    0 -0.38123736126E+00  0.38808745278E+02 -0.17569449114E+02  0.42602225226E+02  0.00000000000E+00 0.  1.
         11    1    1    2    0    0  0.35565326630E+02  0.12203291639E+03 -0.31336618787E+03  0.33816459430E+03  0.00000000000E+00 0. -1.
</event>
<event>
 7    1  0.2820496E-009  0.8208479E+02  0.7561462E-02  0.1323237E+00
          3   -1    0    0  501    0  0.00000000000E+00  0.00000000000E+00  0.52980504620E+03  0.52980504620E+03  0.00000000000E+00 0. -1.
         -3   -1    0    0    0  501 -0.00000000000E+00 -0.00000000000E+00 -0.22134070500E+02  0.22134070500E+02  0.00000000000E+00 0.  1.
         25    2    1    2    0    0 -0.64688939850E+00 -0.66616044358E-02  0.31096183478E+03  0.33518492067E+03  0.12510495531E+03 0.  0.
          5    1    3    3  502    0 -0.16604255882E+01  0.36784797188E+02  0.20461159944E+02  0.42332136534E+02  0.41800000000E+01 0.  1.
         -5    1    3    3    0  502  0.10135361897E+01 -0.36791458792E+02  0.29050067484E+03  0.29285278414E+03  0.41800000000E+01 0.  1.
        -11    1    1    2    0    0 -0.12517289903E+02 -0.43160513767E+02  0.11392161534E+03  0.12246488042E+03  0.00000000000E+00 0.  1.
         11    1    1    2    0    0  0.13164179301E+02  0.43167175371E+02  0.82787525574E+02  0.94289315603E+02  0.00000000000E+00 0. -1.
</event>
<event>
 7    1  0.2820496E-009  0.1734642E+03  0.7561462E-02  0.1174283E+00
         -1   -1    0    0    0  501 -0.00000000000E+00  0.00000000000E+00  0.39515419704E+02  0.39515419704E+02  0.00000000000E+00 0.  1.
          1   -1    0    0  501    0  0.00000000000E+00 -0.00000000000E+00 -0.81190885915E+03  0.81190885915E+03  0.00000000000E+00 0. -1.
         25    2    1    2    0    0  0.47201881808E+02 -0.13130304885E+03 -0.33697019300E+03  0.38556503216E+03  0.12507187840E+03 0.  0.
          5    1    3    3  502    0  0.48804893588E+02  0.62837826287E+01 -0.79076011365E+02  0.93230314467E+02  0.41800000000E+01 0.  1.
         -5    1    3    3    0  502 -0.16030117800E+01 -0.13758683148E+03 -0.25789418164E+03  0.29233471769E+03  0.41800000000E+01 0.  1.
        -11    1    1    2    0    0 -0.62754151938E+02  0.59713453326E+02 -0.17407518791E+03  0.19443752503E+03  0.00000000000E+00 0.  1.
         11    1    1    2    0    0  0.15552270129E+02  0.71589595528E+02 -0.26134805853E+03  0.27142172166E+03  0.00000000000E+00 0. -1.
</event>
<event>
 7    1  0.2820496E-009  0.9661766E+02  0.7561462E-02  0.1287574E+00
         -1   -1    0    0    0  501 -0.00000000000E+00  0.00000000000E+00  0.13946207092E+02  0.13946207092E+02  0.00000000000E+00 0.  1.
          1   -1    0    0  501    0  0.00000000000E+00 -0.00000000000E+00 -0.90267827475E+03  0.90267827475E+03  0.00000000000E+00 0. -1.
         25    2    1    2    0    0 -0.21828480079E+01 -0.21643858776E+02 -0.59054240112E+03  0.60403787358E+03  0.12509278060E+03 0.  0.
          5    1    3    3  502    0 -0.45928339575E+02 -0.38648970395E+02 -0.48156487804E+03  0.48530955013E+03  0.41800000000E+01 0. -1.
         -5    1    3    3    0  502  0.43745491567E+02  0.17005111618E+02 -0.10897752308E+03  0.11872832345E+03  0.41800000000E+01 0. -1.
        -11    1    1    2    0    0 -0.35646289554E+02 -0.95594150036E+01 -0.69422025767E+02  0.78622248987E+02  0.00000000000E+00 0. -1.
         11    1    1    2    0    0  0.37829137562E+02  0.31203273780E+02 -0.22876764077E+03  0.23396435927E+03  0.00000000000E+00 0.  1.
</event>
<event>
 7    1  0.2820496E-009  0.7378485E+02  0.7561462E-02  0.1347676E+00
          2   -1    0    0  501    0  0.00000000000E+00  0.00000000000E+00  0.60994635999E+03  0.60994635999E+03  0.00000000000E+00 0. -1.
         -2   -1    0    0    0  501 -0.00000000000E+00 -0.00000000000E+00 -0.27329157327E+02  0.27329157327E+02  0.00000000000E+00 0.  1.
         25    2    1    2    0    0 -0.36838419499E+02  0.14766113569E+02  0.46658407406E+03  0.48468622221E+03  0.12507968888E+03 0.  0.
          5    1    3    3  502    0 -0.57282673458E+02 -0.11970053313E+02  0.43299874104E+03  0.43695533982E+03  0.41800000000E+01 0.  1.
         -5    1    3    3    0  502  0.20444253959E+02  0.26736166882E+02  0.33585333018E+02  0.47730882387E+02  0.41800000000E+01 0.  1.
        -11    1    1    2    0    0  0.32259577405E+02 -0.26907974803E+02  0.12813496303E+03  0.13484542333E+03  0.00000000000E+00 0. -1.
         11    1    1    2    0    0  0.45788420940E+01  0.12141861234E+02 -0.12101834428E+02  0.17743871777E+02  0.00000000000E+00 0.  1.
</event>
<event>
 7    1  0.2820496E-009  0.1447014E+03  0.7561462E-02  0.1207139E+00
         -2   -1    0    0    0  501 -0.00000000000E+00  0.00000000000E+00  0.17625867726E+03  0.17625867726E+03  0.00000000000E+00 0.  1.
          2   -1    0    0  501    0  0.00000000000E+00 -0.00000000000E+00 -0.16720207077E+03  0.16720207077E+03  0.00000000000E+00 0. -1.
         25    2    1    2    0    0 -0.11857845226E+03  0.36911897501E+02  0.51925627222E+02  0.18375870800E+03  0.12509058511E+03 0.  0.
          5    1    3    3  502    0 -0.10882275830E+03 -0.21567830682E+01  0.79434543165E+02  0.13481232690E+03  0.41800000000E+01 0. -1.
         -5    1    3    3    0  502 -0.97556939683E+01  0.39068680569E+02 -0.27508915944E+02  0.48946381098E+02  0.41800000000E+01 0. -1.
        -11    1    1    2    0    0  0.90730812676E+01  0.15985878916E+02 -0.32893720320E+02  0.37681108860E+02  0.00000000000E+00 0. -1.
         11    1    1    2    0    0  0.10950537100E+03 -0.52897776417E+02 -0.99753004126E+01  0.12202093118E+03  0.00000000000E+00 0.  1.
</event>
<event>
 7    1  0.2820496E-009  0.1448455E+03  0.7561462E-02  0.1206954E+00
          3   -1    0    0  501    0  0.00000000000E+00  0.00000000000E+00  0.48122923232E+02  0.48122923232E+02  0.00000000000E+00 0. -1.
         -3   -1    0    0    0  501 -0.00000000000E+00 -0.00000000000E+00 -0.55094185099E+03  0.55094185099E+03  0.00000000000E+00 0.  1.
         25    2    1    2    0    0 -0.11440229604E+03 -0.39387278591E+02 -0.28517076138E+03  0.33407894200E+03  0.12508850181E+03 0.  0.
          5    1    3    3  502    0  0.20110513638E+02  0.63069255097E+01 -0.86309193843E+01  0.23155458052E+02  0.41800000000E+01 0. -1.
         -5    1    3    3    0  502 -0.13451280968E+03 -0.45694204100E+02 -0.27653984200E+03  0.31092348395E+03  0.41800000000E+01 0. -1.
        -11    1    1    2    0    0  0.47481752317E+02 -0.17734629512E+01 -0.16169604341E+03  0.16853270433E+03  0.00000000000E+00 0.  1.
         11    1    1    2    0    0  0.66920543723E+02  0.41160741542E+02 -0.55952122966E+02  0.96453127896E+02  0.00000000000E+00 0. -1.
</event>
<event>
 7    1  0.2820496E-009  0.1060441E+03  0.7561462E-02  0.1268076E+00
          3   -1    0    0  501    0  0.00000000000E+00  0.00000000000E+00  0.13214911084E+03  0.13214911084E+03  0.00000000000E+00 0. -1.
         -3   -1    0    0    0  501 -0.00000000000E+00 -0.00000000000E+00 -0.11419860373E+03  0.11419860373E+03  0.00000000000E+00 0.  1.
         25    2    1    2    0    0  0.40863880257E+01 -0.12936325744E+02  0.67904418459E+02  0.14297759707E+03  0.12509011203E+03 0.  0.
          5    1    3    3  502    0 -0.11907163673E+02 -0.65406021640E+02  0.55214618376E+02  0.86520833884E+02  0.41800000000E+01 0.  1.
         -5    1    3    3    0  502  0.15993551698E+02  0.52469695897E+02  0.12689800083E+02  0.56456763187E+02  0.41800000000E+01 0.  1.
        -11    1    1    2    0    0  0.37459347654E+02  0.27466866470E+02 -0.27081498443E+02  0.53768383259E+02  0.00000000000E+00 0. -1.
         11    1    1    2    0    0 -0.41545735680E+02 -0.14530540727E+02 -0.22872412905E+02  0.49601734235E+02  0.00000000000E+00 0.  1.
</event>
<event>
 7    1  0.2820496E-009  0.1217165E+03  0.7561462E-02  0.1240292E+00
          1   -1    0    0  501    0  0.00000000000E+00  0.00000000000E+00  0.80452033535E+03  0.80452033535E+03  0.00000000000E+00 0. -1.
         -1   -1    0    0    0  501 -0.00000000000E+00 -0.00000000000E+00 -0.26770776737E+02  0.26770776737E+02  0.00000000000E+00 0.  1.
         25    2    1    2    0    0 -0.27706867799E+02 -0.90515168014E+02  0.48682267419E+03  0.51147211191E+03  0.12508692573E+03 0.  0.
          5    1    3    3  502    0 -0.51532300934E+02 -0.74414935585E+02  0.46836096675E+03  0.47704572973E+03  0.41800000000E+01 0.  1.
         -5    1    3    3    0  502  0.23825433135E+02 -0.16100232429E+02  0.18461707446E+02  0.34426382183E+02  0.41800000000E+01 0.  1.
        -11    1    1    2    0    0 -0.26094564049E+02  0.50045029956E+02  0.19225268845E+03  0.20036598392E+03  0.00000000000E+00 0. -1.
         11    1    1    2    0    0  0.53801431847E+02  0.40470138057E+02  0.98674195976E+02  0.11945301626E+03  0.00000000000E+00 0.  1.
</event>
<event>
 7    1  0.2820496E-009  0.1174255E+03  0.7561462E-02  0.1247406E+00
         -1   -1    0    0    0  501 -0.00000000000E+00  0.00000000000E+00  0.15380029624E+02  0.15380029624E+02  0.00000000000E+00 0.  1.
          1   -1    0    0  501    0  0.00000000000E+00 -0.00000000000E+00 -0.10634682389E+04  0.10634682389E+04  0.00000000000E+00 0. -1.
         25    2    1    2    0    0  0.45155661617E+02 -0.48980755486E+02 -0.57730894474E+03  0.59445135083E+03  0.12509453483E+03 0.  0.
          5    1    3    3  502    0 -0.23675272182E+02  0.24509359435E+02 -0.23894188789E+03  0.24139578580E+03  0.41800000000E+01 0.  1.
         -5    1    3    3    0  502  0.68830933800E+02 -0.73490114922E+02 -0.33836705684E+03  0.35305556502E+03  0.41800000000E+01 0.  1.
        -11    1    1    2    0    0 -0.38326747254E+02  0.68813265488E+02 -0.44095848279E+03  0.44793815265E+03  0.00000000000E+00 0. -1.
         11    1    1    2    0    0 -0.68289143637E+01 -0.19832510002E+02 -0.29820781779E+02  0.36458765068E+02  0.00000000000E+00 0.  1.
</event>
<event>
 7    1  0.2820496E-009  0.1200510E+03  0.7561462E-02  0.1243013E+00
         -3   -1    0    0    0  501 -0.00000000000E+00  0.00000000000E+00  0.67633685356E+02  0.67633685356E+02  0.00000000000E+00 0.  1.
          3   -1    0    0  501    0  0.00000000000E+00 -0.00000000000E+00 -0.21353062871E+03  0.21353062871E+03  0.00000000000E+00 0. -1.
         25    2    1    2    0    0 -0.35461694773E+02  0.34946783182E+02 -0.84156332891E+02  0.15877114696E+03  0.12508868570E+03 0.  0.
          5    1    3    3  502    0  0.42669465437E+02  0.36401858964E+02 -0.31716951273E+02  0.64569466583E+02  0.41800000000E+01 0.  1.
         -5    1    3    3    0  502 -0.78131160210E+02 -0.14550757818E+01 -0.52439381618E+02  0.94201680377E+02  0.41800000000E+01 0.  1.
        -11    1    1    2    0    0 -0.72242007154E+00  0.30665674005E+02 -0.20072373237E+02  0.36657954394E+02  0.00000000000E+00 0.  1.
         11    1    1    2    0    0  0.36184114844E+02 -0.65612457187E+02 -0.41668237224E+02  0.85735212711E+02  0.00000000000E+00 0. -1.
</event>
<event>
 7    1  0.2820496E-009  0.1998247E+03  0.7561462E-02  0.1149887E+00
          1   -1    0    0  501    0  0.00000000000E+00  0.00000000000E+00  0.69080068168E+02  0.69080068168E+02  0.00000000000E+00 0. -1.
         -1   -1    0    0    0  501 -0.00000000000E+00 -0.00000000000E+00 -0.60260079547E+03  0.60260079547E+03  0.00000000000E+00 0.  1.
         25    2    1    2    0    0  0.16074637053E+03 -0.49680415400E+02 -0.21683527493E+03  0.30160044984E+03  0.12505101190E+03 0.  0.
          5    1    3    3  502    0  0.13083819714E+03  0.20490267834E+02 -0.14952510337E+03  0.19978416816E+03  0.41800000000E+01 0. -1.
         -5    1    3    3    0  502  0.29908173384E+02 -0.70170683234E+02 -0.67310171553E+02  0.10181628168E+03  0.41800000000E+01 0. -1.
        -11    1    1    2    0    0 -0.13264141419E+03  0.75473648388E+02 -0.26562250143E+03  0.30634185092E+03  0.00000000000E+00 0.  1.
         11    1    1    2    0    0 -0.28104956334E+02 -0.25793232988E+02 -0.51062950949E+02  0.63738562881E+02  0.00000000000E+00 0. -1.
</event>
<event>
 7    1  0.2820496E-009  0.9847051E+02  0.7561462E-02  0.1283546E+00
          2   -1    0    0  501    0  0.00000000000E+00  0.00000000000E+00  0.73463177637E+03  0.73463177637E+03  0.00000000000E+00 0. -1.
         -2   -1    0    0    0  501 -0.00000000000E+00 -0.00000000000E+00 -0.48346830665E+02  0.48346830665E+02  0.00000000000E+00 0.  1.
         25    2    1    2    0    0 -0.77900619296E+02 -0.25002094510E+02  0.63067366348E+03  0.64814210019E+03  0.12508117773E+03 0.  0.
          5    1    3    3  502    0 -0.64484466632E+02 -0.14164854602E+02  0.11892967443E+03  0.13609051915E+03  0.41800000000E+01 0. -1.
         -5    1    3    3    0  502 -0.13416152663E+02 -0.10837239907E+02  0.51174398905E+03  0.51205158105E+03  0.41800000000E+01 0. -1.
        -11    1    1    2    0    0  0.45089862855E+02  0.53228840141E+02  0.75626113969E+01  0.70168356445E+02  0.00000000000E+00 0.  1.
         11    1    1    2    0    0  0.32810756440E+02 -0.28226745631E+02  0.48048670831E+02  0.64668150397E+02  0.00000000000E+00 0. -1.
</event>
<event>
 7    1  0.2820496E-009  0.9463286E+02  0.7561462E-02  0.1292005E+00
         -1   -1    0    0    0  501 -0.00000000000E+00  0.00000000000E+00  0.12835943738E+03  0.12835943738E+03  0.00000000000E+00 0.  1.
          1   -1    0    0  501    0  0.00000000000E+00 -0.00000000000E+00 -0.98711109742E+02  0.98711109742E+02  0.00000000000E+00 0. -1.
         25    2    1    2    0    0 -0.29611615550E+01 -0.21633171897E+02 -0.11736862461E+02  0.12752294123E+03  0.12509030336E+03 0.  0.
          5    1    3    3  502    0  0.49232401274E+02 -0.21723843014E+02  0.28917253225E+02  0.61232627125E+02  0.41800000000E+01 0.  1.
         -5    1    3    3    0  502 -0.52193562829E+02  0.90671117086E-01 -0.40654115687E+02  0.66290314106E+02  0.41800000000E+01 0.  1.
        -11    1    1    2    0    0 -0.37197614215E+02  0.21106267362E+02  0.41199937279E+02  0.59384946384E+02  0.00000000000E+00 0. -1.
         11    1    1    2    0    0  0.40158775770E+02  0.52690453553E+00  0.18525281652E+00  0.40162659503E+02  0.00000000000E+00 0.  1.
</event>
<event>
 7    1  0.2820496E-009  0.1477448E+03  0.7561462E-02  0.1203272E+00
          4   -1    0    0  501    0  0.00000000000E+00  0.00000000000E+00  0.38164606661E+02  0.38164606661E+02  0.00000000000E+00 0. -1.
         -4   -1    0    0    0  501 -0.00000000000E+00 -0.00000000000E+00 -0.70504438959E+03  0.70504438959E+03  0.00000000000E+00 0.  1.
         25    2    1    2    0    0  0.57708153220E+01  0.10145614259E+03 -0.20219586678E+03  0.25856747203E+03  0.12508923962E+03 0.  0.
          5    1    3    3  502    0 -0.56083872594E+02  0.68237499951E+02 -0.90174138336E+02  0.12629570376E+03  0.41800000000E+01 0.  1.
         -5    1    3    3    0  502  0.61854687916E+02  0.33218642634E+02 -0.11202172845E+03  0.13227176827E+03  0.41800000000E+01 0.  1.
        -11    1    1    2    0    0 -0.38497082781E+02 -0.96155796732E+02 -0.37441351901E+03  0.38847579827E+03  0.00000000000E+00 0.  1.
         11    1    1    2    0    0  0.32726267458E+02 -0.53003458534E+01 -0.90270397133E+02  0.96165725944E+02  0.00000000000E+00 0. -1.
</event>
<event>
 7    1  0.2820496E-009  0.1112947E+03  0.7561462E-02  0.1258191E+00
          1   -1    0    0  501    0  0.00000000000E+00  0.00000000000E+00  0.37105636813E+03  0.37105636813E+03  0.00000000000E+00 0. -1.
         -1   -1    0    0    0  501 -0.00000000000E+00 -0.00000000000E+00 -0.39729890071E+02  0.39729890071E+02  0.00000000000E+00 0.  1.
         25    2    1    2    0    0 -0.23736034561E+02  0.47579733040E+02  0.18106334466E+03  0.22640428353E+03  0.12509090490E+03 0.  0.
          5    1    3    3  502    0 -0.36426877844E+02  0.84286572620E+02  0.15232510817E+03  0.17790883826E+03  0.41800000000E+01 0.  1.
         -5    1    3    3    0  502  0.12690843282E+02 -0.36706839580E+02  0.28738236495E+02  0.48495445271E+02  0.41800000000E+01 0.  1.
        -11    1    1    2    0    0  0.42732761003E+02 -0.56321946290E+02  0.63154564429E+02  0.94798467841E+02  0.00000000000E+00 0.  1.
         11    1    1    2    0    0 -0.18996726441E+02  0.87422132497E+01  0.87108568970E+02  0.89583506830E+02  0.00000000000E+00 0. -1.
</event>
<event>
 7    1  0.2820496E-009  0.1106113E+03  0.7561462E-02  0.1259442E+00
         -1   -1    0    0    0  501 -0.00000000000E+00  0.00000000000E+00  0.17595354769E+02  0.17595354769E+02  0.00000000000E+00 0.  1.
          1   -1    0    0  501    0  0.00000000000E+00 -0.00000000000E+00 -0.78388397070E+03  0.78388397070E+03  0.00000000000E+00 0. -1.
         25    2    1    2    0    0  0.21845239717E+02  0.39030049628E+02 -0.46006582944E+03  0.47886247295E+03  0.12509253097E+03 0.  0.
          5    1    3    3  502    0  0.53343848396E+01  0.81208656375E+02 -0.35737124561E+03  0.36654465093E+03  0.41800000000E+01 0. -1.
         -5    1    3    3    0  502  0.16510854877E+02 -0.42178606747E+02 -0.10269458383E+03  0.11231782202E+03  0.41800000000E+01 0. -1.
        -11    1    1    2    0    0  0.27113539569E+02  0.59511726351E+01 -0.43423047736E+02  0.51537574239E+02  0.00000000000E+00 0.  1.
         11    1    1    2    0    0 -0.48958779286E+02 -0.44981222263E+02 -0.26279973875E+03  0.27107927828E+03  0.00000000000E+00 0. -1.
</event>
<event>
 7    1  0.2820496E-009  0.5742396E+02  0.7561462E-02  0.1408972E+00
         -2   -1    0    0    0  501 -0.00000000000E+00  0.00000000000E+00  0.24074923936E+02  0.24074923936E+02  0.00000000000E+00 0.  1.
          2   -1    0    0  501    0  0.00000000000E+00 -0.00000000000E+00 -0.79741249353E+03  0.79741249353E+03  0.00000000000E+00 0. -1.
         25    2    1    2    0    0 -0.75447436338E+01  0.34521167907E+02 -0.65447382159E+03  0.66725805085E+03  0.12509472046E+03 0.  0.
          5    1    3    3  502    0 -0.43073954406E+01  0.40404938916E+02 -0.59163039585E+02  0.71894717451E+02  0.41800000000E+01 0.  1.
         -5    1    3    3    0  502 -0.32373481932E+01 -0.58837710089E+01 -0.59531078200E+03  0.59536333340E+03  0.41800000000E+01 0.  1.
        -11    1    1    2    0    0 -0.23448340841E+02 -0.65633685924E+01  0.38128937485E+01  0.24646311169E+02  0.00000000000E+00 0.  1.
         11    1    1    2    0    0  0.30993084475E+02 -0.27957799315E+02 -0.12267664175E+03  0.12958305545E+03  0.00000000000E+00 0. -1.
</event>
<event>
 7    1  0.2820496E-009  0.9531025E+02  0.7561462E-02  0.1290479E+00
          3   -1    0    0  501    0  0.00000000000E+00  0.00000000000E+00  0.25183795604E+02  0.25183795604E+02  0.00000000000E+00 0. -1.
         -3   -1    0    0    0  501 -0.00000000000E+00 -0.00000000000E+00 -0.53522051079E+03  0.53522051079E+03  0.00000000000E+00 0.  1.
         25    2    1    2    0    0  0.13263109830E+02  0.88258531913E+01 -0.19771457746E+03  0.23450586900E+03  0.12509253650E+03 0.  0.
          5    1    3    3  502    0 -0.35128516954E+02  0.28372773859E+02 -0.20588378786E+02  0.49803420975E+02  0.41800000000E+01 0.  1.
         -5    1    3    3    0  502  0.48391626784E+02 -0.19546920668E+02 -0.17712619867E+03  0.18470244802E+03  0.41800000000E+01 0.  1.
        -11    1    1    2    0    0 -0.15308023277E+02  0.40629050149E+02 -0.13616169789E+03  0.14291628061E+03  0.00000000000E+00 0. -1.
         11    1    1    2    0    0  0.20449134462E+01 -0.49454903340E+02 -0.17616043985E+03  0.18298215679E+03  0.00000000000E+00 0.  1.
</event>
<event>
 7    1  0.2820496E-009  0.3215954E+03  0.7561462E-02  0.1074917E+00
          2   -1    0    0  501    0  0.00000000000E+00  0.00000000000E+00  0.48309393630E+03  0.48309393630E+03  0.00000000000E+00 0. -1.
         -2   -1    0    0    0  501 -0.00000000000E+00 -0.00000000000E+00 -0.27083373504E+03  0.27083373504E+03  0.00000000000E+00 0.  1.
         25    2    1    2    0    0  0.71599268618E+02  0.30263119886E+03  0.26253330116E+03  0.42577430082E+03  0.12509165934E+03 0.  0.
          5    1    3    3  502    0  0.24357675798E+01 -0.88876730546E+01 -0.30708468631E+01  0.10574790612E+02  0.41800000000E+01 0.  1.
         -5    1    3    3    0  502  0.69163501038E+02  0.31151887191E+03  0.26560414802E+03  0.41519951021E+03  0.41800000000E+01 0.  1.
        -11    1    1    2    0    0 -0.41458332194E+01 -0.10561654605E+03  0.21551848464E+02  0.10787272549E+03  0.00000000000E+00 0. -1.
         11    1    1    2    0    0 -0.67453435399E+02 -0.19701465281E+03 -0.71824948364E+02  0.22028064503E+03  0.00000000000E+00 0.  1.
</event>
<event>
 7    1  0.2820496E-009  0.1385682E+03  0.7561462E-02  0.1215269E+00
          2   -1    0    0  501    0  0.00000000000E+00  0.00000000000E+00  0.31190440375E+03  0.31190440375E+03  0.00000000000E+00 0. -1.
         -2   -1    0    0    0  501 -0.00000000000E+00 -0.00000000000E+00 -0.70685771267E+02  0.70685771267E+02  0.00000000000E+00 0.  1.
         25    2    1    2    0    0 -0.48606087711E+02  0.78730509796E+02  0.18636774616E+03  0.24277875088E+03  0.12509012805E+03 0.  0.
          5    1    3    3  502    0  0.10516566063E+01 -0.29992651870E+02  0.15020279827E+02  0.33819319241E+02  0.41800000000E+01 0.  1.
         -5    1    3    3    0  502 -0.49657744317E+02  0.10872316167E+03  0.17134746633E+03  0.20895943164E+03  0.41800000000E+01 0.  1.
        -11    1    1    2    0    0 -0.24603605561E+02 -0.32071292935E+02  0.81575187721E+01  0.41236517186E+02  0.00000000000E+00 0. -1.
         11    1    1    2    0    0  0.73209693271E+02 -0.46659216861E+02  0.46693367551E+02  0.98574906950E+02  0.00000000000E+00 0.  1.
</event>
<event>
 7    1  0.2820496E-009  0.1059343E+03  0.7561462E-02  0.1268290E+00
          2   -1    0    0  501    0  0.00000000000E+00  0.00000000000E+00  0.84471498674E+03  0.84471498674E+03  0.00000000000E+00 0. -1.
         -2   -1    0    0    0  501 -0.00000000000E+00 -0.00000000000E+00 -0.17189328418E+02  0.17189328418E+02  0.00000000000E+00 0.  1.
         25    2    1    2    0    0  0.52136419595E+01  0.46287510434E+02  0.40403721382E+03  0.42551580454E+03  0.12509162274E+03 0.  0.
          5    1    3    3  502    0  0.18290568649E+02  0.74842902237E+02  0.37393255871E+03  0.38181020911E+03  0.41800000000E+01 0.  1.
         -5    1    3    3    0  502 -0.13076926690E+02 -0.28555391803E+02  0.30104655107E+02  0.43705595429E+02  0.41800000000E+01 0.  1.
        -11    1    1    2    0    0  0.43349643239E+02 -0.19111956327E+02  0.24063592767E+03  0.24525518981E+03  0.00000000000E+00 0.  1.
         11    1    1    2    0    0 -0.48563285198E+02 -0.27175554107E+02  0.18285251683E+03  0.19113332080E+03  0.00000000000E+00 0. -1.
</event>
<event>
 7    1  0.2820496E-009  0.2526433E+03  0.7561462E-02  0.1111646E+00
          2   -1    0    0  501    0  0.00000000000E+00  0.00000000000E+00  0.14781415360E+04  0.14781415360E+04  0.00000000000E+00 0. -1.
         -2   -1    0    0    0  501 -0.00000000000E+00 -0.00000000000E+00 -0.70797486599E+02  0.70797486599E+02  0.00000000000E+00 0.  1.
         25    2    1    2    0    0  0.16438478504E+03  0.16950364260E+03  0.25551472799E+03  0.36971559074E+03  0.12509196378E+03 0.  0.
          5    1    3    3  502    0  0.17476226331E+03  0.16955567456E+03  0.26123983957E+03  0.35714801082E+03  0.41800000000E+01 0.  1.
         -5    1    3    3    0  502 -0.10377478264E+02 -0.52031954562E-01 -0.57251115791E+01  0.12567579920E+02  0.41800000000E+01 0.  1.
        -11    1    1    2    0    0 -0.42707319345E+02 -0.10388779393E+03  0.59340655024E+03  0.60394364201E+03  0.00000000000E+00 0.  1.
         11    1    1    2    0    0 -0.12167746570E+03 -0.65615848671E+02  0.55842277117E+03  0.57527978985E+03  0.00000000000E+00 0. -1.
</event>
<event>
 7    1  0.2820496E-009  0.1056135E+03  0.7561462E-02  0.1268916E+00
         -1   -1    0    0    0  501 -0.00000000000E+00  0.00000000000E+00  0.52605649837E+02  0.52605649837E+02  0.00000000000E+00 0.  1.
          1   -1    0    0  501    0  0.00000000000E+00 -0.00000000000E+00 -0.27699343922E+03  0.27699343922E+03  0.00000000000E+00 0. -1.
         25    2    1    2    0    0 -0.50438279063E+02  0.46157268985E+01 -0.93292626195E+02  0.16406308048E+03  0.12509138797E+03 0.  0.
          5    1    3    3  502    0  0.27895197144E+02  0.34758059744E+02 -0.57124536098E+02  0.72573753970E+02  0.41800000000E+01 0. -1.
         -5    1    3    3    0  502 -0.78333476207E+02 -0.30142332846E+02 -0.36168090097E+02  0.91489326511E+02  0.41800000000E+01 0. -1.
        -11    1    1    2    0    0  0.54260304209E+02 -0.26377706477E+02 -0.41427118457E+02  0.73185860352E+02  0.00000000000E+00 0.  1.
         11    1    1    2    0    0 -0.38220251454E+01  0.21761979579E+02 -0.89668044731E+02  0.92350148226E+02  0.00000000000E+00 0. -1.
</event>
<event>
 7    1  0.2820496E-009  0.7751270E+02  0.7561462E-02  0.1336262E+00
         -2   -1    0    0    0  501 -0.00000000000E+00  0.00000000000E+00  0.73558290415E+02  0.73558290415E+02  0.00000000000E+00 0.  1.
          2   -1    0    0  501    0  0.00000000000E+00 -0.00000000000E+00 -0.23219763901E+03  0.23219763901E+03  0.00000000000E+00 0. -1.
         25    2    1    2    0    0 -0.59554184138E+02  0.19278593840E+02 -0.42499256354E+02  0.14618947833E+03  0.12508721659E+03 0.  0.
          5    1    3    3  502    0 -0.45400248906E+02  0.59495071267E+01  0.40235769208E+02  0.61098025823E+02  0.41800000000E+01 0.  1.
         -5    1    3    3    0  502 -0.14153935232E+02  0.13329086714E+02 -0.82735025562E+02  0.85091452508E+02  0.41800000000E+01 0.  1.
        -11    1    1    2    0    0  0.16202881083E+02 -0.38475913369E+02 -0.94334014642E+01  0.42800915038E+02  0.00000000000E+00 0.  1.
         11    1    1    2    0    0  0.43351303055E+02  0.19197319528E+02 -0.10670669078E+03  0.11676553606E+03  0.00000000000E+00 0. -1.
</event>
<event>
 7    1  0.2820496E-009  0.8615208E+02  0.7561462E-02  0.1312447E+00
          1   -1    0    0  501    0  0.00000000000E+00  0.00000000000E+00  0.86052568164E+02  0.86052568164E+02  0.00000000000E+00 0.  1.
         -1   -1    0    0    0  501 -0.00000000000E+00 -0.00000000000E+00 -0.17778613137E+03  0.17778613137E+03  0.00000000000E+00 0. -1.
         25    2    1    2    0    0  0.12761849030E+02 -0.67912198977E+01  0.11216910988E+02  0.12641726628E+03  0.12508605303E+03 0.  0.
          5    1    3    3  502    0 -0.20245421085E+02 -0.33208215495E+02  0.53634324989E+02  0.66383551188E+02  0.41800000000E+01 0. -1.
         -5    1    3    3    0  502  0.33007270116E+02  0.26416995597E+02 -0.42417414001E+02  0.60033715089E+02  0.41800000000E+01 0. -1.
        -11    1    1    2    0    0 -0.19191701113E+02  0.46590701221E+02 -0.62894465239E+02  0.80589878952E+02  0.00000000000E+00 0.  1.
         11    1    1    2    0    0  0.64298520826E+01 -0.39799481323E+02 -0.40056008959E+02  0.56831554309E+02  0.00000000000E+00 0. -1.
</event>
<event>
 7    1  0.2820496E-009  0.1396940E+03  0.7561462E-02  0.1213741E+00
          3   -1    0    0  501    0  0.00000000000E+00  0.00000000000E+00  0.17461184285E+02  0.17461184285E+02  0.00000000000E+00 0. -1.
         -3   -1    0    0    0  501 -0.00000000000E+00 -0.00000000000E+00 -0.11928456745E+04  0.11928456745E+04  0.00000000000E+00 0.  1.
         25    2    1    2    0    0 -0.87214394589E+02 -0.36193579406E+02 -0.68026125484E+03  0.69807960714E+03  0.12507372731E+03 0.  0.
          5    1    3    3  502    0  0.20665264368E+02  0.23607755601E+02 -0.18397034535E+03  0.18667335011E+03  0.41800000000E+01 0.  1.
         -5    1    3    3    0  502 -0.10787965896E+03 -0.59801335007E+02 -0.49629090949E+03  0.51140625703E+03  0.41800000000E+01 0.  1.
        -11    1    1    2    0    0  0.51397631883E+01 -0.22716874098E+02 -0.42475891228E+02  0.48442490337E+02  0.00000000000E+00 0. -1.
         11    1    1    2    0    0  0.82074631400E+02  0.58910453504E+02 -0.45264734412E+03  0.46378476128E+03  0.00000000000E+00 0.  1.
</event>
<event>
 7    1  0.2820496E-009  0.1482434E+03  0.7561462E-02  0.1202648E+00
          1   -1    0    0  501    0  0.00000000000E+00  0.00000000000E+00  0.13543992148E+04  0.13543992148E+04  0.00000000000E+00 0. -1.
         -1   -1    0    0    0  501 -0.00000000000E+00 -0.00000000000E+00 -0.21410010233E+02  0.21410010233E+02  0.00000000000E+00 0.  1.
         25    2    1    2    0    0 -0.60239155432E+02 -0.84234318274E+02  0.10406748493E+04  0.10532693827E+04  0.12509226266E+03 0.  0.
          5    1    3    3  502    0  0.31972851955E+02  0.60587922018E+01  0.18068585514E+03  0.18364047178E+03  0.41800000000E+01 0. -1.
         -5    1    3    3    0  502 -0.92212007386E+02 -0.90293110476E+02  0.85998899419E+03  0.86962891088E+03  0.41800000000E+01 0. -1.
        -11    1    1    2    0    0  0.35607543270E+02 -0.10134478800E+02  0.10535208591E+03  0.11166766230E+03  0.00000000000E+00 0.  1.
         11    1    1    2    0    0  0.24631612162E+02  0.94368797074E+02  0.18696226928E+03  0.21087218004E+03  0.00000000000E+00 0. -1.
</event>
<event>
 7    1  0.2820496E-009  0.1753945E+03  0.7561462E-02  0.1172336E+00
         -4   -1    0    0    0  501 -0.00000000000E+00  0.00000000000E+00  0.33450292963E+03  0.33450292963E+03  0.00000000000E+00 0.  1.
          4   -1    0    0  501    0  0.00000000000E+00 -0.00000000000E+00 -0.15323105781E+03  0.15323105781E+03  0.00000000000E+00 0. -1.
         25    2    1    2    0    0  0.24427895850E+02 -0.15236865380E+03 -0.41308842828E+02  0.20289580169E+03  0.12508939639E+03 0.  0.
          5    1    3    3  502    0 -0.18301110860E+02 -0.11568776202E+03  0.20714210820E+02  0.11901739314E+03  0.41800000000E+01 0.  1.
         -5    1    3    3    0  502  0.42729006710E+02 -0.36680891779E+02 -0.62023053648E+02  0.83878408545E+02  0.41800000000E+01 0.  1.
        -11    1    1    2    0    0 -0.32904305044E+02  0.98475526679E+01  0.34230752787E+02  0.48491360265E+02  0.00000000000E+00 0.  1.
         11    1    1    2    0    0  0.84764091941E+01  0.14252110114E+03  0.18834996186E+03  0.23634682548E+03  0.00000000000E+00 0. -1.
</event>
<event>
 7    1  0.2820496E-009  0.9452839E+02  0.7561462E-02  0.1292242E+00
         -3   -1    0    0    0  501 -0.00000000000E+00  0.00000000000E+00  0.18458965000E+03  0.18458965000E+03  0.00000000000E+00 0.  1.
          3   -1    0    0  501    0  0.00000000000E+00 -0.00000000000E+00 -0.75850038021E+02  0.75850038021E+02  0.00000000000E+00 0. -1.
         25    2    1    2    0    0  0.39815559570E+02 -0.21702341160E+02  0.47363375046E+02  0.14123551558E+03  0.12509161110E+03 0.  0.
          5    1    3    3  502    0  0.66181642401E+02 -0.55231754363E+02  0.47222157090E+02  0.98376628328E+02  0.41800000000E+01 0.  1.
         -5    1    3    3    0  502 -0.26366082831E+02  0.33529413202E+02  0.14121795536E+00  0.42858887247E+02  0.41800000000E+01 0.  1.
        -11    1    1    2    0    0 -0.45439186607E+02  0.94451201595E+01  0.82198918809E+02  0.94395933322E+02  0.00000000000E+00 0.  1.
         11    1    1    2    0    0  0.56236270374E+01  0.12257221001E+02 -0.20822681878E+02  0.24808239121E+02  0.00000000000E+00 0. -1.
</event>
<event>
 7    1  0.2820496E-009  0.1176439E+03  0.7561462E-02  0.1247035E+00
          2   -1    0    0  501    0  0.00000000000E+00  0.00000000000E+00  0.71481580806E+02  0.71481580806E+02  0.00000000000E+00 0.  1.
         -2   -1    0    0    0  501 -0.00000000000E+00 -0.00000000000E+00 -0.22232099835E+03  0.22232099835E+03  0.00000000000E+00 0. -1.
         25    2    1    2    0    0 -0.60659998821E+02  0.13520356238E+02 -0.70159195127E+02  0.15630823807E+03  0.12509003612E+03 0.  0.
          5    1    3    3  502    0  0.35450971762E+02 -0.15310750733E+02 -0.25010370189E+02  0.46197202338E+02  0.41800000000E+01 0. -1.
         -5    1    3    3    0  502 -0.96110970583E+02  0.28831106971E+02 -0.45148824938E+02  0.11011103573E+03  0.41800000000E+01 0. -1.
        -11    1    1    2    0    0  0.65584856944E+02  0.14831301168E+02 -0.19703053556E+02  0.70068190173E+02  0.00000000000E+00 0.  1.
         11    1    1    2    0    0 -0.49248581226E+01 -0.28351657407E+02 -0.60977168856E+02  0.67426150913E+02  0.00000000000E+00 0. -1.
</event>
<event>
 7    1  0.2820496E-009  0.8462093E+02  0.7561462E-02  0.1316427E+00
          2   -1    0    0  501    0  0.00000000000E+00  0.00000000000E+00  0.78686321808E+03  0.78686321808E+03  0.00000000000E+00 0. -1.
         -2   -1    0    0    0  501 -0.00000000000E+00 -0.00000000000E+00 -0.15568444375E+02  0.15568444375E+02  0.00000000000E+00 0.  1.
         25    2    1    2    0    0  0.38656300166E+01 -0.28546987753E+01  0.42796306341E+03  0.44589542012E+03  0.12508896690E+03 0.  0.
          5    1    3    3  502    0  0.24923203683E+02  0.26838868077E+02  0.33741025720E+02  0.49974194722E+02  0.41800000000E+01 0.  1.
         -5    1    3    3    0  502 -0.21057573666E+02 -0.29693566853E+02  0.39422203769E+03  0.39592122540E+03  0.41800000000E+01 0.  1.
        -11    1    1    2    0    0 -0.36405477182E+02 -0.31699398706E+02  0.15693690053E+03  0.16419318316E+03  0.00000000000E+00 0.  1.
         11    1    1    2    0    0  0.32539847166E+02  0.34554097481E+02  0.18639480977E+03  0.19234305918E+03  0.00000000000E+00 0. -1.
</event>
<event>
 7    1  0.2820496E-009  0.1133921E+03  0.7561462E-02  0.1254414E+00
          2   -1    0    0  501    0  0.00000000000E+00  0.00000000000E+00  0.33747581835E+03  0.33747581835E+03  0.00000000000E+00 0. -1.
         -2   -1    0    0    0  501 -0.00000000000E+00 -0.00000000000E+00 -0.56510452065E+02  0.56510452065E+02  0.00000000000E+00 0.  1.
         25    2    1    2    0    0 -0.46962465251E+02 -0.11665177863E+02  0.25062621955E+03  0.28426002246E+03  0.12509479975E+03 0.  0.
          5    1    3    3  502    0 -0.75553942285E+02  0.20212291984E+02  0.21356504106E+03  0.22747402952E+03  0.41800000000E+01 0. -1.
         -5    1    3    3    0  502  0.28591477035E+02 -0.31877469847E+02  0.37061178487E+02  0.56785992936E+02  0.41800000000E+01 0. -1.
        -11    1    1    2    0    0  0.20608608195E+02  0.52746382452E+02  0.17097157155E+02  0.59154107011E+02  0.00000000000E+00 0.  1.
         11    1    1    2    0    0  0.26353857055E+02 -0.41081204589E+02  0.13241989582E+02  0.50572140950E+02  0.00000000000E+00 0. -1.
</event>
<event>
 7    1  0.2820496E-009  0.1088515E+03  0.7561462E-02  0.1262712E+00
         -1   -1    0    0    0  501 -0.00000000000E+00  0.00000000000E+00  0.11081844068E+03  0.11081844068E+03  0.00000000000E+00 0.  1.
          1   -1    0    0  501    0  0.00000000000E+00 -0.00000000000E+00 -0.17253200321E+03  0.17253200321E+03  0.00000000000E+00 0. -1.
         25    2    1    2    0    0 -0.45382087796E+02  0.59975037786E+02 -0.70736263549E+02  0.16219768196E+03  0.12509168638E+03 0.  0.
          5    1    3    3  502    0  0.14288789821E+02  0.20284195556E+02  0.29584726224E+02  0.38837437218E+02  0.41800000000E+01 0. -1.
         -5    1    3    3    0  502 -0.59670877617E+02  0.39690842230E+02 -0.10032098977E+03  0.12336024474E+03  0.41800000000E+01 0. -1.
        -11    1    1    2    0    0 -0.16773504525E+02 -0.56015068678E+02  0.24271847687E+01  0.58522898074E+02  0.00000000000E+00 0.  1.
         11    1    1    2    0    0  0.62155592321E+02 -0.39599691087E+01  0.65955162448E+01  0.62629863857E+02  0.00000000000E+00 0. -1.
</event>
<event>
 7    1  0.2820496E-009  0.1206356E+03  0.7561462E-02  0.1242052E+00
          1   -1    0    0  501    0  0.00000000000E+00  0.00000000000E+00  0.10113811597E+04  0.10113811597E+04  0.00000000000E+00 0. -1.
         -1   -1    0    0    0  501 -0.00000000000E+00 -0.00000000000E+00 -0.14673604441E+02  0.14673604441E+02  0.00000000000E+00 0.  1.
         25    2    1    2    0    0  0.52939081105E+02 -0.11618434784E+02  0.55962633272E+03  0.57599324735E+03  0.12509618052E+03 0.  0.
          5    1    3    3  502    0  0.12353347935E+02 -0.66598333773E+02  0.28088501267E+03  0.28896679049E+03  0.41800000000E+01 0. -1.
         -5    1    3    3    0  502  0.40585733170E+02  0.54979898990E+02  0.27874132005E+03  0.28702645685E+03  0.41800000000E+01 0. -1.
        -11    1    1    2    0    0 -0.72804769424E+02  0.29173205732E+02  0.28081505622E+03  0.29156252534E+03  0.00000000000E+00 0.  1.
         11    1    1    2    0    0  0.19865688319E+02 -0.17554770948E+02  0.15626616632E+03  0.15849899145E+03  0.00000000000E+00 0. -1.
</event>
<event>
 7    1  0.2820496E-009  0.1194811E+03  0.7561462E-02  0.1243956E+00
          2   -1    0    0  501    0  0.00000000000E+00  0.00000000000E+00  0.73008340622E+03  0.73008340622E+03  0.00000000000E+00 0. -1.
         -2   -1    0    0    0  501 -0.00000000000E+00 -0.00000000000E+00 -0.21765830204E+02  0.21765830204E+02  0.00000000000E+00 0.  1.
         25    2    1    2    0    0  0.49066810528E+02 -0.18110386492E+02  0.28704122932E+03  0.31745789385E+03  0.12510519192E+03 0.  0.
          5    1    3    3  502    0  0.10576835566E+02 -0.69750657273E+02  0.16192089093E+03  0.17667164730E+03  0.41800000000E+01 0.  1.
         -5    1    3    3    0  502  0.38489974962E+02  0.51640270781E+02  0.12512033839E+03  0.14078624655E+03  0.41800000000E+01 0.  1.
        -11    1    1    2    0    0 -0.72770736862E+02  0.28123934369E+02  0.35062912413E+03  0.35920372842E+03  0.00000000000E+00 0. -1.
         11    1    1    2    0    0  0.23703926333E+02 -0.10013547877E+02  0.70647222565E+02  0.75187614146E+02  0.00000000000E+00 0.  1.
</event>
<event>
 7    1  0.2820496E-009  0.8506818E+02  0.7561462E-02  0.1315254E+00
          1   -1    0    0  501    0  0.00000000000E+00  0.00000000000E+00  0.72168850704E+03  0.72168850704E+03  0.00000000000E+00 0. -1.
         -1   -1    0    0    0  501 -0.00000000000E+00 -0.00000000000E+00 -0.22407426925E+02  0.22407426925E+02  0.00000000000E+00 0.  1.
         25    2    1    2    0    0  0.11853186741E+02  0.62960723548E+02  0.44964139007E+03  0.47109341948E+03  0.12508828670E+03 0.  0.
          5    1    3    3  502    0  0.23277216782E+02 -0.54677100041E+00  0.83447541385E+01  0.25084559021E+02  0.41800000000E+01 0.  1.
         -5    1    3    3    0  502 -0.11424030042E+02  0.63507494548E+02  0.44129663593E+03  0.44600886046E+03  0.41800000000E+01 0.  1.
        -11    1    1    2    0    0 -0.31128123714E+02 -0.27865830130E+02  0.34539249214E+02  0.54207234859E+02  0.00000000000E+00 0.  1.
         11    1    1    2    0    0  0.19274936973E+02 -0.35094893418E+02  0.21510044084E+03  0.21879527963E+03  0.00000000000E+00 0. -1.
</event>
<event>
 7    1  0.3283909E-009  0.7735448E+02  0.7561462E-02  0.1336731E+00
         -1   -1    0    0    0  501 -0.00000000000E+00  0.00000000000E+00  0.13974556775E+03  0.13974556775E+03  0.00000000000E+00 0.  1.
          1   -1    0    0  501    0  0.00000000000E+00 -0.00000000000E+00 -0.89193202796E+02  0.89193202796E+02  0.00000000000E+00 0. -1.
         25    2    1    2    0    0  0.21302559949E+02  0.16273325995E+02  0.32777282612E+02  0.13206533372E+03  0.12509309300E+03 0.  0.
          5    1    3    3  502    0  0.53015141946E+02 -0.21642509073E+01  0.64334174975E+02  0.83496393498E+02  0.41800000000E+01 0.  1.
         -5    1    3    3    0  502 -0.31712581997E+02  0.18437576902E+02 -0.31556892363E+02  0.48568940224E+02  0.41800000000E+01 0.  1.
        -11    1    1    2    0    0 -0.41459712158E+02 -0.58438221917E+01  0.44975644123E+02  0.61448080151E+02  0.00000000000E+00 0.  1.
         11    1    1    2    0    0  0.20157152208E+02 -0.10429503803E+02 -0.27200561776E+02  0.35425356677E+02  0.00000000000E+00 0. -1.
</event>
<event>
 7    1  0.2820496E-009  0.9954297E+02  0.7561462E-02  0.1281260E+00
         -1   -1    0    0    0  501 -0.00000000000E+00  0.00000000000E+00  0.77875984675E+03  0.77875984675E+03  0.00000000000E+00 0.  1.
          1   -1    0    0  501    0  0.00000000000E+00 -0.00000000000E+00 -0.16346400914E+02  0.16346400914E+02  0.00000000000E+00 0. -1.
         25    2    1    2    0    0 -0.20770948810E+02  0.23716713037E+02  0.40875025570E+03  0.42862340875E+03  0.12508932887E+03 0.  0.
          5    1    3    3  502    0 -0.69572691624E+02  0.15116003024E+02  0.30950823417E+03  0.31761875321E+03  0.41800000000E+01 0.  1.
         -5    1    3    3    0  502  0.48801742814E+02  0.86007100131E+01  0.99242021531E+02  0.11100465554E+03  0.41800000000E+01 0.  1.
        -11    1    1    2    0    0  0.42920609019E+02 -0.32880091558E+02  0.32334173401E+03  0.32783098702E+03  0.00000000000E+00 0.  1.
         11    1    1    2    0    0 -0.22149660209E+02  0.91633785213E+01  0.30321456116E+02  0.38651851887E+02  0.00000000000E+00 0. -1.
</event>
<event>
 7    1  0.2820496E-009  0.2841344E+03  0.7561462E-02  0.1093452E+00
         -1   -1    0    0    0  501 -0.00000000000E+00  0.00000000000E+00  0.26910370211E+03  0.26910370211E+03  0.00000000000E+00 0.  1.
          1   -1    0    0  501    0  0.00000000000E+00 -0.00000000000E+00 -0.31492458403E+03  0.31492458403E+03  0.00000000000E+00 0. -1.
         25    2    1    2    0    0  0.26510936749E+03 -0.60030302826E+02 -0.41714112973E+02  0.30211790424E+03  0.12509415194E+03 0.  0.
          5    1    3    3  502    0  0.84613849553E+02 -0.65987065009E+02  0.23751435485E+02  0.10997908607E+03  0.41800000000E+01 0. -1.
         -5    1    3    3    0  502  0.18049551794E+03  0.59567621832E+01 -0.65465548458E+02  0.19213881817E+03  0.41800000000E+01 0. -1.
        -11    1    1    2    0    0 -0.13900989463E+03  0.66251202398E+02  0.12843253478E+02  0.15452482579E+03  0.00000000000E+00 0. -1.
         11    1    1    2    0    0 -0.12609947286E+03 -0.62208995723E+01 -0.16950022431E+02  0.12738555612E+03  0.00000000000E+00 0.  1.
</event>
<event>
 7    1  0.2820496E-009  0.8236963E+02  0.7561462E-02  0.1322458E+00
          2   -1    0    0  501    0  0.00000000000E+00  0.00000000000E+00  0.99113667419E+03  0.99113667419E+03  0.00000000000E+00 0. -1.
         -2   -1    0    0    0  501 -0.00000000000E+00 -0.00000000000E+00 -0.14024157437E+02  0.14024157437E+02  0.00000000000E+00 0.  1.
         25    2    1    2    0    0 -0.60709087038E+01  0.37977735302E+02  0.65259841180E+03  0.66559105130E+03  0.12509035205E+03 0.  0.
          5    1    3    3  502    0  0.22795495426E+02  0.13275286686E+02  0.24230928750E+02  0.36062142981E+02  0.41800000000E+01 0. -1.
         -5    1    3    3    0  502 -0.28866404130E+02  0.24702448615E+02  0.62836748305E+03  0.62952890832E+03  0.41800000000E+01 0. -1.
        -11    1    1    2    0    0  0.30604856995E+02 -0.59669309060E+02  0.20819697032E+03  0.21873056980E+03  0.00000000000E+00 0. -1.
         11    1    1    2    0    0 -0.24533948291E+02  0.21691573758E+02  0.11631713463E+03  0.12083921052E+03  0.00000000000E+00 0.  1.
</event>
<event>
 7    1  0.2820496E-009  0.1003449E+03  0.7561462E-02  0.1279572E+00
         -1   -1    0    0    0  501 -0.00000000000E+00  0.00000000000E+00  0.26364350519E+03  0.26364350519E+03  0.00000000000E+00 0.  1.
          1   -1    0    0  501    0  0.00000000000E+00 -0.00000000000E+00 -0.61560424067E+02  0.61560424067E+02  0.00000000000E+00 0. -1.
         25    2    1    2    0    0 -0.10275229818E+02 -0.64571819323E+02  0.12570246497E+03  0.18900767561E+03  0.12509073323E+03 0.  0.
          5    1    3    3  502    0  0.44400607571E+02 -0.40706727705E+02  0.13514425638E+02  0.61875388753E+02  0.41800000000E+01 0.  1.
         -5    1    3    3    0  502 -0.54675837389E+02 -0.23865091618E+02  0.11218803933E+03  0.12713228685E+03  0.41800000000E+01 0.  1.
        -11    1    1    2    0    0  0.24666103423E+02  0.60822150465E+02  0.93042831775E+02  0.11386272081E+03  0.00000000000E+00 0.  1.
         11    1    1    2    0    0 -0.14390873604E+02  0.37496688583E+01 -0.16662215622E+02  0.22333532839E+02  0.00000000000E+00 0. -1.
</event>
<event>
 7    1  0.2820496E-009  0.1515795E+03  0.7561462E-02  0.1198546E+00
          1   -1    0    0  501    0  0.00000000000E+00  0.00000000000E+00  0.57076630145E+02  0.57076630145E+02  0.00000000000E+00 0.  1.
         -1   -1    0    0    0  501 -0.00000000000E+00 -0.00000000000E+00 -0.48085165178E+03  0.48085165178E+03  0.00000000000E+00 0. -1.
         25    2    1    2    0    0 -0.81950658012E+01  0.10622558132E+03 -0.33198920340E+03  0.37042459591E+03  0.12508603781E+03 0.  0.
          5    1    3    3  502    0  0.28105970448E+02  0.12109340281E+03 -0.26362028328E+03  0.29149045256E+03  0.41800000000E+01 0. -1.
         -5    1    3    3    0  502 -0.36301036249E+02 -0.14867821488E+02 -0.68368920115E+02  0.78934143350E+02  0.41800000000E+01 0. -1.
        -11    1    1    2    0    0 -0.46284418755E+01 -0.12024085195E+03 -0.85032103808E+02  0.14734226695E+03  0.00000000000E+00 0. -1.
         11    1    1    2    0    0  0.12823507677E+02  0.14015270626E+02 -0.67537144268E+01  0.20161419058E+02  0.00000000000E+00 0.  1.
</event>
<event>
 7    1  0.2820496E-009  0.1901563E+03  0.7561462E-02  0.1158320E+00
         -2   -1    0    0    0  501 -0.00000000000E+00  0.00000000000E+00  0.65246041020E+02  0.65246041020E+02  0.00000000000E+00 0. -1.
          2   -1    0    0  501    0  0.00000000000E+00 -0.00000000000E+00 -0.80277805782E+03  0.80277805782E+03  0.00000000000E+00 0.  1.
         25    2    1    2    0    0 -0.59417138990E+01  0.17706730560E+03 -0.19810524662E+03  0.29373799232E+03  0.12509270451E+03 0.  0.
          5    1    3    3  502    0  0.32138899318E+02  0.13666453946E+02 -0.14511308148E+01  0.35203110566E+02  0.41800000000E+01 0.  1.
         -5    1    3    3    0  502 -0.38080613217E+02  0.16340085165E+03 -0.19665411580E+03  0.25853488176E+03  0.41800000000E+01 0.  1.
        -11    1    1    2    0    0  0.21213024499E+01 -0.14475291532E+03 -0.51089290743E+03  0.53100797478E+03  0.00000000000E+00 0.  1.
         11    1    1    2    0    0  0.38204114491E+01 -0.32314390278E+02 -0.28533862750E+02  0.43278131731E+02  0.00000000000E+00 0. -1.
</event>
<event>
 7    1  0.2820496E-009  0.1178842E+03  0.7561462E-02  0.1246629E+00
          3   -1    0    0  501    0  0.00000000000E+00  0.00000000000E+00  0.38922132368E+02  0.38922132368E+02  0.00000000000E+00 0.  1.
         -3   -1    0    0    0  501 -0.00000000000E+00 -0.00000000000E+00 -0.43979997052E+03  0.43979997052E+03  0.00000000000E+00 0. -1.
         25    2    1    2    0    0  0.37984652779E+02 -0.46810807364E+02 -0.14740972886E+03  0.20251066606E+03  0.12508739413E+03 0.  0.
          5    1    3    3  502    0  0.39059768596E+02 -0.81810064708E+02 -0.13941609096E+03  0.16635164871E+03  0.41800000000E+01 0.  1.
         -5    1    3    3    0  502 -0.10751158171E+01  0.34999257344E+02 -0.79936379023E+01  0.36159017348E+02  0.41800000000E+01 0.  1.
        -11    1    1    2    0    0  0.16190275667E+02  0.52818787749E+02 -0.12616022811E+03  0.13772564221E+03  0.00000000000E+00 0.  1.
         11    1    1    2    0    0 -0.54174928446E+02 -0.60079803852E+01 -0.12730788118E+03  0.13848579462E+03  0.00000000000E+00 0. -1.
</event>
<event>
 7    1  0.2820496E-009  0.1454159E+03  0.7561462E-02  0.1206222E+00
          1   -1    0    0  501    0  0.00000000000E+00  0.00000000000E+00  0.77499918475E+02  0.77499918475E+02  0.00000000000E+00 0. -1.
         -1   -1    0    0    0  501 -0.00000000000E+00 -0.00000000000E+00 -0.31841401757E+03  0.31841401757E+03  0.00000000000E+00 0.  1.
         25    2    1    2    0    0  0.11226471037E+03  0.11149095479E+01 -0.11022308250E+03  0.20100777779E+03  0.12510152117E+03 0.  0.
          5    1    3    3  502    0  0.10147929518E+03 -0.43689931379E+02 -0.10818685510E+03  0.15468912525E+03  0.41800000000E+01 0. -1.
         -5    1    3    3    0  502  0.10785415196E+02  0.44804840927E+02 -0.20362273944E+01  0.46318652543E+02  0.41800000000E+01 0. -1.
        -11    1    1    2    0    0 -0.10202394802E+03 -0.27521977390E+02 -0.12868524834E+03  0.16651197659E+03  0.00000000000E+00 0.  1.
         11    1    1    2    0    0 -0.10240762348E+02  0.26407067842E+02 -0.20057682553E+01  0.28394181654E+02  0.00000000000E+00 0. -1.
</event>
<event>
 7    1  0.2820496E-009  0.9126414E+02  0.7561462E-02  0.1299819E+00
         -1   -1    0    0    0  501 -0.00000000000E+00  0.00000000000E+00  0.18675196136E+03  0.18675196136E+03  0.00000000000E+00 0.  1.
          1   -1    0    0  501    0  0.00000000000E+00 -0.00000000000E+00 -0.80267817403E+02  0.80267817403E+02  0.00000000000E+00 0. -1.
         25    2    1    2    0    0  0.11172092717E+02 -0.56181002689E+02  0.86374674139E+02  0.16244395827E+03  0.12508530900E+03 0.  0.
          5    1    3    3  502    0  0.16444026780E+02 -0.70892500498E+02  0.11111061488E+03  0.13288789931E+03  0.41800000000E+01 0.  1.
         -5    1    3    3    0  502 -0.52719340630E+01  0.14711497809E+02 -0.24735940745E+02  0.29556058957E+02  0.41800000000E+01 0.  1.
        -11    1    1    2    0    0 -0.42442766197E+02  0.24809601879E+02  0.32066644952E+02  0.58695608578E+02  0.00000000000E+00 0.  1.
         11    1    1    2    0    0  0.31270673480E+02  0.31371400811E+02 -0.11957175132E+02  0.45880211920E+02  0.00000000000E+00 0. -1.
</event>
<event>
 7    1  0.2820496E-009  0.1396875E+03  0.7561462E-02  0.1213750E+00
         -2   -1    0    0    0  501 -0.00000000000E+00  0.00000000000E+00  0.67801623180E+02  0.67801623180E+02  0.00000000000E+00 0.  1.
          2   -1    0    0  501    0  0.00000000000E+00 -0.00000000000E+00 -0.33318312824E+03  0.33318312824E+03  0.00000000000E+00 0. -1.
         25    2    1    2    0    0 -0.84046113629E+02  0.32010864592E+02 -0.21071474808E+03  0.26103085622E+03  0.12509179898E+03 0.  0.
          5    1    3    3  502    0 -0.11715828160E+03  0.24822869524E+02 -0.16013337294E+03  0.20000601823E+03  0.41800000000E+01 0.  1.
         -5    1    3    3    0  502  0.33112167972E+02  0.71879950681E+01 -0.50581375135E+02  0.61024837988E+02  0.41800000000E+01 0.  1.
        -11    1    1    2    0    0 -0.12779519589E+02  0.13347894324E+02  0.25986723222E+01  0.18661069145E+02  0.00000000000E+00 0.  1.
         11    1    1    2    0    0  0.96825633218E+02 -0.45358758916E+02 -0.57265429298E+02  0.12129282605E+03  0.00000000000E+00 0. -1.
</event>
<event>
 7    1  0.2820496E-009  0.1288519E+03  0.7561462E-02  0.1229169E+00
          1   -1    0    0  501    0  0.00000000000E+00  0.00000000000E+00  0.32529485533E+02  0.32529485533E+02  0.00000000000E+00 0. -1.
         -1   -1    0    0    0  501 -0.00000000000E+00 -0.00000000000E+00 -0.58169621991E+03  0.58169621991E+03  0.00000000000E+00 0.  1.
         25    2    1    2    0    0  0.66339626013E+02  0.40108392130E+02 -0.36169622380E+03  0.39048829653E+03  0.12508925739E+03 0.  0.
          5    1    3    3  502    0 -0.13379704673E+02 -0.34900869958E+02 -0.90261375593E+02  0.97783820466E+02  0.41800000000E+01 0.  1.
         -5    1    3    3    0  502  0.79719330685E+02  0.75009262088E+02 -0.27143484821E+03  0.29270447606E+03  0.41800000000E+01 0.  1.
        -11    1    1    2    0    0  0.15591805455E+02 -0.21460125419E+02 -0.95704763613E+02  0.99312854952E+02  0.00000000000E+00 0.  1.
         11    1    1    2    0    0 -0.81931431468E+02 -0.18648266711E+02 -0.91765746960E+02  0.12442455396E+03  0.00000000000E+00 0. -1.
</event>
<event>
 7    1  0.2820496E-009  0.1330187E+03  0.7561462E-02  0.1223044E+00
          1   -1    0    0  501    0  0.00000000000E+00  0.00000000000E+00  0.12188594743E+03  0.12188594743E+03  0.00000000000E+00 0. -1.
         -1   -1    0    0    0  501 -0.00000000000E+00 -0.00000000000E+00 -0.20708884136E+03  0.20708884136E+03  0.00000000000E+00 0.  1.
         25    2    1    2    0    0  0.57690612195E+02 -0.71095410070E+02  0.26953318948E+02  0.15734058485E+03  0.12508722625E+03 0.  0.
          5    1    3    3  502    0  0.90335251823E+02 -0.73575793886E+02  0.31079286350E+01  0.11662326864E+03  0.41800000000E+01 0. -1.
         -5    1    3    3    0  502 -0.32644639628E+02  0.24803838158E+01  0.23845390313E+02  0.40717316212E+02  0.41800000000E+01 0. -1.
        -11    1    1    2    0    0 -0.20354917034E+02  0.76105629430E+02 -0.35887408910E+02  0.86569599726E+02  0.00000000000E+00 0.  1.
         11    1    1    2    0    0 -0.37335695161E+02 -0.50102193599E+01 -0.76268803967E+02  0.85064604212E+02  0.00000000000E+00 0. -1.
</event>
<event>
 7    1  0.3499192E-009  0.7952841E+02  0.7561462E-02  0.1330395E+00
         -2   -1    0    0    0  501 -0.00000000000E+00  0.00000000000E+00  0.51625302855E+02  0.51625302855E+02  0.00000000000E+00 0.  1.
          2   -1    0    0  501    0  0.00000000000E+00 -0.00000000000E+00 -0.32571927193E+03  0.32571927193E+03  0.00000000000E+00 0. -1.
         25    2    1    2    0    0 -0.10177867593E+02 -0.26552316329E+02 -0.24671718069E+03  0.27807543449E+03  0.12509182838E+03 0.  0.
          5    1    3    3  502    0  0.18851874687E+02  0.21071130542E+02 -0.38352028159E+01  0.28836901744E+02  0.41800000000E+01 0.  1.
         -5    1    3    3    0  502 -0.29029742279E+02 -0.47623446871E+02 -0.24288197787E+03  0.24923853274E+03  0.41800000000E+01 0.  1.
        -11    1    1    2    0    0  0.28251958207E+02  0.42102511507E+02  0.13031615972E+02  0.52350908613E+02  0.00000000000E+00 0.  1.
         11    1    1    2    0    0 -0.18074090614E+02 -0.15550195179E+02 -0.40408404359E+02  0.46918231685E+02  0.00000000000E+00 0. -1.
</event>
<event>
 7    1  0.2820496E-009  0.1436694E+03  0.7561462E-02  0.1208475E+00
         -1   -1    0    0    0  501 -0.00000000000E+00  0.00000000000E+00  0.31067990089E+02  0.31067990089E+02  0.00000000000E+00 0.  1.
          1   -1    0    0  501    0  0.00000000000E+00 -0.00000000000E+00 -0.12169251332E+04  0.12169251332E+04  0.00000000000E+00 0. -1.
         25    2    1    2    0    0  0.55131980303E+02 -0.10269837580E+03 -0.97662150394E+03  0.99147472605E+03  0.12508428674E+03 0.  0.
          5    1    3    3  502    0 -0.21105785479E+02 -0.11570620356E+01 -0.41943066115E+03  0.41998374360E+03  0.41800000000E+01 0. -1.
         -5    1    3    3    0  502  0.76237765782E+02 -0.10154131377E+03 -0.55719084279E+03  0.57149098245E+03  0.41800000000E+01 0. -1.
        -11    1    1    2    0    0 -0.35177254643E+01  0.83660077793E+02 -0.16818666019E+03  0.18787798081E+03  0.00000000000E+00 0. -1.
         11    1    1    2    0    0 -0.51614254839E+02  0.19038298011E+02 -0.41048979012E+02  0.68640416459E+02  0.00000000000E+00 0.  1.
</event>
<event>
 7    1  0.2820496E-009  0.1030320E+03  0.7561462E-02  0.1274046E+00
         -2   -1    0    0    0  501 -0.00000000000E+00  0.00000000000E+00  0.19758116772E+02  0.19758116772E+02  0.00000000000E+00 0.  1.
          2   -1    0    0  501    0  0.00000000000E+00 -0.00000000000E+00 -0.63485144753E+03  0.63485144753E+03  0.00000000000E+00 0. -1.
         25    2    1    2    0    0 -0.24272653766E+02 -0.37373530893E+00 -0.31543369298E+03  0.34020010079E+03  0.12509353504E+03 0.  0.
          5    1    3    3  502    0  0.31743969459E+02 -0.38845753287E+02 -0.19949678944E+03  0.20575012403E+03  0.41800000000E+01 0. -1.
         -5    1    3    3    0  502 -0.56016623225E+02  0.38472017978E+02 -0.11593690355E+03  0.13444997675E+03  0.41800000000E+01 0. -1.
        -11    1    1    2    0    0 -0.31445109851E+02  0.45180279573E+01 -0.55594685871E+02  0.64031059708E+02  0.00000000000E+00 0.  1.
         11    1    1    2    0    0  0.55717763617E+02 -0.41442926483E+01 -0.24406495191E+03  0.25037840381E+03  0.00000000000E+00 0. -1.
</event>
<event>
 7    1  0.2820496E-009  0.1033239E+03  0.7561462E-02  0.1273458E+00
          1   -1    0    0  501    0  0.00000000000E+00  0.00000000000E+00  0.17941191331E+03  0.17941191331E+03  0.00000000000E+00 0. -1.
         -1   -1    0    0    0  501 -0.00000000000E+00 -0.00000000000E+00 -0.91147835163E+02  0.91147835163E+02  0.00000000000E+00 0.  1.
         25    2    1    2    0    0 -0.68387698814E+02  0.14137075861E+01  0.47075572951E+02  0.15014736823E+03  0.12509694920E+03 0.  0.
          5    1    3    3  502    0  0.73563448142E+01 -0.20148629804E+02 -0.31815391098E+02  0.38597598406E+02  0.41800000000E+01 0. -1.
         -5    1    3    3    0  502 -0.75744043628E+02  0.21562337390E+02  0.78890964049E+02  0.11154976982E+03  0.41800000000E+01 0. -1.
        -11    1    1    2    0    0 -0.81677370582E+00 -0.30752848566E+02  0.32490329109E+02  0.44744008535E+02  0.00000000000E+00 0. -1.
         11    1    1    2    0    0  0.69204472520E+02  0.29339140980E+02  0.86981760884E+01  0.75668371711E+02  0.00000000000E+00 0.  1.
</event>
<event>
 7    1  0.2820496E-009  0.7856153E+02  0.7561462E-02  0.1333184E+00
          2   -1    0    0  501    0  0.00000000000E+00  0.00000000000E+00  0.10504805022E+03  0.10504805022E+03  0.00000000000E+00 0. -1.
         -2   -1    0    0    0  501 -0.00000000000E+00 -0.00000000000E+00 -0.13640976766E+03  0.13640976766E+03  0.00000000000E+00 0.  1.
         25    2    1    2    0    0  0.50051138514E+01 -0.46478016859E+02 -0.15541216458E+02  0.13444275183E+03  0.12509223355E+03 0.  0.
          5    1    3    3  502    0 -0.38201451516E+02 -0.30901650783E+02 -0.54912413866E+02  0.73804529100E+02  0.41800000000E+01 0. -1.
         -5    1    3    3    0  502  0.43206565367E+02 -0.15576366075E+02  0.39371197407E+02  0.60638222733E+02  0.41800000000E+01 0. -1.
        -11    1    1    2    0    0 -0.22526222899E+02  0.21184113747E+02 -0.51394656862E+02  0.59980064582E+02  0.00000000000E+00 0.  1.
         11    1    1    2    0    0  0.17521109047E+02  0.25293903112E+02  0.35574155871E+02  0.47035001465E+02  0.00000000000E+00 0. -1.
</event>
<event>
 7    1  0.2820496E-009  0.1450346E+03  0.7561462E-02  0.1206711E+00
         -1   -1    0    0    0  501 -0.00000000000E+00  0.00000000000E+00  0.33212186671E+02  0.33212186671E+02  0.00000000000E+00 0.  1.
          1   -1    0    0  501    0  0.00000000000E+00 -0.00000000000E+00 -0.67381139852E+03  0.67381139852E+03  0.00000000000E+00 0. -1.
         25    2    1    2    0    0  0.65959236256E+02 -0.78828802245E+02 -0.35812974800E+03  0.39302561205E+03  0.12509042496E+03 0.  0.
          5    1    3    3  502    0 -0.27617321367E+02  0.36090645946E+01 -0.12984315843E+03  0.13286256048E+03  0.41800000000E+01 0.  1.
         -5    1    3    3    0  502  0.93576557623E+02 -0.82437866840E+02 -0.22828658957E+03  0.26016305157E+03  0.41800000000E+01 0.  1.
        -11    1    1    2    0    0  0.22043712999E+02  0.27508808974E+02 -0.74183762603E+02  0.82133370124E+02  0.00000000000E+00 0.  1.
         11    1    1    2    0    0 -0.88002949255E+02  0.51319993271E+02 -0.20828570125E+03  0.23186460301E+03  0.00000000000E+00 0. -1.
</event>
<event>
 7    1  0.2820496E-009  0.1051710E+03  0.7561462E-02  0.1269783E+00
         -2   -1    0    0    0  501 -0.00000000000E+00  0.00000000000E+00  0.26988344823E+03  0.26988344823E+03  0.00000000000E+00 0. -1.
          2   -1    0    0  501    0  0.00000000000E+00 -0.00000000000E+00 -0.48515509375E+02  0.48515509375E+02  0.00000000000E+00 0.  1.
         25    2    1    2    0    0  0.17234411820E+02  0.96052579196E+01  0.16903302801E+03  0.21120636318E+03  0.12508667938E+03 0.  0.
          5    1    3    3  502    0  0.54747428193E+02  0.47825235091E+02  0.10143740640E+03  0.12486614362E+03  0.41800000000E+01 0. -1.
         -5    1    3    3    0  502 -0.37513016373E+02 -0.38219977172E+02  0.67595621610E+02  0.86340219558E+02  0.41800000000E+01 0. -1.
        -11    1    1    2    0    0 -0.34259693183E+02  0.26881632313E+02  0.50785429354E+02  0.66899241905E+02  0.00000000000E+00 0.  1.
         11    1    1    2    0    0  0.17025281362E+02 -0.36486890233E+02  0.15494814859E+01  0.40293352519E+02  0.00000000000E+00 0. -1.
</event>
<event>
 7    1  0.2820496E-009  0.1048273E+03  0.7561462E-02  0.1270460E+00
         -3   -1    0    0    0  501 -0.00000000000E+00  0.00000000000E+00  0.99988475637E+02  0.99988475637E+02  0.00000000000E+00 0.  1.
          3   -1    0    0  501    0  0.00000000000E+00 -0.00000000000E+00 -0.16197593375E+03  0.16197593375E+03  0.00000000000E+00 0. -1.
         25    2    1    2    0    0  0.38182948221E+02 -0.40019459433E+02 -0.72590300709E+02  0.15483965900E+03  0.12508586480E+03 0.  0.
          5    1    3    3  502    0  0.64274189199E+02  0.19388853997E+02 -0.56532472935E+02  0.87866330028E+02  0.41800000000E+01 0. -1.
         -5    1    3    3    0  502 -0.26091240978E+02 -0.59408313430E+02 -0.16057827774E+02  0.66973328969E+02  0.41800000000E+01 0. -1.
        -11    1    1    2    0    0 -0.93333172721E+01 -0.13592593516E+02 -0.29799464812E+02  0.34056974512E+02  0.00000000000E+00 0. -1.
         11    1    1    2    0    0 -0.28849630949E+02  0.53612052949E+02  0.40402307412E+02  0.73067775876E+02  0.00000000000E+00 0.  1.
</event>
<event>
 7    1  0.2820496E-009  0.1200676E+03  0.7561462E-02  0.1242986E+00
          1   -1    0    0  501    0  0.00000000000E+00  0.00000000000E+00  0.55978045988E+02  0.55978045988E+02  0.00000000000E+00 0. -1.
         -1   -1    0    0    0  501 -0.00000000000E+00 -0.00000000000E+00 -0.30378512223E+03  0.30378512223E+03  0.00000000000E+00 0.  1.
         25    2    1    2    0    0  0.41003451414E+02 -0.51320246003E+02 -0.17386264453E+03  0.22403330023E+03  0.12509056627E+03 0.  0.
          5    1    3    3  502    0 -0.26359372598E+02 -0.55629638972E+02 -0.12865492154E+03  0.14268508854E+03  0.41800000000E+01 0.  1.
         -5    1    3    3    0  502  0.67362824012E+02  0.43093929692E+01 -0.45207722996E+02  0.81348211690E+02  0.41800000000E+01 0.  1.
        -11    1    1    2    0    0 -0.98601108314E+01  0.72483737924E+02 -0.33456684424E+02  0.80439193069E+02  0.00000000000E+00 0.  1.
         11    1    1    2    0    0 -0.31143340583E+02 -0.21163491921E+02 -0.40487747287E+02  0.55290674921E+02  0.00000000000E+00 0. -1.
</event>
<event>
 7    1  0.2820496E-009  0.8001287E+02  0.7561462E-02  0.1329015E+00
          1   -1    0    0  501    0  0.00000000000E+00  0.00000000000E+00  0.60360996078E+03  0.60360996078E+03  0.00000000000E+00 0. -1.
         -1   -1    0    0    0  501 -0.00000000000E+00 -0.00000000000E+00 -0.27255313642E+02  0.27255313642E+02  0.00000000000E+00 0.  1.
         25    2    1    2    0    0  0.77214038473E+01  0.26482025601E+02  0.47084914081E+03  0.48796206402E+03  0.12508854767E+03 0.  0.
          5    1    3    3  502    0  0.20475936504E+02  0.39736076374E+02  0.52048101047E+02  0.68736431125E+02  0.41800000000E+01 0.  1.
         -5    1    3    3    0  502 -0.12754532657E+02 -0.13254050773E+02  0.41880103976E+03  0.41922563289E+03  0.41800000000E+01 0.  1.
        -11    1    1    2    0    0  0.42156326479E+02 -0.17209522311E+02  0.53442405853E+02  0.70209787521E+02  0.00000000000E+00 0. -1.
         11    1    1    2    0    0 -0.49877730326E+02 -0.92725032898E+01  0.52063100476E+02  0.72693422886E+02  0.00000000000E+00 0.  1.
</event>
<event>
 7    1  0.2820496E-009  0.1391081E+03  0.7561462E-02  0.1214534E+00
         -2   -1    0    0    0  501 -0.00000000000E+00  0.00000000000E+00  0.20541211138E+03  0.20541211138E+03  0.00000000000E+00 0.  1.
          2   -1    0    0  501    0  0.00000000000E+00 -0.00000000000E+00 -0.16693532861E+03  0.16693532861E+03  0.00000000000E+00 0. -1.
         25    2    1    2    0    0 -0.35632349492E+01  0.12409772975E+03  0.10543069565E+03  0.20536658103E+03  0.12508740082E+03 0.  0.
          5    1    3    3  502    0  0.34021052414E+02  0.19442656601E+02 -0.14288951874E+02  0.41917722370E+02  0.41800000000E+01 0.  1.
         -5    1    3    3    0  502 -0.37584287363E+02  0.10465507315E+03  0.11971964752E+03  0.16344885866E+03  0.41800000000E+01 0.  1.
        -11    1    1    2    0    0  0.16103654110E+02 -0.83582152013E+02  0.30022821352E+01  0.85172281341E+02  0.00000000000E+00 0. -1.
         11    1    1    2    0    0 -0.12540419161E+02 -0.40515577742E+02 -0.69956195010E+02  0.81808577623E+02  0.00000000000E+00 0.  1.
</event>
<event>
 7    1  0.2820496E-009  0.2026431E+03  0.7561462E-02  0.1147528E+00
          2   -1    0    0  501    0  0.00000000000E+00  0.00000000000E+00  0.43212253193E+03  0.43212253193E+03  0.00000000000E+00 0. -1.
         -2   -1    0    0    0  501 -0.00000000000E+00 -0.00000000000E+00 -0.10148858708E+03  0.10148858708E+03  0.00000000000E+00 0.  1.
         25    2    1    2    0    0 -0.17351407230E+03  0.36921140816E+02  0.13979110115E+03  0.25818447424E+03  0.12508943541E+03 0.  0.
          5    1    3    3  502    0 -0.17227913847E+03 -0.38687531168E+01  0.13029623246E+03  0.21607787808E+03  0.41800000000E+01 0. -1.
         -5    1    3    3    0  502 -0.12349338334E+01  0.40789893933E+02  0.94948686867E+01  0.42106596158E+02  0.41800000000E+01 0. -1.
        -11    1    1    2    0    0  0.88537806374E+02  0.18485386904E+02  0.12573433703E+03  0.15488633314E+03  0.00000000000E+00 0. -1.
         11    1    1    2    0    0  0.84976265929E+02 -0.55406527720E+02  0.65108506666E+02  0.12054031162E+03  0.00000000000E+00 0.  1.
</event>
<event>
 7    1  0.2820496E-009  0.1046728E+03  0.7561462E-02  0.1270766E+00
         -1   -1    0    0    0  501 -0.00000000000E+00  0.00000000000E+00  0.77945947794E+02  0.77945947794E+02  0.00000000000E+00 0.  1.
          1   -1    0    0  501    0  0.00000000000E+00 -0.00000000000E+00 -0.29698473991E+03  0.29698473991E+03  0.00000000000E+00 0. -1.
         25    2    1    2    0    0  0.68332011752E+02 -0.42315088776E+02 -0.20390139800E+03  0.25235217304E+03  0.12508400603E+03 0.  0.
          5    1    3    3  502    0  0.10568086496E+02 -0.30467876064E+02 -0.18847294808E+03  0.19125768084E+03  0.41800000000E+01 0. -1.
         -5    1    3    3    0  502  0.57763925256E+02 -0.11847212711E+02 -0.15428449924E+02  0.61094492199E+02  0.41800000000E+01 0. -1.
        -11    1    1    2    0    0 -0.49074309917E+01  0.53144399339E+02 -0.22293126624E+02  0.57839377198E+02  0.00000000000E+00 0. -1.
         11    1    1    2    0    0 -0.63424580761E+02 -0.10829310563E+02  0.71557325080E+01  0.64739137465E+02  0.00000000000E+00 0.  1.
</event>
<event>
 7    1  0.2820496E-009  0.1609835E+03  0.7561462E-02  0.1187591E+00
         -1   -1    0    0    0  501 -0.00000000000E+00  0.00000000000E+00  0.48421038292E+02  0.48421038292E+02  0.00000000000E+00 0.  1.
          1   -1    0    0  501    0  0.00000000000E+00 -0.00000000000E+00 -0.67202806262E+03  0.67202806262E+03  0.00000000000E+00 0. -1.
         25    2    1    2    0    0  0.12373585709E+03  0.23119843322E+02 -0.19606368093E+03  0.26444933890E+03  0.12508955343E+03 0.  0.
          5    1    3    3  502    0 -0.21393554938E+02  0.13425298270E+02 -0.59996459709E+02  0.65230134172E+02  0.41800000000E+01 0.  1.
         -5    1    3    3    0  502  0.14512941203E+03  0.96945450523E+01 -0.13606722122E+03  0.19921920472E+03  0.41800000000E+01 0.  1.
        -11    1    1    2    0    0 -0.71163144560E+02 -0.54493331576E+02 -0.18111262412E+03  0.20207795265E+03  0.00000000000E+00 0.  1.
         11    1    1    2    0    0 -0.52572712534E+02  0.31373488254E+02 -0.24643071928E+03  0.25392180937E+03  0.00000000000E+00 0. -1.
</event>
<event>
 7    1  0.2820496E-009  0.9892789E+02  0.7561462E-02  0.1282567E+00
          2   -1    0    0  501    0  0.00000000000E+00  0.00000000000E+00  0.31088979914E+02  0.31088979914E+02  0.00000000000E+00 0. -1.
         -2   -1    0    0    0  501 -0.00000000000E+00 -0.00000000000E+00 -0.38432427233E+03  0.38432427233E+03  0.00000000000E+00 0.  1.
         25    2    1    2    0    0  0.22706547903E+02  0.29822427214E+01 -0.20201680443E+03  0.23871146899E+03  0.12509154674E+03 0.  0.
          5    1    3    3  502    0  0.62545607809E+02  0.37209515949E+02 -0.13540393613E+03  0.15377971079E+03  0.41800000000E+01 0.  1.
         -5    1    3    3    0  502 -0.39839059906E+02 -0.34227273227E+02 -0.66612868305E+02  0.84931758198E+02  0.41800000000E+01 0.  1.
        -11    1    1    2    0    0  0.24524427170E+02 -0.48607076848E+01 -0.11352214643E+03  0.11624264165E+03  0.00000000000E+00 0.  1.
         11    1    1    2    0    0 -0.47230975073E+02  0.18784649634E+01 -0.37696341555E+02  0.60459141604E+02  0.00000000000E+00 0. -1.
</event>
<event>
 7    1  0.2820496E-009  0.1124656E+03  0.7561462E-02  0.1256071E+00
          1   -1    0    0  501    0  0.00000000000E+00  0.00000000000E+00  0.39437164165E+02  0.39437164165E+02  0.00000000000E+00 0. -1.
         -1   -1    0    0    0  501 -0.00000000000E+00 -0.00000000000E+00 -0.39645732069E+03  0.39645732069E+03  0.00000000000E+00 0.  1.
         25    2    1    2    0    0 -0.52055507142E+02 -0.42948290065E+02 -0.24254698184E+03  0.28112536211E+03  0.12509236339E+03 0.  0.
          5    1    3    3  502    0 -0.77990950533E+02 -0.57529804170E+02 -0.22792928604E+03  0.24771253212E+03  0.41800000000E+01 0. -1.
         -5    1    3    3    0  502  0.25935443391E+02  0.14581514105E+02 -0.14617695799E+02  0.33412829991E+02  0.41800000000E+01 0. -1.
        -11    1    1    2    0    0  0.63222787740E+02  0.11174514245E+02 -0.98297479744E+02  0.11740692136E+03  0.00000000000E+00 0.  1.
         11    1    1    2    0    0 -0.11167280599E+02  0.31773775820E+02 -0.16175694937E+02  0.37362201387E+02  0.00000000000E+00 0. -1.
</event>
<event>
 7    1  0.2820496E-009  0.1667843E+03  0.7561462E-02  0.1181243E+00
         -2   -1    0    0    0  501 -0.00000000000E+00  0.00000000000E+00  0.43528735266E+02  0.43528735266E+02  0.00000000000E+00 0.  1.
          2   -1    0    0  501    0  0.00000000000E+00 -0.00000000000E+00 -0.75045437081E+03  0.75045437081E+03  0.00000000000E+00 0. -1.
         25    2    1    2    0    0  0.88977379417E+02 -0.97704242480E+02 -0.50225488882E+03  0.53420977582E+03  0.12512800719E+03 0.  0.
          5    1    3    3  502    0  0.26259692165E+02 -0.10873939840E+03 -0.24845085903E+03  0.27250528426E+03  0.41800000000E+01 0.  1.
         -5    1    3    3    0  502  0.62717687252E+02  0.11035155924E+02 -0.25380402979E+03  0.26170449155E+03  0.41800000000E+01 0.  1.
        -11    1    1    2    0    0 -0.71391208112E+02  0.14607965691E+02 -0.73470873411E+02  0.10347978787E+03  0.00000000000E+00 0.  1.
         11    1    1    2    0    0 -0.17586171305E+02  0.83096276789E+02 -0.13119987331E+03  0.15629354240E+03  0.00000000000E+00 0. -1.
</event>
<event>
 7    1  0.2820496E-009  0.1166728E+03  0.7561462E-02  0.1248689E+00
          1   -1    0    0  501    0  0.00000000000E+00  0.00000000000E+00  0.26201291962E+04  0.26201291962E+04  0.00000000000E+00 0. -1.
         -1   -1    0    0    0  501 -0.00000000000E+00 -0.00000000000E+00 -0.92027578277E+01  0.92027578277E+01  0.00000000000E+00 0.  1.
         25    2    1    2    0    0  0.54267944323E+02 -0.30791846900E+02  0.21690413547E+04  0.21735416744E+04  0.12509941750E+03 0.  0.
          5    1    3    3  502    0  0.36957218036E+02 -0.69656495034E+02  0.18454504398E+04  0.18471390476E+04  0.41800000000E+01 0.  1.
         -5    1    3    3    0  502  0.17310726287E+02  0.38864648133E+02  0.32359091490E+03  0.32640262671E+03  0.41800000000E+01 0.  1.
        -11    1    1    2    0    0 -0.31500381101E+01 -0.31156408263E+02  0.13249485036E+03  0.13614525291E+03  0.00000000000E+00 0. -1.
         11    1    1    2    0    0 -0.51117906213E+02  0.61948255164E+02  0.30939023333E+03  0.31964502677E+03  0.00000000000E+00 0.  1.
</event>
<event>
 7    1  0.2820496E-009  0.8981424E+02  0.7561462E-02  0.1303302E+00
          3   -1    0    0  501    0  0.00000000000E+00  0.00000000000E+00  0.49896108878E+02  0.49896108878E+02  0.00000000000E+00 0. -1.
         -3   -1    0    0    0  501 -0.00000000000E+00 -0.00000000000E+00 -0.24813391971E+03  0.24813391971E+03  0.00000000000E+00 0.  1.
         25    2    1    2    0    0  0.29198841411E+02  0.20465036593E+02 -0.10547536958E+03  0.16746319879E+03  0.12508988488E+03 0.  0.
          5    1    3    3  502    0  0.68397704395E+02  0.29940378556E+02 -0.27684337249E+02  0.79740624298E+02  0.41800000000E+01 0. -1.
         -5    1    3    3    0  502 -0.39198862984E+02 -0.94753419626E+01 -0.77791032326E+02  0.87722574488E+02  0.41800000000E+01 0. -1.
        -11    1    1    2    0    0  0.42387912371E+01  0.14984566050E+02 -0.78157680910E+02  0.79693962482E+02  0.00000000000E+00 0.  1.
         11    1    1    2    0    0 -0.33437632649E+02 -0.35449602643E+02 -0.14604760350E+02  0.50872867322E+02  0.00000000000E+00 0. -1.
</event>
<event>
 7    1  0.2820496E-009  0.8474941E+02  0.7561462E-02  0.1316089E+00
         -3   -1    0    0    0  501 -0.00000000000E+00  0.00000000000E+00  0.85485694368E+02  0.85485694368E+02  0.00000000000E+00 0.  1.
          3   -1    0    0  501    0  0.00000000000E+00 -0.00000000000E+00 -0.17566822129E+03  0.17566822129E+03  0.00000000000E+00 0. -1.
         25    2    1    2    0    0  0.20828187366E+02 -0.25737586785E+02 -0.98669938804E+02  0.16272515306E+03  0.12508989509E+03 0.  0.
          5    1    3    3  502    0 -0.22139691230E+02  0.33452924308E+02 -0.63196950564E+00  0.40337772100E+02  0.41800000000E+01 0. -1.
         -5    1    3    3    0  502  0.42967878596E+02 -0.59190511094E+02 -0.98037969298E+02  0.12238738096E+03  0.41800000000E+01 0. -1.
        -11    1    1    2    0    0 -0.28979716156E+01  0.35412392511E+02  0.44565271011E+02  0.56995606525E+02  0.00000000000E+00 0.  1.
         11    1    1    2    0    0 -0.17930215751E+02 -0.96748057259E+01 -0.36077859132E+02  0.41433156074E+02  0.00000000000E+00 0. -1.
</event>
<event>
 7    1  0.2820496E-009  0.2447731E+03  0.7561462E-02  0.1116653E+00
          2   -1    0    0  501    0  0.00000000000E+00  0.00000000000E+00  0.13324441124E+04  0.13324441124E+04  0.00000000000E+00 0. -1.
         -2   -1    0    0    0  501 -0.00000000000E+00 -0.00000000000E+00 -0.49018798589E+02  0.49018798589E+02  0.00000000000E+00 0.  1.
         25    2    1    2    0    0 -0.19424514234E+03  0.12381960494E+03  0.71132865929E+03  0.75808928474E+03  0.12509369380E+03 0.  0.
          5    1    3    3  502    0 -0.13944094624E+03  0.14387123523E+03  0.59563262989E+03  0.62844125582E+03  0.41800000000E+01 0. -1.
         -5    1    3    3    0  502 -0.54804196096E+02 -0.20051630293E+02  0.11569602939E+03  0.12964802893E+03  0.41800000000E+01 0. -1.
        -11    1    1    2    0    0  0.54623340249E+02 -0.41040367248E+02  0.28974193815E+03  0.29768844748E+03  0.00000000000E+00 0. -1.
         11    1    1    2    0    0  0.13962180209E+03 -0.82779237693E+02  0.28235471642E+03  0.32568517881E+03  0.00000000000E+00 0.  1.
</event>
<event>
 7    1  0.2820496E-009  0.6353254E+02  0.7561462E-02  0.1383578E+00
          2   -1    0    0  501    0  0.00000000000E+00  0.00000000000E+00  0.24410419317E+03  0.24410419317E+03  0.00000000000E+00 0. -1.
         -2   -1    0    0    0  501 -0.00000000000E+00 -0.00000000000E+00 -0.87336296348E+02  0.87336296348E+02  0.00000000000E+00 0.  1.
         25    2    1    2    0    0 -0.15541588327E+02 -0.17162644461E+02 -0.22222827007E+02  0.12915923352E+03  0.12510857776E+03 0.  0.
          5    1    3    3  502    0 -0.13534020356E+02 -0.27361225851E+02  0.48552191176E+02  0.57502991706E+02  0.41800000000E+01 0.  1.
         -5    1    3    3    0  502 -0.20075679704E+01  0.10198581390E+02 -0.70775018183E+02  0.71656241810E+02  0.41800000000E+01 0.  1.
        -11    1    1    2    0    0 -0.22047544275E+02  0.36604893606E+02  0.46300934864E+02  0.63006261703E+02  0.00000000000E+00 0.  1.
         11    1    1    2    0    0  0.37589132602E+02 -0.19442249145E+02  0.13268978897E+03  0.13927499430E+03  0.00000000000E+00 0. -1.
</event>
<event>
 7    1  0.2820496E-009  0.1899144E+03  0.7561462E-02  0.1158539E+00
          1   -1    0    0  501    0  0.00000000000E+00  0.00000000000E+00  0.84273440961E+03  0.84273440961E+03  0.00000000000E+00 0. -1.
         -1   -1    0    0    0  501 -0.00000000000E+00 -0.00000000000E+00 -0.53714025106E+02  0.53714025106E+02  0.00000000000E+00 0.  1.
         25    2    1    2    0    0  0.16981931706E+03  0.44124424231E+02  0.51420898078E+03  0.55753172531E+03  0.12508070815E+03 0.  0.
          5    1    3    3  502    0  0.12208106032E+03  0.78671648297E+02  0.43564383507E+03  0.45923418532E+03  0.41800000000E+01 0.  1.
         -5    1    3    3    0  502  0.47738256736E+02 -0.34547224066E+02  0.78565145716E+02  0.98297539991E+02  0.41800000000E+01 0.  1.
        -11    1    1    2    0    0 -0.11976564576E+03 -0.31346793065E+02  0.10799397549E+03  0.16428368782E+03  0.00000000000E+00 0.  1.
         11    1    1    2    0    0 -0.50053671295E+02 -0.12777631166E+02  0.16681742823E+03  0.17463302159E+03  0.00000000000E+00 0. -1.
</event>
<event>
 7    1  0.2820496E-009  0.1073250E+03  0.7561462E-02  0.1265605E+00
         -2   -1    0    0    0  501 -0.00000000000E+00  0.00000000000E+00  0.10230805142E+03  0.10230805142E+03  0.00000000000E+00 0.  1.
          2   -1    0    0  501    0  0.00000000000E+00 -0.00000000000E+00 -0.14778617138E+03  0.14778617138E+03  0.00000000000E+00 0. -1.
         25    2    1    2    0    0  0.16734111514E+02  0.44433712033E+02  0.16706743866E+02  0.13482535053E+03  0.12507747440E+03 0.  0.
          5    1    3    3  502    0 -0.45139689051E+02 -0.14766067070E+02  0.10815468818E+02  0.48888393613E+02  0.41800000000E+01 0. -1.
         -5    1    3    3    0  502  0.61873800565E+02  0.59199779103E+02  0.58912750485E+01  0.85936956915E+02  0.41800000000E+01 0. -1.
        -11    1    1    2    0    0 -0.28758244929E+02  0.60114145831E+01  0.56135507221E+01  0.29911297338E+02  0.00000000000E+00 0.  1.
         11    1    1    2    0    0  0.12024133416E+02 -0.50445126616E+02 -0.67798414545E+02  0.85357574933E+02  0.00000000000E+00 0. -1.
</event>
<event>
 7    1  0.2820496E-009  0.4985462E+02  0.7561462E-02  0.1446127E+00
          1   -1    0    0  501    0  0.00000000000E+00  0.00000000000E+00  0.12829517699E+04  0.12829517699E+04  0.00000000000E+00 0. -1.
         -1   -1    0    0    0  501 -0.00000000000E+00 -0.00000000000E+00 -0.19184183087E+02  0.19184183087E+02  0.00000000000E+00 0.  1.
         25    2    1    2    0    0 -0.14185204036E+01 -0.19458215052E+02  0.11378666608E+04  0.11448879102E+04  0.12508858820E+03 0.  0.
          5    1    3    3  502    0 -0.38821826518E+01  0.54595438386E+00 -0.10152354096E+01  0.58200095591E+01  0.41800000000E+01 0. -1.
         -5    1    3    3    0  502  0.24636622482E+01 -0.20004169436E+02  0.11388818962E+04  0.11390679006E+04  0.41800000000E+01 0. -1.
        -11    1    1    2    0    0  0.11319948524E+02 -0.25213686042E+02  0.10189529145E+03  0.10557708851E+03  0.00000000000E+00 0. -1.
         11    1    1    2    0    0 -0.99014281199E+01  0.44671901094E+02  0.24005634639E+02  0.51670954323E+02  0.00000000000E+00 0.  1.
</event>
<event>
 7    1  0.2820496E-009  0.1349788E+03  0.7561462E-02  0.1220250E+00
          1   -1    0    0  501    0  0.00000000000E+00  0.00000000000E+00  0.10372517321E+04  0.10372517321E+04  0.00000000000E+00 0. -1.
         -1   -1    0    0    0  501 -0.00000000000E+00 -0.00000000000E+00 -0.21841879122E+02  0.21841879122E+02  0.00000000000E+00 0.  1.
         25    2    1    2    0    0 -0.94831884937E+02  0.41182867895E+02  0.52345827026E+03  0.54803778940E+03  0.12509093853E+03 0.  0.
          5    1    3    3  502    0 -0.86518012081E+02  0.81687946927E+02  0.35105039753E+03  0.37069143650E+03  0.41800000000E+01 0. -1.
         -5    1    3    3    0  502 -0.83138728558E+01 -0.40505079031E+02  0.17240787273E+03  0.17734635291E+03  0.41800000000E+01 0. -1.
        -11    1    1    2    0    0  0.76294193806E+01 -0.17321495033E+02  0.11446220657E+02  0.22119181667E+02  0.00000000000E+00 0.  1.
         11    1    1    2    0    0  0.87202465557E+02 -0.23861372862E+02  0.48050536210E+03  0.48893664019E+03  0.00000000000E+00 0. -1.
</event>
<event>
 7    1  0.2820496E-009  0.7717051E+02  0.7561462E-02  0.1337278E+00
          1   -1    0    0  501    0  0.00000000000E+00  0.00000000000E+00  0.16483426289E+03  0.16483426289E+03  0.00000000000E+00 0. -1.
         -1   -1    0    0    0  501 -0.00000000000E+00 -0.00000000000E+00 -0.76440553551E+02  0.76440553551E+02  0.00000000000E+00 0.  1.
         25    2    1    2    0    0  0.20392533015E+01  0.10389547646E+02  0.24546752000E+02  0.12790367236E+03  0.12507879562E+03 0.  0.
          5    1    3    3  502    0  0.47335139677E+02  0.41600428422E+02 -0.83001341248E+01  0.63699102974E+02  0.41800000000E+01 0.  1.
         -5    1    3    3    0  502 -0.45295886375E+02 -0.31210880777E+02  0.32846886125E+02  0.64204569382E+02  0.41800000000E+01 0.  1.
        -11    1    1    2    0    0 -0.16711722105E+02  0.19791853619E+01 -0.20697805218E+02  0.26675793733E+02  0.00000000000E+00 0.  1.
         11    1    1    2    0    0  0.14672468804E+02 -0.12368733008E+02  0.84544762557E+02  0.86695350353E+02  0.00000000000E+00 0. -1.
</event>
<event>
 7    1  0.2820496E-009  0.1022291E+03  0.7561462E-02  0.1275677E+00
         -1   -1    0    0    0  501 -0.00000000000E+00  0.00000000000E+00  0.31202040882E+02  0.31202040882E+02  0.00000000000E+00 0.  1.
          1   -1    0    0  501    0  0.00000000000E+00 -0.00000000000E+00 -0.41261557530E+03  0.41261557530E+03  0.00000000000E+00 0. -1.
         25    2    1    2    0    0 -0.19864966894E+02  0.23871725725E+01 -0.27450450676E+03  0.30232341534E+03  0.12508560160E+03 0.  0.
          5    1    3    3  502    0 -0.14675077352E+01 -0.53286887781E+02 -0.62166534109E+02  0.81998758232E+02  0.41800000000E+01 0.  1.
         -5    1    3    3    0  502 -0.18397459159E+02  0.55674060354E+02 -0.21233797265E+03  0.22032465711E+03  0.41800000000E+01 0.  1.
        -11    1    1    2    0    0  0.54263574530E+02  0.10864991212E+02 -0.71133289897E+02  0.90125071352E+02  0.00000000000E+00 0.  1.
         11    1    1    2    0    0 -0.34398607635E+02 -0.13252163784E+02 -0.35775737760E+02  0.51369129489E+02  0.00000000000E+00 0. -1.
</event>
<event>
 7    1  0.2820496E-009  0.7932431E+02  0.7561462E-02  0.1330980E+00
         -2   -1    0    0    0  501 -0.00000000000E+00  0.00000000000E+00  0.16393224827E+02  0.16393224827E+02  0.00000000000E+00 0. -1.
          2   -1    0    0  501    0  0.00000000000E+00 -0.00000000000E+00 -0.95748058268E+03  0.95748058268E+03  0.00000000000E+00 0.  1.
         25    2    1    2    0    0 -0.14176171875E+02 -0.45804242233E+02 -0.66359794201E+03  0.67698692295E+03  0.12510025081E+03 0.  0.
          5    1    3    3  502    0 -0.31575905689E+02 -0.42596327688E+02 -0.65449976960E+03  0.65665737319E+03  0.41800000000E+01 0. -1.
         -5    1    3    3    0  502  0.17399733814E+02 -0.32079145453E+01 -0.90981724112E+01  0.20329549768E+02  0.41800000000E+01 0. -1.
        -11    1    1    2    0    0  0.22255524027E+02  0.63791443040E+02 -0.26515798756E+03  0.27363006947E+03  0.00000000000E+00 0.  1.
         11    1    1    2    0    0 -0.80793521517E+01 -0.17987200807E+02 -0.12331428281E+02  0.23256815077E+02  0.00000000000E+00 0. -1.
</event>
<event>
 7    1  0.3136229E-009  0.1399845E+03  0.7561462E-02  0.1213350E+00
         -1   -1    0    0    0  501 -0.00000000000E+00  0.00000000000E+00  0.27348970423E+02  0.27348970423E+02  0.00000000000E+00 0.  1.
          1   -1    0    0  501    0  0.00000000000E+00 -0.00000000000E+00 -0.11057810461E+04  0.11057810461E+04  0.00000000000E+00 0. -1.
         25    2    1    2    0    0  0.13183712283E+03  0.20640234405E+02 -0.50201546521E+03  0.53429802669E+03  0.12509119787E+03 0.  0.
          5    1    3    3  502    0  0.19646455515E+02  0.13868259485E+02 -0.31587160491E+03  0.31681328101E+03  0.41800000000E+01 0.  1.
         -5    1    3    3    0  502  0.11219066732E+03  0.67719749204E+01 -0.18614386030E+03  0.21748474568E+03  0.41800000000E+01 0.  1.
        -11    1    1    2    0    0 -0.48364562324E+02  0.17342414189E+02 -0.88178372043E+02  0.10205545314E+03  0.00000000000E+00 0.  1.
         11    1    1    2    0    0 -0.83472560506E+02 -0.37982648595E+02 -0.48823823847E+03  0.49677653674E+03  0.00000000000E+00 0. -1.
</event>
<event>
 7    1  0.2820496E-009  0.1935066E+03  0.7561462E-02  0.1155336E+00
         -1   -1    0    0    0  501 -0.00000000000E+00  0.00000000000E+00  0.42987336226E+03  0.42987336226E+03  0.00000000000E+00 0.  1.
          1   -1    0    0  501    0  0.00000000000E+00 -0.00000000000E+00 -0.10230823432E+03  0.10230823432E+03  0.00000000000E+00 0. -1.
         25    2    1    2    0    0 -0.94829170523E+02  0.14490871054E+03  0.23550770628E+03  0.31796571918E+03  0.12508881998E+03 0.  0.
          5    1    3    3  502    0  0.15838544831E+02  0.57643933532E+02  0.25750267971E+02  0.65224468384E+02  0.41800000000E+01 0.  1.
         -5    1    3    3    0  502 -0.11066771535E+03  0.87264777005E+02  0.20975743831E+03  0.25274125080E+03  0.41800000000E+01 0.  1.
        -11    1    1    2    0    0  0.51000747496E+02 -0.13024471206E+03  0.93035258130E+02  0.16798904881E+03  0.00000000000E+00 0.  1.
         11    1    1    2    0    0  0.43828423027E+02 -0.14663998475E+02 -0.97783647362E+00  0.46226828579E+02  0.00000000000E+00 0. -1.
</event>
<event>
 7    1  0.2820496E-009  0.1560961E+03  0.7561462E-02  0.1193176E+00
         -2   -1    0    0    0  501 -0.00000000000E+00  0.00000000000E+00  0.46422143352E+02  0.46422143352E+02  0.00000000000E+00 0.  1.
          2   -1    0    0  501    0  0.00000000000E+00 -0.00000000000E+00 -0.89512344254E+03  0.89512344254E+03  0.00000000000E+00 0. -1.
         25    2    1    2    0    0  0.20078083446E+02 -0.14206775115E+03 -0.66314919861E+03  0.68992837077E+03  0.12509165369E+03 0.  0.
          5    1    3    3  502    0  0.26767923500E+02 -0.15291334485E+03 -0.65712646002E+03  0.67522712447E+03  0.41800000000E+01 0. -1.
         -5    1    3    3    0  502 -0.66898400539E+01  0.10845593699E+02 -0.60227385908E+01  0.14701246300E+02  0.41800000000E+01 0. -1.
        -11    1    1    2    0    0 -0.14365084205E+02  0.96945063557E+02 -0.18109959360E+03  0.20591688565E+03  0.00000000000E+00 0. -1.
         11    1    1    2    0    0 -0.57129992414E+01  0.45122687591E+02 -0.44525069756E+01  0.45700329476E+02  0.00000000000E+00 0.  1.
</event>
<event>
 7    1  0.2820496E-009  0.9659247E+02  0.7561462E-02  0.1287629E+00
          1   -1    0    0  501    0  0.00000000000E+00  0.00000000000E+00  0.48098421427E+03  0.48098421427E+03  0.00000000000E+00 0. -1.
         -1   -1    0    0    0  501 -0.00000000000E+00 -0.00000000000E+00 -0.29477260587E+02  0.29477260587E+02  0.00000000000E+00 0.  1.
         25    2    1    2    0    0  0.13731648968E+02  0.40805634223E+02  0.19622813683E+03  0.23665776008E+03  0.12509098990E+03 0.  0.
          5    1    3    3  502    0 -0.41630549821E+02  0.32100342868E+02  0.28879671353E+02  0.60125223559E+02  0.41800000000E+01 0.  1.
         -5    1    3    3    0  502  0.55362198788E+02  0.87052913553E+01  0.16734846548E+03  0.17653253652E+03  0.41800000000E+01 0.  1.
        -11    1    1    2    0    0 -0.36142113816E+02  0.17192005483E+01  0.18597088256E+03  0.18945811464E+03  0.00000000000E+00 0. -1.
         11    1    1    2    0    0  0.22410464848E+02 -0.42524834772E+02  0.69307934285E+02  0.84345600134E+02  0.00000000000E+00 0.  1.
</event>
<event>
 7    1  0.2820496E-009  0.7210501E+02  0.7561462E-02  0.1353078E+00
          2   -1    0    0  501    0  0.00000000000E+00  0.00000000000E+00  0.94678443301E+02  0.94678443301E+02  0.00000000000E+00 0. -1.
         -2   -1    0    0    0  501 -0.00000000000E+00 -0.00000000000E+00 -0.14843757919E+03  0.14843757919E+03  0.00000000000E+00 0.  1.
         25    2    1    2    0    0 -0.43327956592E+01 -0.15949849592E+02 -0.82505822646E+02  0.15075925043E+03  0.12509184626E+03 0.  0.
          5    1    3    3  502    0  0.41681727230E+02  0.12593390808E+02 -0.85844887071E+02  0.96347168682E+02  0.41800000000E+01 0.  1.
         -5    1    3    3    0  502 -0.46014522889E+02 -0.28543240400E+02  0.33390644254E+01  0.54412081751E+02  0.41800000000E+01 0.  1.
        -11    1    1    2    0    0  0.46286596100E+00  0.30804113754E+02 -0.22958366186E+02  0.38421273365E+02  0.00000000000E+00 0.  1.
         11    1    1    2    0    0  0.38699296982E+01 -0.14854264162E+02  0.51705052941E+02  0.53935498694E+02  0.00000000000E+00 0. -1.
</event>
<event>
 7    1  0.2820496E-009  0.1236270E+03  0.7561462E-02  0.1237231E+00
         -1   -1    0    0    0  501 -0.00000000000E+00  0.00000000000E+00  0.15400514085E+03  0.15400514085E+03  0.00000000000E+00 0. -1.
          1   -1    0    0  501    0  0.00000000000E+00 -0.00000000000E+00 -0.13684267584E+03  0.13684267584E+03  0.00000000000E+00 0.  1.
         25    2    1    2    0    0 -0.62269578113E+02  0.16374486217E+02 -0.53860717694E+02  0.15064251858E+03  0.12508623959E+03 0.  0.
          5    1    3    3  502    0 -0.33391043922E+02  0.69572784334E+02 -0.15397142467E+02  0.78802782504E+02  0.41800000000E+01 0.  1.
         -5    1    3    3    0  502 -0.28878534191E+02 -0.53198298118E+02 -0.38463575227E+02  0.71839736072E+02  0.41800000000E+01 0.  1.
        -11    1    1    2    0    0  0.40047958740E+02 -0.53015690371E+02  0.12399091984E+02  0.67588755772E+02  0.00000000000E+00 0.  1.
         11    1    1    2    0    0  0.22221619374E+02  0.36641204155E+02  0.58624090715E+02  0.72616542341E+02  0.00000000000E+00 0. -1.
</event>
<event>
 7    1  0.2820496E-009  0.1018209E+03  0.7561462E-02  0.1276513E+00
          1   -1    0    0  501    0  0.00000000000E+00  0.00000000000E+00  0.57116291049E+02  0.57116291049E+02  0.00000000000E+00 0. -1.
         -1   -1    0    0    0  501 -0.00000000000E+00 -0.00000000000E+00 -0.36752488831E+03  0.36752488831E+03  0.00000000000E+00 0.  1.
         25    2    1    2    0    0  0.12505271492E+02  0.42449131099E+02 -0.29971392422E+03  0.32777199649E+03  0.12509090601E+03 0.  0.
          5    1    3    3  502    0 -0.55336445139E+02  0.27516789770E+02 -0.16283209218E+03  0.17421555190E+03  0.41800000000E+01 0. -1.
         -5    1    3    3    0  502  0.67841716631E+02  0.14932341329E+02 -0.13688183205E+03  0.15355644460E+03  0.41800000000E+01 0. -1.
        -11    1    1    2    0    0  0.79614202186E+01 -0.49746992367E+02  0.24099566737E+02  0.55847440214E+02  0.00000000000E+00 0. -1.
         11    1    1    2    0    0 -0.20466691710E+02  0.72978612689E+01 -0.34794239772E+02  0.41021742649E+02  0.00000000000E+00 0.  1.
</event>
<event>
 7    1  0.2820496E-009  0.1068896E+03  0.7561462E-02  0.1266441E+00
          1   -1    0    0  501    0  0.00000000000E+00  0.00000000000E+00  0.36539780970E+03  0.36539780970E+03  0.00000000000E+00 0. -1.
         -1   -1    0    0    0  501 -0.00000000000E+00 -0.00000000000E+00 -0.39011952839E+02  0.39011952839E+02  0.00000000000E+00 0.  1.
         25    2    1    2    0    0 -0.85875784411E+01  0.48821467346E+02  0.18842192161E+03  0.23153294034E+03  0.12508956688E+03 0.  0.
          5    1    3    3  502    0  0.45012025027E+02  0.16189197465E+02  0.20481275112E+02  0.52202754160E+02  0.41800000000E+01 0. -1.
         -5    1    3    3    0  502 -0.53599603468E+02  0.32632269880E+02  0.16794064649E+03  0.17933018618E+03  0.41800000000E+01 0. -1.
        -11    1    1    2    0    0 -0.36912856445E+02 -0.10921373391E+01  0.36919302950E+02  0.52218642889E+02  0.00000000000E+00 0.  1.
         11    1    1    2    0    0  0.45500434886E+02 -0.47729330007E+02  0.10104463231E+03  0.12065817931E+03  0.00000000000E+00 0. -1.
</event>
<event>
 6    1  0.2820496E-009  0.1010431E+03  0.7561462E-02  0.1278118E+00
          1   -1    0    0  501    0  0.00000000000E+00  0.00000000000E+00  0.75136791653E+02  0.75136791653E+02  0.00000000000E+00 0. -1.
         -1   -1    0    0    0  501 -0.00000000000E+00 -0.00000000000E+00 -0.33846479752E+03  0.33846479752E+03  0.00000000000E+00 0.  1.
          5    1    1    2  502    0 -0.68942579958E+02 -0.56830566639E+02 -0.15301293034E+03  0.17723775525E+03  0.41800000000E+01 0.  1.
         -5    1    1    2    0  502  0.36772790087E+02  0.38556857291E+02 -0.12748207671E+03  0.13823176775E+03  0.41800000000E+01 0.  1.
        -11    1    1    2    0    0  0.36040599673E+02 -0.42980057271E+01 -0.29091066046E+02  0.46515457664E+02  0.00000000000E+00 0.  1.
         11    1    1    2    0    0 -0.38708098017E+01  0.22571715074E+02  0.46258067225E+02  0.51616608503E+02  0.00000000000E+00 0. -1.
</event>
<event>
 7    1  0.2820496E-009  0.9959778E+02  0.7561462E-02  0.1281144E+00
         -2   -1    0    0    0  501 -0.00000000000E+00  0.00000000000E+00  0.79723834407E+02  0.79723834407E+02  0.00000000000E+00 0.  1.
          2   -1    0    0  501    0  0.00000000000E+00 -0.00000000000E+00 -0.22618619901E+03  0.22618619901E+03  0.00000000000E+00 0. -1.
         25    2    1    2    0    0 -0.25366635499E+02  0.43384313878E+02 -0.11764989285E+02  0.13532045702E+03  0.12509015240E+03 0.  0.
          5    1    3    3  502    0 -0.16872191848E+02  0.87055671818E+02  0.12332605301E+01  0.88782623215E+02  0.41800000000E+01 0. -1.
         -5    1    3    3    0  502 -0.84944436510E+01 -0.43671357940E+02 -0.12998249815E+02  0.46537833807E+02  0.41800000000E+01 0. -1.
        -11    1    1    2    0    0 -0.89549741589E+01 -0.25515324794E+02 -0.12860635964E+03  0.13141848843E+03  0.00000000000E+00 0. -1.
         11    1    1    2    0    0  0.34321609658E+02 -0.17868989085E+02 -0.60910156791E+01  0.39171087965E+02  0.00000000000E+00 0.  1.
</event>
<event>
 7    1  0.2820496E-009  0.9336460E+02  0.7561462E-02  0.1294902E+00
         -1   -1    0    0    0  501 -0.00000000000E+00  0.00000000000E+00  0.75888234733E+02  0.75888234733E+02  0.00000000000E+00 0.  1.
          1   -1    0    0  501    0  0.00000000000E+00 -0.00000000000E+00 -0.17271488104E+03  0.17271488104E+03  0.00000000000E+00 0. -1.
         25    2    1    2    0    0 -0.22482409465E+02 -0.14675542425E+02 -0.48712630333E+02  0.13691297330E+03  0.12510560189E+03 0.  0.
          5    1    3    3  502    0 -0.22108939712E+02  0.38258690301E+02  0.21145549992E+02  0.49164410738E+02  0.41800000000E+01 0. -1.
         -5    1    3    3    0  502 -0.37346975313E+00 -0.52934232726E+02 -0.69858180325E+02  0.87748562565E+02  0.41800000000E+01 0. -1.
        -11    1    1    2    0    0  0.52416601553E+01 -0.35657235981E+02  0.51494816958E+01  0.36406464272E+02  0.00000000000E+00 0.  1.
         11    1    1    2    0    0  0.17240749310E+02  0.50332778407E+02 -0.53263497666E+02  0.75283678195E+02  0.00000000000E+00 0. -1.
</event>
<event>
 7    1  0.2820496E-009  0.9747372E+02  0.7561462E-02  0.1285700E+00
          1   -1    0    0  501    0  0.00000000000E+00  0.00000000000E+00  0.21577900012E+02  0.21577900012E+02  0.00000000000E+00 0. -1.
         -1   -1    0    0    0  501 -0.00000000000E+00 -0.00000000000E+00 -0.69867911641E+03  0.69867911641E+03  0.00000000000E+00 0.  1.
         25    2    1    2    0    0  0.42663446696E+02  0.39277702151E+02 -0.37180863588E+03  0.39655030860E+03  0.12509027928E+03 0.  0.
          5    1    3    3  502    0 -0.15274752636E+02  0.63765271195E+02 -0.11829334502E+03  0.13531487633E+03  0.41800000000E+01 0. -1.
         -5    1    3    3    0  502  0.57938199331E+02 -0.24487569044E+02 -0.25351529085E+03  0.26123543227E+03  0.41800000000E+01 0. -1.
        -11    1    1    2    0    0 -0.34066335631E+02 -0.44579255806E+02 -0.30814521236E+03  0.31321126603E+03  0.00000000000E+00 0.  1.
         11    1    1    2    0    0 -0.85971110651E+01  0.53015536546E+01  0.28526318386E+01  0.10495441783E+02  0.00000000000E+00 0. -1.
</event>
<event>
 7    1  0.2820496E-009  0.1124459E+03  0.7561462E-02  0.1256106E+00
         -2   -1    0    0    0  501 -0.00000000000E+00  0.00000000000E+00  0.10866861328E+03  0.10866861328E+03  0.00000000000E+00 0.  1.
          2   -1    0    0  501    0  0.00000000000E+00 -0.00000000000E+00 -0.18578200524E+03  0.18578200524E+03  0.00000000000E+00 0. -1.
         25    2    1    2    0    0  0.43038076435E+02 -0.82381938387E+02 -0.33961052473E+02  0.15949800424E+03  0.12508877039E+03 0.  0.
          5    1    3    3  502    0 -0.63277018888E+01 -0.74334337163E+02 -0.66213878250E+02  0.99836784631E+02  0.41800000000E+01 0.  1.
         -5    1    3    3    0  502  0.49365778324E+02 -0.80476012242E+01  0.32252825777E+02  0.59661219612E+02  0.41800000000E+01 0.  1.
        -11    1    1    2    0    0 -0.21318398818E+02  0.73474225949E+02  0.97041660395E+01  0.77117487287E+02  0.00000000000E+00 0.  1.
         11    1    1    2    0    0 -0.21719677617E+02  0.89077124381E+01 -0.52856505534E+02  0.57835126989E+02  0.00000000000E+00 0. -1.
</event>
<event>
 7    1  0.2820496E-009  0.1088048E+03  0.7561462E-02  0.1262799E+00
          2   -1    0    0  501    0  0.00000000000E+00  0.00000000000E+00  0.39749127060E+03  0.39749127060E+03  0.00000000000E+00 0.  1.
         -2   -1    0    0    0  501 -0.00000000000E+00 -0.00000000000E+00 -0.41869881773E+02  0.41869881773E+02  0.00000000000E+00 0. -1.
         25    2    1    2    0    0 -0.65865507342E+02  0.69258063100E+01  0.16524735415E+03  0.21757996993E+03  0.12509245945E+03 0.  0.
          5    1    3    3  502    0 -0.36714509949E+02 -0.38787281706E+02  0.11900470358E+02  0.54877154242E+02  0.41800000000E+01 0. -1.
         -5    1    3    3    0  502 -0.29150997392E+02  0.45713088016E+02  0.15334688379E+03  0.16270281569E+03  0.41800000000E+01 0. -1.
        -11    1    1    2    0    0  0.56281688663E+02  0.35250169743E+02  0.14279237197E+03  0.15747972708E+03  0.00000000000E+00 0. -1.
         11    1    1    2    0    0  0.95838186785E+01 -0.42175976053E+02  0.47581662706E+02  0.64301455367E+02  0.00000000000E+00 0.  1.
</event>
<event>
 7    1  0.2820496E-009  0.1447538E+03  0.7561462E-02  0.1207072E+00
         -1   -1    0    0    0  501 -0.00000000000E+00  0.00000000000E+00  0.19703805380E+03  0.19703805380E+03  0.00000000000E+00 0.  1.
          1   -1    0    0  501    0  0.00000000000E+00 -0.00000000000E+00 -0.15849918349E+03  0.15849918349E+03  0.00000000000E+00 0. -1.
         25    2    1    2    0    0 -0.10285895081E+03 -0.26534265671E+02  0.11076280803E+03  0.19799006380E+03  0.12509050606E+03 0.  0.
          5    1    3    3  502    0 -0.65234724349E+02  0.37930366059E+02  0.15934633730E+02  0.77237729655E+02  0.41800000000E+01 0.  1.
         -5    1    3    3    0  502 -0.37624226463E+02 -0.64464631730E+02  0.94828174302E+02  0.12075233415E+03  0.41800000000E+01 0.  1.
        -11    1    1    2    0    0  0.94803852938E+02 -0.15772341122E+02 -0.41718230940E+02  0.10477093141E+03  0.00000000000E+00 0. -1.
         11    1    1    2    0    0  0.80550978736E+01  0.42306606793E+02 -0.30505706785E+02  0.52776242065E+02  0.00000000000E+00 0.  1.
</event>
<event>
 7    1  0.2820496E-009  0.2026947E+03  0.7561462E-02  0.1147485E+00
         -2   -1    0    0    0  501 -0.00000000000E+00  0.00000000000E+00  0.69011674506E+02  0.69011674506E+02  0.00000000000E+00 0.  1.
          2   -1    0    0  501    0  0.00000000000E+00 -0.00000000000E+00 -0.66587569317E+03  0.66587569317E+03  0.00000000000E+00 0. -1.
         25    2    1    2    0    0 -0.16717756454E+03 -0.77793274410E+02 -0.31009258641E+03  0.38184393111E+03  0.12508894416E+03 0.  0.
          5    1    3    3  502    0 -0.17550075909E+03 -0.78023660088E+02 -0.31670747362E+03  0.37041774286E+03  0.41800000000E+01 0.  1.
         -5    1    3    3    0  502  0.83231945473E+01  0.23038567878E+00  0.66148872184E+01  0.11426188251E+02  0.41800000000E+01 0.  1.
        -11    1    1    2    0    0  0.89889956327E+02 -0.58499559280E+01 -0.15105854890E+03  0.17587811526E+03  0.00000000000E+00 0.  1.
         11    1    1    2    0    0  0.77287608211E+02  0.83643230338E+02 -0.13571288337E+03  0.17716532131E+03  0.00000000000E+00 0. -1.
</event>
<event>
 7    1  0.2820496E-009  0.1187061E+03  0.7561462E-02  0.1245247E+00
          2   -1    0    0  501    0  0.00000000000E+00  0.00000000000E+00  0.96007572048E+03  0.96007572048E+03  0.00000000000E+00 0. -1.
         -2   -1    0    0    0  501 -0.00000000000E+00 -0.00000000000E+00 -0.70317204395E+02  0.70317204395E+02  0.00000000000E+00 0.  1.
         25    2    1    2    0    0 -0.53195265891E+02 -0.66225126609E+02  0.89715039038E+03  0.90980347358E+03  0.12509210150E+03 0.  0.
          5    1    3    3  502    0 -0.57443984507E+02  0.22786125985E+02  0.35542373368E+03  0.36078043427E+03  0.41800000000E+01 0. -1.
         -5    1    3    3    0  502  0.42487186168E+01 -0.89011252594E+02  0.54172665671E+03  0.54902303930E+03  0.41800000000E+01 0. -1.
        -11    1    1    2    0    0  0.36560558611E+02  0.33666664044E+02 -0.45783180574E+02  0.67573799192E+02  0.00000000000E+00 0.  1.
         11    1    1    2    0    0  0.16634707280E+02  0.32558462565E+02  0.38391306275E+02  0.53015652108E+02  0.00000000000E+00 0. -1.
</event>
<event>
 7    1  0.2820496E-009  0.1408580E+03  0.7561462E-02  0.1212179E+00
         -2   -1    0    0    0  501 -0.00000000000E+00  0.00000000000E+00  0.57996743353E+02  0.57996743353E+02  0.00000000000E+00 0.  1.
          2   -1    0    0  501    0  0.00000000000E+00 -0.00000000000E+00 -0.40453792501E+03  0.40453792501E+03  0.00000000000E+00 0. -1.
         25    2    1    2    0    0  0.99287438230E+02  0.38542246727E+02 -0.18485328822E+03  0.24731027133E+03  0.12509249363E+03 0.  0.
          5    1    3    3  502    0  0.53223219494E+02 -0.43217370403E+02 -0.60999881203E+02  0.91863540671E+02  0.41800000000E+01 0. -1.
         -5    1    3    3    0  502  0.46064218736E+02  0.81759617130E+02 -0.12385340702E+03  0.15544673066E+03  0.41800000000E+01 0. -1.
        -11    1    1    2    0    0 -0.87965467782E+02 -0.10178263877E+02 -0.16206748130E+03  0.18468185908E+03  0.00000000000E+00 0. -1.
         11    1    1    2    0    0 -0.11321970448E+02 -0.28363982850E+02  0.37958786763E+00  0.30542537957E+02  0.00000000000E+00 0.  1.
</event>
<event>
 7    1  0.2820496E-009  0.2475296E+03  0.7561462E-02  0.1114876E+00
         -2   -1    0    0    0  501 -0.00000000000E+00  0.00000000000E+00  0.38312514215E+03  0.38312514215E+03  0.00000000000E+00 0.  1.
          2   -1    0    0  501    0  0.00000000000E+00 -0.00000000000E+00 -0.20458836501E+03  0.20458836501E+03  0.00000000000E+00 0. -1.
         25    2    1    2    0    0 -0.12511260921E+03 -0.20764757182E+03  0.18323979910E+03  0.32862530339E+03  0.12508831676E+03 0.  0.
          5    1    3    3  502    0 -0.12570861777E+03 -0.19542622346E+03  0.20058227695E+03  0.30699313937E+03  0.41800000000E+01 0.  1.
         -5    1    3    3    0  502  0.59600855705E+00 -0.12221348360E+02 -0.17342477852E+02  0.21632164015E+02  0.41800000000E+01 0.  1.
        -11    1    1    2    0    0  0.66798589631E+02  0.16339298625E+03 -0.34834729471E+02  0.17992436719E+03  0.00000000000E+00 0.  1.
         11    1    1    2    0    0  0.58314019580E+02  0.44254585565E+02  0.30131707518E+02  0.79163836573E+02  0.00000000000E+00 0. -1.
</event>
<event>
 7    1  0.2820496E-009  0.7932746E+02  0.7561462E-02  0.1330971E+00
          1   -1    0    0  501    0  0.00000000000E+00  0.00000000000E+00  0.29564182536E+03  0.29564182536E+03  0.00000000000E+00 0. -1.
         -1   -1    0    0    0  501 -0.00000000000E+00 -0.00000000000E+00 -0.50140883250E+02  0.50140883250E+02  0.00000000000E+00 0.  1.
         25    2    1    2    0    0 -0.97879858129E+01 -0.49761448797E+01  0.21542549767E+03  0.24935274715E+03  0.12509228906E+03 0.  0.
          5    1    3    3  502    0  0.26340519679E+02  0.92108177135E+01 -0.21547937392E+01  0.28298015407E+02  0.41800000000E+01 0. -1.
         -5    1    3    3    0  502 -0.36128505492E+02 -0.14186962593E+02  0.21758029141E+03  0.22105473174E+03  0.41800000000E+01 0. -1.
        -11    1    1    2    0    0  0.50526449099E+02  0.27319940283E+01  0.13326684248E+02  0.52325771499E+02  0.00000000000E+00 0.  1.
         11    1    1    2    0    0 -0.40738463286E+02  0.22441508514E+01  0.16748760189E+02  0.44104189958E+02  0.00000000000E+00 0. -1.
</event>
<event>
 7    1  0.2820496E-009  0.1425607E+03  0.7561462E-02  0.1209924E+00
         -1   -1    0    0    0  501 -0.00000000000E+00  0.00000000000E+00  0.26832446554E+02  0.26832446554E+02  0.00000000000E+00 0.  1.
          1   -1    0    0  501    0  0.00000000000E+00 -0.00000000000E+00 -0.11034144538E+04  0.11034144538E+04  0.00000000000E+00 0. -1.
         25    2    1    2    0    0  0.11504373875E+03 -0.45161410822E+02 -0.65220290757E+03  0.67549313164E+03  0.12509086055E+03 0.  0.
          5    1    3    3  502    0  0.66617724869E+02 -0.74590066626E+02 -0.54546977767E+03  0.55457763213E+03  0.41800000000E+01 0. -1.
         -5    1    3    3    0  502  0.48426013884E+02  0.29428655804E+02 -0.10673312989E+03  0.12091549950E+03  0.41800000000E+01 0. -1.
        -11    1    1    2    0    0 -0.47701146341E+02  0.37002512463E+02 -0.34542496157E+03  0.35066078961E+03  0.00000000000E+00 0. -1.
         11    1    1    2    0    0 -0.67342592411E+02  0.81588983589E+01 -0.78954138082E+02  0.10409297909E+03  0.00000000000E+00 0.  1.
</event>
<event>
 7    1  0.2820496E-009  0.8403221E+02  0.7561462E-02  0.1317983E+00
         -2   -1    0    0    0  501 -0.00000000000E+00  0.00000000000E+00  0.62688642663E+02  0.62688642663E+02  0.00000000000E+00 0. -1.
          2   -1    0    0  501    0  0.00000000000E+00 -0.00000000000E+00 -0.21592972408E+03  0.21592972408E+03  0.00000000000E+00 0.  1.
         25    2    1    2    0    0 -0.15656250113E+02  0.26504976067E+02 -0.59706852469E+02  0.14198226170E+03  0.12508566058E+03 0.  0.
          5    1    3    3  502    0 -0.67402445210E+02  0.53921731115E+01 -0.12901833435E+02  0.68964446326E+02  0.41800000000E+01 0. -1.
         -5    1    3    3    0  502  0.51746195096E+02  0.21112802955E+02 -0.46805019034E+02  0.73017815376E+02  0.41800000000E+01 0. -1.
        -11    1    1    2    0    0 -0.78601646536E+01 -0.17333323664E+02 -0.10654986845E+03  0.10823631907E+03  0.00000000000E+00 0.  1.
         11    1    1    2    0    0  0.23516414767E+02 -0.91716524022E+01  0.13015639509E+02  0.28399785970E+02  0.00000000000E+00 0. -1.
</event>
<event>
 7    1  0.4446633E-009  0.8587927E+02  0.7561462E-02  0.1313149E+00
         -2   -1    0    0    0  501 -0.00000000000E+00  0.00000000000E+00  0.14766097066E+03  0.14766097066E+03  0.00000000000E+00 0.  1.
          2   -1    0    0  501    0  0.00000000000E+00 -0.00000000000E+00 -0.12247268168E+03  0.12247268168E+03  0.00000000000E+00 0. -1.
         25    2    1    2    0    0 -0.26994153297E+02 -0.20344571134E+02 -0.58292105396E+02  0.14207134295E+03  0.12507482180E+03 0.  0.
          5    1    3    3  502    0  0.18059571530E+02  0.23273521770E+02  0.24209442652E+02  0.38358499096E+02  0.41800000000E+01 0.  1.
         -5    1    3    3    0  502 -0.45053724826E+02 -0.43618092904E+02 -0.82501548048E+02  0.10371284385E+03  0.41800000000E+01 0.  1.
        -11    1    1    2    0    0 -0.18062085645E+02  0.28133567872E+02  0.74229950702E+02  0.81411437528E+02  0.00000000000E+00 0.  1.
         11    1    1    2    0    0  0.45056238942E+02 -0.77889967376E+01  0.92504436650E+01  0.46650871865E+02  0.00000000000E+00 0. -1.
</event>
<event>
 7    1  0.3247813E-009  0.1875169E+03  0.7561462E-02  0.1160720E+00
         -1   -1    0    0    0  501 -0.00000000000E+00  0.00000000000E+00  0.10218794141E+03  0.10218794141E+03  0.00000000000E+00 0.  1.
          1   -1    0    0  501    0  0.00000000000E+00 -0.00000000000E+00 -0.58306707758E+03  0.58306707758E+03  0.00000000000E+00 0. -1.
         25    2    1    2    0    0 -0.11333215274E+03 -0.10889282767E+03 -0.45981150227E+03  0.50176846488E+03  0.12507257880E+03 0.  0.
          5    1    3    3  502    0 -0.87525059269E+02 -0.72342127235E+01 -0.28089585225E+03  0.29433471091E+03  0.41800000000E+01 0. -1.
         -5    1    3    3    0  502 -0.25807093470E+02 -0.10165861494E+03 -0.17891565002E+03  0.20743375397E+03  0.41800000000E+01 0. -1.
        -11    1    1    2    0    0  0.18113671690E+02  0.80890636590E+02 -0.13020359496E+02  0.83910249382E+02  0.00000000000E+00 0.  1.
         11    1    1    2    0    0  0.95218481049E+02  0.28002191076E+02 -0.80472744085E+01  0.99576304730E+02  0.00000000000E+00 0. -1.
</event>
<event>
 7    1  0.2820496E-009  0.2147844E+03  0.7561462E-02  0.1137832E+00
         -2   -1    0    0    0  501 -0.00000000000E+00  0.00000000000E+00  0.15293823881E+03  0.15293823881E+03  0.00000000000E+00 0.  1.
          2   -1    0    0  501    0  0.00000000000E+00 -0.00000000000E+00 -0.34263515484E+03  0.34263515484E+03  0.00000000000E+00 0. -1.
         25    2    1    2    0    0  0.13073547454E+03 -0.14976353303E+03 -0.14188666311E+03  0.27440833344E+03  0.12508888107E+03 0.  0.
          5    1    3    3  502    0  0.64197897680E+02 -0.13841498774E+02 -0.95673664125E+02  0.11612010834E+03  0.41800000000E+01 0.  1.
         -5    1    3    3    0  502  0.66537576865E+02 -0.13592203425E+03 -0.46212998985E+02  0.15828822510E+03  0.41800000000E+01 0.  1.
        -11    1    1    2    0    0 -0.64233501899E+02  0.21227234951E+02  0.31783712161E+01  0.67724739301E+02  0.00000000000E+00 0.  1.
         11    1    1    2    0    0 -0.66501972646E+02  0.12853629807E+03 -0.50988624140E+02  0.15344032091E+03  0.00000000000E+00 0. -1.
</event>
<event>
 7    1  0.2820496E-009  0.6949672E+02  0.7561462E-02  0.1361813E+00
          2   -1    0    0  501    0  0.00000000000E+00  0.00000000000E+00  0.23988507185E+03  0.23988507185E+03  0.00000000000E+00 0. -1.
         -2   -1    0    0    0  501 -0.00000000000E+00 -0.00000000000E+00 -0.53023315479E+02  0.53023315479E+02  0.00000000000E+00 0.  1.
         25    2    1    2    0    0  0.10124188557E+02  0.30918378804E+02  0.11093224818E+03  0.17032778255E+03  0.12508854657E+03 0.  0.
          5    1    3    3  502    0  0.98217305885E+01 -0.15135279537E+01  0.13133939773E+03  0.13178113277E+03  0.41800000000E+01 0.  1.
         -5    1    3    3    0  502  0.30245796876E+00  0.32431906757E+02 -0.20407149552E+02  0.38546649784E+02  0.41800000000E+01 0.  1.
        -11    1    1    2    0    0 -0.55750337024E+01 -0.62930599187E+02  0.42944506116E+02  0.76390915169E+02  0.00000000000E+00 0.  1.
         11    1    1    2    0    0 -0.45491548548E+01  0.32012220384E+02  0.32985002083E+02  0.46189689609E+02  0.00000000000E+00 0. -1.
</event>
<event>
 7    1  0.2820496E-009  0.1436903E+03  0.7561462E-02  0.1208448E+00
         -1   -1    0    0    0  501 -0.00000000000E+00  0.00000000000E+00  0.84005175683E+02  0.84005175683E+02  0.00000000000E+00 0.  1.
          1   -1    0    0  501    0  0.00000000000E+00 -0.00000000000E+00 -0.25254394271E+03  0.25254394271E+03  0.00000000000E+00 0. -1.
         25    2    1    2    0    0 -0.36840505072E+02  0.86390212469E+02 -0.11831149084E+03  0.19612978434E+03  0.12509513106E+03 0.  0.
          5    1    3    3  502    0  0.23652722251E+02  0.92419215342E+02 -0.72508705511E+02  0.11989890495E+03  0.41800000000E+01 0. -1.
         -5    1    3    3    0  502 -0.60493227323E+02 -0.60290028729E+01 -0.45802785326E+02  0.76230879381E+02  0.41800000000E+01 0. -1.
        -11    1    1    2    0    0  0.17335199002E+02 -0.10354066133E+03 -0.37337669216E+02  0.11142387184E+03  0.00000000000E+00 0. -1.
         11    1    1    2    0    0  0.19505306070E+02  0.17150448863E+02 -0.12889606969E+02  0.28995462212E+02  0.00000000000E+00 0.  1.
</event>
<event>
 7    1  0.2820496E-009  0.1038681E+03  0.7561462E-02  0.1272366E+00
         -2   -1    0    0    0  501 -0.00000000000E+00  0.00000000000E+00  0.18223099467E+02  0.18223099467E+02  0.00000000000E+00 0. -1.
          2   -1    0    0  501    0  0.00000000000E+00 -0.00000000000E+00 -0.71876050988E+03  0.71876050988E+03  0.00000000000E+00 0.  1.
         25    2    1    2    0    0  0.99233108865E+01  0.33067214059E+02 -0.42882765795E+03  0.44803069199E+03  0.12508568263E+03 0.  0.
          5    1    3    3  502    0 -0.44070258504E+02 -0.52669087599E+01 -0.69081578323E+02  0.82217181149E+02  0.41800000000E+01 0. -1.
         -5    1    3    3    0  502  0.53993569390E+02  0.38334122819E+02 -0.35974607963E+03  0.36581351084E+03  0.41800000000E+01 0. -1.
        -11    1    1    2    0    0  0.33365539458E+02  0.10904163910E+02 -0.12400904151E+03  0.12888135004E+03  0.00000000000E+00 0. -1.
         11    1    1    2    0    0 -0.43288850344E+02 -0.43971377969E+02 -0.14770071096E+03  0.16007156731E+03  0.00000000000E+00 0.  1.
</event>
<event>
 7    1  0.2820496E-009  0.1357836E+03  0.7561462E-02  0.1219118E+00
         -2   -1    0    0    0  501 -0.00000000000E+00  0.00000000000E+00  0.34101286883E+02  0.34101286883E+02  0.00000000000E+00 0.  1.
          2   -1    0    0  501    0  0.00000000000E+00 -0.00000000000E+00 -0.70259775662E+03  0.70259775662E+03  0.00000000000E+00 0. -1.
         25    2    1    2    0    0  0.18563037805E+02  0.87228938602E+02 -0.48356717178E+03  0.50738383114E+03  0.12509064065E+03 0.  0.
          5    1    3    3  502    0 -0.12913523560E+02  0.11233115777E+03 -0.35719286515E+03  0.37468555271E+03  0.41800000000E+01 0. -1.
         -5    1    3    3    0  502  0.31476561366E+02 -0.25102219164E+02 -0.12637430662E+03  0.13269827843E+03  0.41800000000E+01 0. -1.
        -11    1    1    2    0    0  0.30402090795E+02 -0.34518390445E+02 -0.21547630695E+02  0.50794751620E+02  0.00000000000E+00 0.  1.
         11    1    1    2    0    0 -0.48965128600E+02 -0.52710548157E+02 -0.16338166726E+03  0.17852046074E+03  0.00000000000E+00 0. -1.
</event>
<event>
 6    1  0.2820496E-009  0.8421944E+02  0.7561462E-02  0.1317486E+00
          1   -1    0    0  501    0  0.00000000000E+00  0.00000000000E+00  0.19468331652E+03  0.19468331652E+03  0.00000000000E+00 0. -1.
         -1   -1    0    0    0  501 -0.00000000000E+00 -0.00000000000E+00 -0.74269255655E+02  0.74269255655E+02  0.00000000000E+00 0.  1.
          5    1    1    2  502    0 -0.33906347453E+02  0.27356833422E+02  0.77914411980E+02  0.89365344103E+02  0.41800000000E+01 0.  1.
         -5    1    1    2    0  502 -0.14942903189E+02 -0.46669075101E+02 -0.26243346879E+02  0.55744762821E+02  0.41800000000E+01 0.  1.
        -11    1    1    2    0    0  0.58031991633E+02  0.46851982792E+01  0.57260065707E+01  0.58501711830E+02  0.00000000000E+00 0.  1.
         11    1    1    2    0    0 -0.91827409916E+01  0.14627043400E+02  0.63016989198E+02  0.65340753426E+02  0.00000000000E+00 0. -1.
</event>
<event>
 7    1  0.2820496E-009  0.9933596E+02  0.7561462E-02  0.1281699E+00
          4   -1    0    0  501    0  0.00000000000E+00  0.00000000000E+00  0.32728402248E+03  0.32728402248E+03  0.00000000000E+00 0. -1.
         -4   -1    0    0    0  501 -0.00000000000E+00 -0.00000000000E+00 -0.60975580573E+02  0.60975580573E+02  0.00000000000E+00 0.  1.
         25    2    1    2    0    0  0.41602335419E+02 -0.35290521214E+02  0.46565404191E+02  0.14420099752E+03  0.12509762435E+03 0.  0.
          5    1    3    3  502    0  0.21131488651E+02  0.29184088691E+02  0.64582461081E+02  0.74071705290E+02  0.41800000000E+01 0.  1.
         -5    1    3    3    0  502  0.20470846768E+02 -0.64474609905E+02 -0.18017056890E+02  0.70129292231E+02  0.41800000000E+01 0.  1.
        -11    1    1    2    0    0 -0.64059469903E+02  0.18796762494E+02  0.94183818996E+02  0.11544490342E+03  0.00000000000E+00 0.  1.
         11    1    1    2    0    0  0.22457134483E+02  0.16493758720E+02  0.12555921872E+03  0.12861370211E+03  0.00000000000E+00 0. -1.
</event>
<event>
 7    1  0.2820496E-009  0.1728316E+03  0.7561462E-02  0.1174927E+00
         -2   -1    0    0    0  501 -0.00000000000E+00  0.00000000000E+00  0.77398098704E+02  0.77398098704E+02  0.00000000000E+00 0.  1.
          2   -1    0    0  501    0  0.00000000000E+00 -0.00000000000E+00 -0.48580696397E+03  0.48580696397E+03  0.00000000000E+00 0. -1.
         25    2    1    2    0    0 -0.10760926287E+03 -0.10206531442E+03 -0.30458657619E+03  0.36113372575E+03  0.12508998206E+03 0.  0.
          5    1    3    3  502    0  0.86638996759E+01 -0.68805192823E+02 -0.79483797125E+02  0.10556687038E+03  0.41800000000E+01 0.  1.
         -5    1    3    3    0  502 -0.11627316255E+03 -0.33260121596E+02 -0.22510277907E+03  0.25556685537E+03  0.41800000000E+01 0.  1.
        -11    1    1    2    0    0  0.46470350868E+02  0.15076538639E+02  0.59883253927E+01  0.49220479154E+02  0.00000000000E+00 0.  1.
         11    1    1    2    0    0  0.61138912003E+02  0.86988775780E+02 -0.10981061447E+03  0.15285085778E+03  0.00000000000E+00 0. -1.
</event>
<event>
 7    1  0.2820496E-009  0.1345627E+03  0.7561462E-02  0.1220838E+00
         -1   -1    0    0    0  501 -0.00000000000E+00  0.00000000000E+00  0.35945815521E+02  0.35945815521E+02  0.00000000000E+00 0.  1.
          1   -1    0    0  501    0  0.00000000000E+00 -0.00000000000E+00 -0.60803330292E+03  0.60803330292E+03  0.00000000000E+00 0. -1.
         25    2    1    2    0    0  0.49918556554E+01 -0.95105376245E+02 -0.24676360679E+03  0.29259175538E+03  0.12509079290E+03 0.  0.
          5    1    3    3  502    0  0.55328282841E+02 -0.10554503143E+02 -0.67128007626E+02  0.87728320550E+02  0.41800000000E+01 0. -1.
         -5    1    3    3    0  502 -0.50336427185E+02 -0.84550873103E+02 -0.17963559916E+03  0.20486343483E+03  0.41800000000E+01 0. -1.
        -11    1    1    2    0    0 -0.33070254803E+02  0.37022282441E+02 -0.57785171920E+02  0.76180163059E+02  0.00000000000E+00 0.  1.
         11    1    1    2    0    0  0.28078399148E+02  0.58083093804E+02 -0.26753870870E+03  0.27520720001E+03  0.00000000000E+00 0. -1.
</event>
<event>
 7    1  0.2820496E-009  0.1324165E+03  0.7561462E-02  0.1223914E+00
         -1   -1    0    0    0  501 -0.00000000000E+00  0.00000000000E+00  0.10634796662E+03  0.10634796662E+03  0.00000000000E+00 0.  1.
          1   -1    0    0  501    0  0.00000000000E+00 -0.00000000000E+00 -0.21361713825E+03  0.21361713825E+03  0.00000000000E+00 0. -1.
         25    2    1    2    0    0 -0.11344071320E+02 -0.10203449069E+03 -0.81105136393E+02  0.18101946070E+03  0.12510106617E+03 0.  0.
          5    1    3    3  502    0  0.33390939290E+01 -0.11259796069E+03 -0.16654917784E+02  0.11394871209E+03  0.41800000000E+01 0. -1.
         -5    1    3    3    0  502 -0.14683165249E+02  0.10563469999E+02 -0.64450218609E+02  0.67070748609E+02  0.41800000000E+01 0. -1.
        -11    1    1    2    0    0 -0.28915265442E+02  0.85080138759E+02 -0.39695901357E+01  0.89947096855E+02  0.00000000000E+00 0.  1.
         11    1    1    2    0    0  0.40259336762E+02  0.16954351934E+02 -0.22194445093E+02  0.48998547315E+02  0.00000000000E+00 0. -1.
</event>
<event>
 7    1  0.2820496E-009  0.1171577E+03  0.7561462E-02  0.1247861E+00
          2   -1    0    0  501    0  0.00000000000E+00  0.00000000000E+00  0.86110180897E+03  0.86110180897E+03  0.00000000000E+00 0. -1.
         -2   -1    0    0    0  501 -0.00000000000E+00 -0.00000000000E+00 -0.28667579002E+02  0.28667579002E+02  0.00000000000E+00 0.  1.
         25    2    1    2    0    0 -0.48504540237E+01  0.83409917893E+02  0.66580657498E+03  0.68258021142E+03  0.12504642507E+03 0.  0.
          5    1    3    3  502    0 -0.36783190350E+02  0.21500675711E+02  0.51077961610E+03  0.51257055199E+03  0.41800000000E+01 0.  1.
         -5    1    3    3    0  502  0.31932736327E+02  0.61909242181E+02  0.15502695888E+03  0.17000965942E+03  0.41800000000E+01 0.  1.
        -11    1    1    2    0    0  0.16265532489E+02 -0.10014778038E+03  0.14940054732E+03  0.18059531833E+03  0.00000000000E+00 0. -1.
         11    1    1    2    0    0 -0.11415078465E+02  0.16737862487E+02  0.17227107667E+02  0.26593858230E+02  0.00000000000E+00 0.  1.
</event>
<event>
 7    1  0.2820496E-009  0.1346911E+03  0.7561462E-02  0.1220656E+00
          2   -1    0    0  501    0  0.00000000000E+00  0.00000000000E+00  0.16300929205E+04  0.16300929205E+04  0.00000000000E+00 0.  1.
         -2   -1    0    0    0  501 -0.00000000000E+00 -0.00000000000E+00 -0.11419847276E+02  0.11419847276E+02  0.00000000000E+00 0. -1.
         25    2    1    2    0    0  0.54004060540E+02 -0.59569296909E+02  0.98863335896E+03  0.99975514972E+03  0.12509796669E+03 0.  0.
          5    1    3    3  502    0 -0.16707710469E+02 -0.73696172082E+02  0.55740605167E+03  0.56252044603E+03  0.41800000000E+01 0.  1.
         -5    1    3    3    0  502  0.70711771009E+02  0.14126875172E+02  0.43122730729E+03  0.43723470369E+03  0.41800000000E+01 0.  1.
        -11    1    1    2    0    0 -0.21024163578E+02 -0.23834819149E+02  0.13820633201E+03  0.14181362511E+03  0.00000000000E+00 0. -1.
         11    1    1    2    0    0 -0.32979896962E+02  0.83404116059E+02  0.49183338222E+03  0.49994399290E+03  0.00000000000E+00 0.  1.
</event>
<event>
 7    1  0.2820496E-009  0.7421606E+02  0.7561462E-02  0.1346316E+00
         -2   -1    0    0    0  501 -0.00000000000E+00  0.00000000000E+00  0.99279102425E+02  0.99279102425E+02  0.00000000000E+00 0.  1.
          2   -1    0    0  501    0  0.00000000000E+00 -0.00000000000E+00 -0.17857900630E+03  0.17857900630E+03  0.00000000000E+00 0. -1.
         25    2    1    2    0    0  0.19804806963E+02  0.24415806498E+02  0.29748098161E+02  0.13237046709E+03  0.12509448121E+03 0.  0.
          5    1    3    3  502    0  0.24940608078E+01  0.33715756091E+02  0.75265982591E+02  0.82616058266E+02  0.41800000000E+01 0. -1.
         -5    1    3    3    0  502  0.17310746155E+02 -0.92999495927E+01 -0.45517884429E+02  0.49754408828E+02  0.41800000000E+01 0. -1.
        -11    1    1    2    0    0 -0.39941937903E+02  0.20615008765E+02 -0.37250167155E+02  0.58377323876E+02  0.00000000000E+00 0.  1.
         11    1    1    2    0    0  0.20137130940E+02 -0.45030815263E+02 -0.71797834877E+02  0.87110317751E+02  0.00000000000E+00 0. -1.
</event>
<event>
 7    1  0.2820496E-009  0.1066115E+03  0.7561462E-02  0.1266977E+00
         -3   -1    0    0    0  501 -0.00000000000E+00  0.00000000000E+00  0.28663315928E+03  0.28663315928E+03  0.00000000000E+00 0.  1.
          3   -1    0    0  501    0  0.00000000000E+00 -0.00000000000E+00 -0.44719032966E+02  0.44719032966E+02  0.00000000000E+00 0. -1.
         25    2    1    2    0    0 -0.36249214999E+01 -0.32601843759E+02  0.13500262771E+03  0.18693770221E+03  0.12507587595E+03 0.  0.
          5    1    3    3  502    0 -0.28991454853E+02 -0.70120653912E+02  0.11359387545E+03  0.13666913148E+03  0.41800000000E+01 0.  1.
         -5    1    3    3    0  502  0.25366533353E+02  0.37518810153E+02  0.21408752261E+02  0.50268570728E+02  0.41800000000E+01 0.  1.
        -11    1    1    2    0    0 -0.35132544419E+02 -0.75584560891E+01  0.20003862135E+02  0.41128827313E+02  0.00000000000E+00 0. -1.
         11    1    1    2    0    0  0.38757465919E+02  0.40160299848E+02  0.86907636472E+02  0.10328566273E+03  0.00000000000E+00 0.  1.
</event>
<event>
 7    1  0.2820496E-009  0.1332694E+03  0.7561462E-02  0.1222684E+00
         -2   -1    0    0    0  501 -0.00000000000E+00  0.00000000000E+00  0.31078863660E+02  0.31078863660E+02  0.00000000000E+00 0.  1.
          2   -1    0    0  501    0  0.00000000000E+00 -0.00000000000E+00 -0.85769094958E+03  0.85769094958E+03  0.00000000000E+00 0. -1.
         25    2    1    2    0    0 -0.53559544706E+02  0.10214910159E+03 -0.34141888631E+03  0.38146788710E+03  0.12509128337E+03 0.  0.
          5    1    3    3  502    0 -0.18057907700E+01  0.99079465706E+02 -0.12871121848E+03  0.16249323545E+03  0.41800000000E+01 0. -1.
         -5    1    3    3    0  502 -0.51753753936E+02  0.30696358814E+01 -0.21270766783E+03  0.21897465164E+03  0.41800000000E+01 0. -1.
        -11    1    1    2    0    0  0.35804165484E+02 -0.67449249108E+02 -0.44427387027E+03  0.45078887662E+03  0.00000000000E+00 0. -1.
         11    1    1    2    0    0  0.17755379223E+02 -0.34699852479E+02 -0.40919329335E+02  0.56513049525E+02  0.00000000000E+00 0.  1.
</event>
<event>
 7    1  0.2820496E-009  0.1652701E+03  0.7561462E-02  0.1182872E+00
          3   -1    0    0  501    0  0.00000000000E+00  0.00000000000E+00  0.47236697848E+03  0.47236697848E+03  0.00000000000E+00 0. -1.
         -3   -1    0    0    0  501 -0.00000000000E+00 -0.00000000000E+00 -0.82368835976E+02  0.82368835976E+02  0.00000000000E+00 0.  1.
         25    2    1    2    0    0 -0.14305727927E+03  0.17226933397E+02  0.31815100743E+03  0.37098464996E+03  0.12508954629E+03 0.  0.
          5    1    3    3  502    0 -0.14838611663E+03 -0.18933164701E+02  0.28285465430E+03  0.32000176905E+03  0.41800000000E+01 0.  1.
         -5    1    3    3    0  502  0.53288373560E+01  0.36160098098E+02  0.35296353124E+02  0.50982880910E+02  0.41800000000E+01 0.  1.
        -11    1    1    2    0    0  0.66286201264E+02 -0.70070206403E+01 -0.14022462443E+02  0.68114523188E+02  0.00000000000E+00 0.  1.
         11    1    1    2    0    0  0.76771078006E+02 -0.10219912757E+02  0.85869597518E+02  0.11563664131E+03  0.00000000000E+00 0. -1.
</event>
<event>
 7    1  0.2820496E-009  0.1110508E+03  0.7561462E-02  0.1258636E+00
          1   -1    0    0  501    0  0.00000000000E+00  0.00000000000E+00  0.16839030960E+03  0.16839030960E+03  0.00000000000E+00 0. -1.
         -1   -1    0    0    0  501 -0.00000000000E+00 -0.00000000000E+00 -0.12587814677E+03  0.12587814677E+03  0.00000000000E+00 0.  1.
         25    2    1    2    0    0  0.86882388855E+02 -0.26411212355E+02  0.55517295234E+02  0.16424303836E+03  0.12508998340E+03 0.  0.
          5    1    3    3  502    0  0.20576579367E+02 -0.18362652430E+02  0.86215121140E+02  0.90615131937E+02  0.41800000000E+01 0.  1.
         -5    1    3    3    0  502  0.66305809488E+02 -0.80485599252E+01 -0.30697825906E+02  0.73627906422E+02  0.41800000000E+01 0.  1.
        -11    1    1    2    0    0 -0.17902577973E+01  0.40924629827E+02  0.66368314823E+01  0.41497926232E+02  0.00000000000E+00 0.  1.
         11    1    1    2    0    0 -0.85092131058E+02 -0.14513417472E+02 -0.19641963891E+02  0.88527491777E+02  0.00000000000E+00 0. -1.
</event>
<event>
 7    1  0.2820496E-009  0.1038018E+03  0.7561462E-02  0.1272499E+00
         -1   -1    0    0    0  501 -0.00000000000E+00  0.00000000000E+00  0.25488013211E+03  0.25488013211E+03  0.00000000000E+00 0.  1.
          1   -1    0    0  501    0  0.00000000000E+00 -0.00000000000E+00 -0.10757979345E+03  0.10757979345E+03  0.00000000000E+00 0. -1.
         25    2    1    2    0    0 -0.19978230218E+02 -0.55378717990E+02 -0.42069547618E+02  0.14451201302E+03  0.12509173827E+03 0.  0.
          5    1    3    3  502    0 -0.37415162985E+02  0.60372735096E+01 -0.65984326627E+02  0.76208574669E+02  0.41800000000E+01 0.  1.
         -5    1    3    3    0  502  0.17436932766E+02 -0.61415991499E+02  0.23914779009E+02  0.68303438356E+02  0.41800000000E+01 0.  1.
        -11    1    1    2    0    0  0.39661108708E+02 -0.68312685065E+01  0.95443822112E+02  0.10358181767E+03  0.00000000000E+00 0.  1.
         11    1    1    2    0    0 -0.19682878489E+02  0.62209986496E+02  0.93926064158E+02  0.11436609486E+03  0.00000000000E+00 0. -1.
</event>
<event>
 7    1  0.2820496E-009  0.1376972E+03  0.7561462E-02  0.1216462E+00
          2   -1    0    0  501    0  0.00000000000E+00  0.00000000000E+00  0.23473662997E+03  0.23473662997E+03  0.00000000000E+00 0. -1.
         -2   -1    0    0    0  501 -0.00000000000E+00 -0.00000000000E+00 -0.12521856700E+03  0.12521856700E+03  0.00000000000E+00 0.  1.
         25    2    1    2    0    0 -0.65264489297E+02  0.98229078052E+02 -0.49888754378E+01  0.17198731788E+03  0.12508534404E+03 0.  0.
          5    1    3    3  502    0 -0.23436028142E+02  0.88099141595E+02  0.48388126692E+02  0.10329370440E+03  0.41800000000E+01 0. -1.
         -5    1    3    3    0  502 -0.41828461155E+02  0.10129936458E+02 -0.53377002130E+02  0.68693613470E+02  0.41800000000E+01 0. -1.
        -11    1    1    2    0    0  0.73984273986E+02 -0.10596605051E+03  0.81079184902E+02  0.15256575921E+03  0.00000000000E+00 0.  1.
         11    1    1    2    0    0 -0.87197846884E+01  0.77369724585E+01  0.33427753505E+02  0.35402119884E+02  0.00000000000E+00 0. -1.
</event>
<event>
 7    1  0.2820496E-009  0.1092547E+03  0.7561462E-02  0.1261956E+00
          1   -1    0    0  501    0  0.00000000000E+00  0.00000000000E+00  0.19769050331E+03  0.19769050331E+03  0.00000000000E+00 0. -1.
         -1   -1    0    0    0  501 -0.00000000000E+00 -0.00000000000E+00 -0.64157068681E+02  0.64157068681E+02  0.00000000000E+00 0.  1.
         25    2    1    2    0    0 -0.53135774084E+02 -0.17017375628E+01  0.84462179937E+02  0.16002284649E+03  0.12508854928E+03 0.  0.
          5    1    3    3  502    0  0.36179363894E+02  0.18976202310E+02  0.42539649488E+02  0.59128138855E+02  0.41800000000E+01 0. -1.
         -5    1    3    3    0  502 -0.89315137979E+02 -0.20677939873E+02  0.41922530449E+02  0.10089470764E+03  0.41800000000E+01 0. -1.
        -11    1    1    2    0    0  0.47315840631E+02  0.30496553181E+02  0.45200796541E+02  0.72193770773E+02  0.00000000000E+00 0.  1.
         11    1    1    2    0    0  0.58199334537E+01 -0.28794815618E+02  0.38704581537E+01  0.29630954730E+02  0.00000000000E+00 0. -1.
</event>
<event>
 7    1  0.2820496E-009  0.1795896E+03  0.7561462E-02  0.1168201E+00
          3   -1    0    0  501    0  0.00000000000E+00  0.00000000000E+00  0.50541754393E+03  0.50541754393E+03  0.00000000000E+00 0. -1.
         -3   -1    0    0    0  501 -0.00000000000E+00 -0.00000000000E+00 -0.87305859984E+02  0.87305859984E+02  0.00000000000E+00 0.  1.
         25    2    1    2    0    0 -0.93987861108E+02 -0.12842728249E+03  0.10123485205E+03  0.22633126073E+03  0.12510019741E+03 0.  0.
          5    1    3    3  502    0 -0.63226012843E+02 -0.14910833344E+03  0.96894414153E+02  0.18877718002E+03  0.41800000000E+01 0. -1.
         -5    1    3    3    0  502 -0.30761848265E+02  0.20681050953E+02  0.43404379012E+01  0.37554080715E+02  0.41800000000E+01 0. -1.
        -11    1    1    2    0    0  0.43805743196E+02  0.47287688932E+02  0.45957311232E+02  0.79165289851E+02  0.00000000000E+00 0.  1.
         11    1    1    2    0    0  0.50182117912E+02  0.81139593556E+02  0.27091952066E+03  0.28722685333E+03  0.00000000000E+00 0. -1.
</event>
<event>
 7    1  0.2820496E-009  0.1074189E+03  0.7561462E-02  0.1265426E+00
          2   -1    0    0  501    0  0.00000000000E+00  0.00000000000E+00  0.26097901633E+03  0.26097901633E+03  0.00000000000E+00 0.  1.
         -2   -1    0    0    0  501 -0.00000000000E+00 -0.00000000000E+00 -0.48050434787E+02  0.48050434787E+02  0.00000000000E+00 0. -1.
         25    2    1    2    0    0 -0.21990628750E+02  0.83666941890E+01  0.97683492809E+02  0.16044617632E+03  0.12508925375E+03 0.  0.
          5    1    3    3  502    0  0.49600778199E+02 -0.14542640294E+02  0.36144154835E+02  0.63210742073E+02  0.41800000000E+01 0. -1.
         -5    1    3    3    0  502 -0.71591406948E+02  0.22909334483E+02  0.61539337974E+02  0.97235434249E+02  0.41800000000E+01 0. -1.
        -11    1    1    2    0    0  0.30666370367E+02 -0.42538937529E+02  0.41610437016E+02  0.66943378659E+02  0.00000000000E+00 0. -1.
         11    1    1    2    0    0 -0.86757416171E+01  0.34172243340E+02  0.73634651714E+02  0.81639896132E+02  0.00000000000E+00 0.  1.
</event>
<event>
 7    1  0.2820496E-009  0.1036869E+03  0.7561462E-02  0.1272728E+00
          1   -1    0    0  501    0  0.00000000000E+00  0.00000000000E+00  0.72534141867E+02  0.72534141867E+02  0.00000000000E+00 0. -1.
         -1   -1    0    0    0  501 -0.00000000000E+00 -0.00000000000E+00 -0.21241037578E+03  0.21241037578E+03  0.00000000000E+00 0.  1.
         25    2    1    2    0    0 -0.86865320303E+01  0.14243371566E+02 -0.89252157707E+01  0.12651492149E+03  0.12509211170E+03 0.  0.
          5    1    3    3  502    0  0.19481011276E+02  0.61066861666E+02 -0.25725553979E+02  0.69194999253E+02  0.41800000000E+01 0. -1.
         -5    1    3    3    0  502 -0.28167543306E+02 -0.46823490101E+02  0.16800338208E+02  0.57319922235E+02  0.41800000000E+01 0. -1.
        -11    1    1    2    0    0  0.40415285727E+02 -0.32382668517E+02 -0.65895730999E+02  0.83810977232E+02  0.00000000000E+00 0.  1.
         11    1    1    2    0    0 -0.31728753697E+02  0.18139296952E+02 -0.65055287139E+02  0.74618618922E+02  0.00000000000E+00 0. -1.
</event>
<event>
 7    1  0.2820496E-009  0.8863897E+02  0.7561462E-02  0.1306181E+00
         -2   -1    0    0    0  501 -0.00000000000E+00  0.00000000000E+00  0.58467681512E+02  0.58467681512E+02  0.00000000000E+00 0.  1.
          2   -1    0    0  501    0  0.00000000000E+00 -0.00000000000E+00 -0.23124300637E+03  0.23124300637E+03  0.00000000000E+00 0. -1.
         25    2    1    2    0    0 -0.14300242240E+02 -0.94499957039E+01 -0.14642084445E+03  0.19331565181E+03  0.12505230185E+03 0.  0.
          5    1    3    3  502    0 -0.60402406654E+02  0.13591487925E+02 -0.12035101321E+03  0.13540686118E+03  0.41800000000E+01 0.  1.
         -5    1    3    3    0  502  0.46102164415E+02 -0.23041483628E+02 -0.26069831237E+02  0.57908790630E+02  0.41800000000E+01 0.  1.
        -11    1    1    2    0    0 -0.46698944378E+01  0.32969826019E+02 -0.48571487259E+02  0.58889784482E+02  0.00000000000E+00 0. -1.
         11    1    1    2    0    0  0.18970136678E+02 -0.23519830315E+02  0.22217006848E+02  0.37505251591E+02  0.00000000000E+00 0.  1.
</event>
<event>
 7    1  0.2820496E-009  0.1081054E+03  0.7561462E-02  0.1264119E+00
          1   -1    0    0  501    0  0.00000000000E+00  0.00000000000E+00  0.14224096933E+03  0.14224096933E+03  0.00000000000E+00 0. -1.
         -1   -1    0    0    0  501 -0.00000000000E+00 -0.00000000000E+00 -0.11940606520E+03  0.11940606520E+03  0.00000000000E+00 0.  1.
         25    2    1    2    0    0 -0.56680565823E+02 -0.76358322257E+01 -0.32879764524E+02  0.14141968858E+03  0.12508979546E+03 0.  0.
          5    1    3    3  502    0  0.76676608399E+01  0.48600724006E+02  0.10146848800E+01  0.49389527048E+02  0.41800000000E+01 0.  1.
         -5    1    3    3    0  502 -0.64348226663E+02 -0.56236556232E+02 -0.33894449404E+02  0.92030161534E+02  0.41800000000E+01 0.  1.
        -11    1    1    2    0    0  0.18700998678E+01  0.23997317003E+02 -0.15693430953E+02  0.28734165586E+02  0.00000000000E+00 0.  1.
         11    1    1    2    0    0  0.54810465956E+02 -0.16361484778E+02  0.71408099614E+02  0.91493180363E+02  0.00000000000E+00 0. -1.
</event>
<event>
 7    1  0.2820496E-009  0.1560127E+03  0.7561462E-02  0.1193273E+00
          3   -1    0    0  501    0  0.00000000000E+00  0.00000000000E+00  0.20151029612E+03  0.20151029612E+03  0.00000000000E+00 0. -1.
         -3   -1    0    0    0  501 -0.00000000000E+00 -0.00000000000E+00 -0.17692400473E+03  0.17692400473E+03  0.00000000000E+00 0.  1.
         25    2    1    2    0    0 -0.21553869628E+02  0.12948624446E+03 -0.67086317174E+02  0.19333810019E+03  0.12509112771E+03 0.  0.
          5    1    3    3  502    0  0.43416708237E+02  0.10035079809E+03 -0.48112970800E+02  0.11953084786E+03  0.41800000000E+01 0.  1.
         -5    1    3    3    0  502 -0.64970577866E+02  0.29135446378E+02 -0.18973346373E+02  0.73807252330E+02  0.41800000000E+01 0.  1.
        -11    1    1    2    0    0  0.10462429187E+02 -0.57827655714E+02 -0.10611360418E+02  0.59716841509E+02  0.00000000000E+00 0. -1.
         11    1    1    2    0    0  0.11091440441E+02 -0.71658588750E+02  0.10228396898E+03  0.12537935916E+03  0.00000000000E+00 0.  1.
</event>
<event>
 7    1  0.2820496E-009  0.1255198E+03  0.7561462E-02  0.1234259E+00
          2   -1    0    0  501    0  0.00000000000E+00  0.00000000000E+00  0.31470438635E+03  0.31470438635E+03  0.00000000000E+00 0. -1.
         -2   -1    0    0    0  501 -0.00000000000E+00 -0.00000000000E+00 -0.53417100648E+02  0.53417100648E+02  0.00000000000E+00 0.  1.
         25    2    1    2    0    0 -0.30761328896E+02  0.32163075267E+02  0.11619686156E+03  0.17643748312E+03  0.12509097508E+03 0.  0.
          5    1    3    3  502    0 -0.75647385863E+02  0.42007329882E+02  0.76040700750E+02  0.11526839689E+03  0.41800000000E+01 0. -1.
         -5    1    3    3    0  502  0.44886056967E+02 -0.98442546150E+01  0.40156160813E+02  0.61169086230E+02  0.41800000000E+01 0. -1.
        -11    1    1    2    0    0  0.89058476699E+01  0.40976270072E+02  0.84106016924E+02  0.93979736723E+02  0.00000000000E+00 0.  1.
         11    1    1    2    0    0  0.21855481226E+02 -0.73139345340E+02  0.60984407215E+02  0.97704267152E+02  0.00000000000E+00 0. -1.
</event>
<event>
 7    1  0.2820496E-009  0.1280175E+03  0.7561462E-02  0.1230427E+00
          1   -1    0    0  501    0  0.00000000000E+00  0.00000000000E+00  0.21780513119E+03  0.21780513119E+03  0.00000000000E+00 0. -1.
         -1   -1    0    0    0  501 -0.00000000000E+00 -0.00000000000E+00 -0.11941795221E+03  0.11941795221E+03  0.00000000000E+00 0.  1.
         25    2    1    2    0    0  0.55917268306E+02 -0.69757744237E+02  0.12136195962E+03  0.19587911583E+03  0.12508804500E+03 0.  0.
          5    1    3    3  502    0  0.50815552010E+02  0.10880433201E+02  0.26301248719E+01  0.52201476124E+02  0.41800000000E+01 0. -1.
         -5    1    3    3    0  502  0.51017162963E+01 -0.80638177438E+02  0.11873183475E+03  0.14367763971E+03  0.41800000000E+01 0. -1.
        -11    1    1    2    0    0  0.55578863417E+01  0.60581843319E+02  0.21925372592E+02  0.64666620477E+02  0.00000000000E+00 0. -1.
         11    1    1    2    0    0 -0.61475154648E+02  0.91759009176E+01 -0.44900153235E+02  0.76677347092E+02  0.00000000000E+00 0.  1.
</event>
<event>
 7    1  0.2820496E-009  0.1206433E+03  0.7561462E-02  0.1242040E+00
         -3   -1    0    0    0  501 -0.00000000000E+00  0.00000000000E+00  0.36962084877E+03  0.36962084877E+03  0.00000000000E+00 0.  1.
          3   -1    0    0  501    0  0.00000000000E+00 -0.00000000000E+00 -0.46627921366E+02  0.46627921366E+02  0.00000000000E+00 0. -1.
         25    2    1    2    0    0  0.28464777158E+02  0.49183213556E+02  0.14004221938E+03  0.19618201723E+03  0.12508528548E+03 0.  0.
          5    1    3    3  502    0  0.55485999329E+02 -0.74107913152E+01  0.11603531794E+03  0.12890028456E+03  0.41800000000E+01 0. -1.
         -5    1    3    3    0  502 -0.27021222172E+02  0.56594004872E+02  0.24006901435E+02  0.67281732674E+02  0.41800000000E+01 0. -1.
        -11    1    1    2    0    0  0.22563470919E+02 -0.65057064888E+02  0.10196650292E+03  0.12303942307E+03  0.00000000000E+00 0. -1.
         11    1    1    2    0    0 -0.51028248076E+02  0.15873851332E+02  0.80984205108E+02  0.97027329834E+02  0.00000000000E+00 0.  1.
</event>
<event>
 7    1  0.2820496E-009  0.1041167E+03  0.7561462E-02  0.1271870E+00
          2   -1    0    0  501    0  0.00000000000E+00  0.00000000000E+00  0.58773321346E+03  0.58773321346E+03  0.00000000000E+00 0. -1.
         -2   -1    0    0    0  501 -0.00000000000E+00 -0.00000000000E+00 -0.26066796982E+02  0.26066796982E+02  0.00000000000E+00 0.  1.
         25    2    1    2    0    0  0.60961722619E+02 -0.13930257466E+02  0.26992982248E+03  0.30400655579E+03  0.12508994046E+03 0.  0.
          5    1    3    3  502    0  0.53090216574E+02 -0.50741087369E+02  0.73596944206E+02  0.10405388815E+03  0.41800000000E+01 0.  1.
         -5    1    3    3    0  502  0.78715060442E+01  0.36810829902E+02  0.19633287827E+03  0.19995266764E+03  0.41800000000E+01 0.  1.
        -11    1    1    2    0    0  0.30494553063E+00  0.32717649078E+02  0.15982834123E+03  0.16314299314E+03  0.00000000000E+00 0. -1.
         11    1    1    2    0    0 -0.61266668149E+02 -0.18787391611E+02  0.13190825277E+03  0.14665046150E+03  0.00000000000E+00 0.  1.
</event>
<event>
 7    1  0.2820496E-009  0.1526047E+03  0.7561462E-02  0.1197308E+00
          2   -1    0    0  501    0  0.00000000000E+00  0.00000000000E+00  0.13773272055E+04  0.13773272055E+04  0.00000000000E+00 0. -1.
         -2   -1    0    0    0  501 -0.00000000000E+00 -0.00000000000E+00 -0.23653076157E+02  0.23653076157E+02  0.00000000000E+00 0.  1.
         25    2    1    2    0    0  0.11102805973E+03 -0.59132672442E+02  0.98706877430E+03  0.10028846725E+04  0.12509595592E+03 0.  0.
          5    1    3    3  502    0  0.96807683128E+02  0.56647015806E+01  0.38051551023E+03  0.39270006657E+03  0.41800000000E+01 0.  1.
         -5    1    3    3    0  502  0.14220376600E+02 -0.64797374023E+02  0.60655326407E+03  0.61018460596E+03  0.41800000000E+01 0.  1.
        -11    1    1    2    0    0 -0.26630583331E+02  0.50174186156E+02  0.73158637609E+02  0.92621936828E+02  0.00000000000E+00 0.  1.
         11    1    1    2    0    0 -0.84397476397E+02  0.89584862857E+01  0.29344671741E+03  0.30547367228E+03  0.00000000000E+00 0. -1.
</event>
<event>
 7    1  0.2820496E-009  0.1124617E+03  0.7561462E-02  0.1256078E+00
         -1   -1    0    0    0  501 -0.00000000000E+00  0.00000000000E+00  0.11278248749E+03  0.11278248749E+03  0.00000000000E+00 0.  1.
          1   -1    0    0  501    0  0.00000000000E+00 -0.00000000000E+00 -0.11743341327E+03  0.11743341327E+03  0.00000000000E+00 0. -1.
         25    2    1    2    0    0  0.38127076304E+02  0.14079733502E+02 -0.51253276021E+01  0.13162434814E+03  0.12508711843E+03 0.  0.
          5    1    3    3  502    0  0.72250900654E+02 -0.23101418243E+02  0.14453138774E+02  0.77331971336E+02  0.41800000000E+01 0. -1.
         -5    1    3    3    0  502 -0.34123824350E+02  0.37181151745E+02 -0.19578466376E+02  0.54292376804E+02  0.41800000000E+01 0. -1.
        -11    1    1    2    0    0  0.17457260867E+02 -0.34848838268E+02  0.37931438809E+01  0.39161019217E+02  0.00000000000E+00 0.  1.
         11    1    1    2    0    0 -0.55584337171E+02  0.20769104767E+02 -0.33187420586E+01  0.59430533401E+02  0.00000000000E+00 0. -1.
</event>
<event>
 7    1  0.2820496E-009  0.1422772E+03  0.7561462E-02  0.1210297E+00
         -4   -1    0    0    0  501 -0.00000000000E+00  0.00000000000E+00  0.10207516911E+03  0.10207516911E+03  0.00000000000E+00 0.  1.
          4   -1    0    0  501    0  0.00000000000E+00 -0.00000000000E+00 -0.25244661731E+03  0.25244661731E+03  0.00000000000E+00 0. -1.
         25    2    1    2    0    0 -0.86472587145E+02 -0.67292805751E+02 -0.12694215955E+03  0.20920393958E+03  0.12508455713E+03 0.  0.
          5    1    3    3  502    0  0.30478386817E+02 -0.29070784501E+02 -0.23545458472E+02  0.48434528894E+02  0.41800000000E+01 0.  1.
         -5    1    3    3    0  502 -0.11695097396E+03 -0.38222021250E+02 -0.10339670108E+03  0.16076941069E+03  0.41800000000E+01 0.  1.
        -11    1    1    2    0    0  0.59904066734E+01  0.29684889724E+02 -0.44680267409E+02  0.53975957108E+02  0.00000000000E+00 0. -1.
         11    1    1    2    0    0  0.80482180472E+02  0.37607916027E+02  0.21250978761E+02  0.91341889731E+02  0.00000000000E+00 0.  1.
</event>
<event>
 7    1  0.2820496E-009  0.1196547E+03  0.7561462E-02  0.1243668E+00
          4   -1    0    0  501    0  0.00000000000E+00  0.00000000000E+00  0.21405978017E+03  0.21405978017E+03  0.00000000000E+00 0. -1.
         -4   -1    0    0    0  501 -0.00000000000E+00 -0.00000000000E+00 -0.99854886039E+02  0.99854886039E+02  0.00000000000E+00 0.  1.
         25    2    1    2    0    0  0.95121818162E+02  0.10191453235E+02  0.71340525129E+02  0.17288631204E+03  0.12509268705E+03 0.  0.
          5    1    3    3  502    0  0.11399515329E+02 -0.18445746623E+02 -0.30663036057E+02  0.37787414551E+02  0.41800000000E+01 0.  1.
         -5    1    3    3    0  502  0.83722302833E+02  0.28637199858E+02  0.10200356119E+03  0.13509889749E+03  0.41800000000E+01 0.  1.
        -11    1    1    2    0    0 -0.49242847163E+02  0.37928745639E+02  0.41104664063E+02  0.74518730197E+02  0.00000000000E+00 0.  1.
         11    1    1    2    0    0 -0.45878970999E+02 -0.48120198875E+02  0.17597049392E+01  0.66509623974E+02  0.00000000000E+00 0. -1.
</event>
<event>
 7    1  0.2820496E-009  0.8162899E+02  0.7561462E-02  0.1324491E+00
         -2   -1    0    0    0  501 -0.00000000000E+00  0.00000000000E+00  0.83323016588E+02  0.83323016588E+02  0.00000000000E+00 0.  1.
          2   -1    0    0  501    0  0.00000000000E+00 -0.00000000000E+00 -0.20331933103E+03  0.20331933103E+03  0.00000000000E+00 0. -1.
         25    2    1    2    0    0  0.65049156172E+02  0.16297693258E+02 -0.91194781863E+02  0.16870771499E+03  0.12509515312E+03 0.  0.
          5    1    3    3  502    0  0.14166424536E+02  0.24208957511E+02 -0.11010019656E+03  0.11369382960E+03  0.41800000000E+01 0. -1.
         -5    1    3    3    0  502  0.50882731636E+02 -0.79112642529E+01  0.18905414695E+02  0.55013885389E+02  0.41800000000E+01 0. -1.
        -11    1    1    2    0    0 -0.16333382319E+02 -0.28649365921E+02  0.27156856758E+02  0.42720725821E+02  0.00000000000E+00 0.  1.
         11    1    1    2    0    0 -0.48715773853E+02  0.12351672663E+02 -0.55958389341E+02  0.75213906808E+02  0.00000000000E+00 0. -1.
</event>
<event>
 7    1  0.2820496E-009  0.1081324E+03  0.7561462E-02  0.1264068E+00
         -2   -1    0    0    0  501 -0.00000000000E+00  0.00000000000E+00  0.44938584859E+03  0.44938584859E+03  0.00000000000E+00 0.  1.
          2   -1    0    0  501    0  0.00000000000E+00 -0.00000000000E+00 -0.31681134175E+02  0.31681134175E+02  0.00000000000E+00 0. -1.
         25    2    1    2    0    0 -0.29312162324E+02 -0.63071887081E+00  0.33569909808E+03  0.35944916554E+03  0.12510082929E+03 0.  0.
          5    1    3    3  502    0  0.23434684801E+02 -0.49977658924E+02  0.12616911552E+03  0.13777905848E+03  0.41800000000E+01 0.  1.
         -5    1    3    3    0  502 -0.52746847125E+02  0.49346940053E+02  0.20952998256E+03  0.22167010707E+03  0.41800000000E+01 0.  1.
        -11    1    1    2    0    0 -0.17627977872E+02 -0.28354380257E+02  0.21368786487E+02  0.39640150347E+02  0.00000000000E+00 0. -1.
         11    1    1    2    0    0  0.46940140196E+02  0.28985099128E+02  0.60636829845E+02  0.81977666878E+02  0.00000000000E+00 0.  1.
</event>
<event>
 7    1  0.2820496E-009  0.9358054E+02  0.7561462E-02  0.1294405E+00
         -3   -1    0    0    0  501 -0.00000000000E+00  0.00000000000E+00  0.25261400912E+03  0.25261400912E+03  0.00000000000E+00 0.  1.
          3   -1    0    0  501    0  0.00000000000E+00 -0.00000000000E+00 -0.67401814002E+02  0.67401814002E+02  0.00000000000E+00 0. -1.
         25    2    1    2    0    0  0.37557853674E+01 -0.35210237963E+02  0.24493696381E+02  0.13229651020E+03  0.12509419918E+03 0.  0.
          5    1    3    3  502    0 -0.15501346338E+02 -0.61295267978E+02 -0.28937107012E+02  0.69657951283E+02  0.41800000000E+01 0. -1.
         -5    1    3    3    0  502  0.19257131706E+02  0.26085030015E+02  0.53430803392E+02  0.62638558920E+02  0.41800000000E+01 0. -1.
        -11    1    1    2    0    0  0.81676483793E+01 -0.26770776336E+02  0.83042795011E+02  0.87632703650E+02  0.00000000000E+00 0.  1.
         11    1    1    2    0    0 -0.11923433747E+02  0.61981014299E+02  0.77675703728E+02  0.10008660927E+03  0.00000000000E+00 0. -1.
</event>
<event>
 7    1  0.2820496E-009  0.2504359E+03  0.7561462E-02  0.1113030E+00
         -2   -1    0    0    0  501 -0.00000000000E+00  0.00000000000E+00  0.85631012085E+02  0.85631012085E+02  0.00000000000E+00 0.  1.
          2   -1    0    0  501    0  0.00000000000E+00 -0.00000000000E+00 -0.80292034453E+03  0.80292034453E+03  0.00000000000E+00 0. -1.
         25    2    1    2    0    0  0.22333174397E+03  0.79447617900E+02 -0.41611187251E+03  0.49495834429E+03  0.12508269378E+03 0.  0.
          5    1    3    3  502    0  0.24275503608E+02 -0.24770654603E+02 -0.10862011380E+03  0.11409946068E+03  0.41800000000E+01 0. -1.
         -5    1    3    3    0  502  0.19905624036E+03  0.10421827250E+03 -0.30749175871E+03  0.38085888361E+03  0.41800000000E+01 0. -1.
        -11    1    1    2    0    0 -0.19669944635E+03 -0.53083439307E+02 -0.19915484596E+03  0.28490555697E+03  0.00000000000E+00 0.  1.
         11    1    1    2    0    0 -0.26632297621E+02 -0.26364178593E+02 -0.10202261398E+03  0.10868745536E+03  0.00000000000E+00 0. -1.
</event>
<event>
 7    1  0.2820496E-009  0.2070875E+03  0.7561462E-02  0.1143893E+00
          2   -1    0    0  501    0  0.00000000000E+00  0.00000000000E+00  0.33361999193E+03  0.33361999193E+03  0.00000000000E+00 0. -1.
         -2   -1    0    0    0  501 -0.00000000000E+00 -0.00000000000E+00 -0.14321147488E+03  0.14321147488E+03  0.00000000000E+00 0.  1.
         25    2    1    2    0    0 -0.18909062855E+03 -0.50084472395E+01  0.10023023181E+03  0.24793979726E+03  0.12509074045E+03 0.  0.
          5    1    3    3  502    0 -0.85704529596E+02 -0.52647098801E+02  0.87386755549E+02  0.13330754236E+03  0.41800000000E+01 0. -1.
         -5    1    3    3    0  502 -0.10338609896E+03  0.47638651562E+02  0.12843476259E+02  0.11463225490E+03  0.41800000000E+01 0. -1.
        -11    1    1    2    0    0  0.15649979717E+02  0.20127766682E+02  0.40477503887E+02  0.47838030662E+02  0.00000000000E+00 0. -1.
         11    1    1    2    0    0  0.17344064883E+03 -0.15119319442E+02  0.49700781349E+02  0.18105363889E+03  0.00000000000E+00 0.  1.
</event>
<event>
 7    1  0.2820496E-009  0.1118290E+03  0.7561462E-02  0.1257220E+00
         -1   -1    0    0    0  501 -0.00000000000E+00  0.00000000000E+00  0.93656133017E+02  0.93656133017E+02  0.00000000000E+00 0.  1.
          1   -1    0    0  501    0  0.00000000000E+00 -0.00000000000E+00 -0.24091670584E+03  0.24091670584E+03  0.00000000000E+00 0. -1.
         25    2    1    2    0    0  0.70793405214E+02  0.53197751201E+02 -0.17671837589E+02  0.15427618842E+03  0.12508853471E+03 0.  0.
          5    1    3    3  502    0 -0.64454193123E+01 -0.20364549285E+01 -0.52462442795E+02  0.53061010948E+02  0.41800000000E+01 0. -1.
         -5    1    3    3    0  502  0.77238824526E+02  0.55234206130E+02  0.34790605206E+02  0.10121517748E+03  0.41800000000E+01 0. -1.
        -11    1    1    2    0    0  0.12844778706E+02 -0.31850328485E+02 -0.16700496660E+02  0.38188196518E+02  0.00000000000E+00 0.  1.
         11    1    1    2    0    0 -0.83638183920E+02 -0.21347422716E+02 -0.11288823857E+03  0.14210845392E+03  0.00000000000E+00 0. -1.
</event>
<event>
 7    1  0.2820496E-009  0.3131520E+03  0.7561462E-02  0.1078845E+00
          2   -1    0    0  501    0  0.00000000000E+00  0.00000000000E+00  0.33219431109E+04  0.33219431109E+04  0.00000000000E+00 0. -1.
         -2   -1    0    0    0  501 -0.00000000000E+00 -0.00000000000E+00 -0.34251338746E+02  0.34251338746E+02  0.00000000000E+00 0.  1.
         25    2    1    2    0    0 -0.23879911597E+03  0.19922160662E+03  0.20426598008E+04  0.20699808268E+04  0.12508914970E+03 0.  0.
          5    1    3    3  502    0 -0.31675330932E+02  0.26542316823E+02  0.65744764116E+03  0.65875844924E+03  0.41800000000E+01 0. -1.
         -5    1    3    3    0  502 -0.20712378504E+03  0.17267928980E+03  0.13852121596E+04  0.14112223776E+04  0.41800000000E+01 0. -1.
        -11    1    1    2    0    0  0.11969998667E+03 -0.13247811426E+03  0.56233725934E+03  0.59000146679E+03  0.00000000000E+00 0. -1.
         11    1    1    2    0    0  0.11909912930E+03 -0.66743492368E+02  0.68269471206E+03  0.69621215606E+03  0.00000000000E+00 0.  1.
</event>
<event>
 7    1  0.2820496E-009  0.1095489E+03  0.7561462E-02  0.1261408E+00
         -1   -1    0    0    0  501 -0.00000000000E+00  0.00000000000E+00  0.22054108581E+03  0.22054108581E+03  0.00000000000E+00 0.  1.
          1   -1    0    0  501    0  0.00000000000E+00 -0.00000000000E+00 -0.72454162704E+02  0.72454162704E+02  0.00000000000E+00 0. -1.
         25    2    1    2    0    0 -0.33636882192E+02 -0.49066788299E+01  0.14846089523E+02  0.13047292593E+03  0.12508901905E+03 0.  0.
          5    1    3    3  502    0  0.44668668774E+02  0.11692633802E+02 -0.81753034422E+01  0.47077761647E+02  0.41800000000E+01 0.  1.
         -5    1    3    3    0  502 -0.78305550966E+02 -0.16599312632E+02  0.23021392965E+02  0.83395164285E+02  0.41800000000E+01 0.  1.
        -11    1    1    2    0    0 -0.28969887327E+02 -0.43450771506E+01  0.34733479051E+02  0.45437304433E+02  0.00000000000E+00 0. -1.
         11    1    1    2    0    0  0.62606769519E+02  0.92517559805E+01  0.98507354534E+02  0.11708501815E+03  0.00000000000E+00 0.  1.
</event>
<event>
 7    1  0.2820496E-009  0.1007181E+03  0.7561462E-02  0.1278793E+00
          3   -1    0    0  501    0  0.00000000000E+00  0.00000000000E+00  0.56594228685E+02  0.56594228685E+02  0.00000000000E+00 0. -1.
         -3   -1    0    0    0  501 -0.00000000000E+00 -0.00000000000E+00 -0.32019373116E+03  0.32019373116E+03  0.00000000000E+00 0.  1.
         25    2    1    2    0    0  0.43708998189E+02  0.53613715524E+02 -0.90484381684E+02  0.16917693740E+03  0.12509398788E+03 0.  0.
          5    1    3    3  502    0 -0.43347217909E+01 -0.29302736266E+02  0.87429629154E+01  0.31166519957E+02  0.41800000000E+01 0.  1.
         -5    1    3    3    0  502  0.48043719980E+02  0.82916451790E+02 -0.99227344600E+02  0.13801041744E+03  0.41800000000E+01 0.  1.
        -11    1    1    2    0    0 -0.37941615572E+02 -0.22829164100E+02 -0.17052909069E+03  0.17618430037E+03  0.00000000000E+00 0.  1.
         11    1    1    2    0    0 -0.57673826174E+01 -0.30784551423E+02 -0.25860301029E+01  0.31426722073E+02  0.00000000000E+00 0. -1.
</event>
<event>
 7    1  0.2820496E-009  0.1094635E+03  0.7561462E-02  0.1261567E+00
         -4   -1    0    0    0  501 -0.00000000000E+00  0.00000000000E+00  0.52232887595E+03  0.52232887595E+03  0.00000000000E+00 0.  1.
          4   -1    0    0  501    0  0.00000000000E+00 -0.00000000000E+00 -0.30850980755E+02  0.30850980755E+02  0.00000000000E+00 0. -1.
         25    2    1    2    0    0  0.21690801233E+02 -0.61639917928E+02  0.29153464130E+03  0.32389842785E+03  0.12509106342E+03 0.  0.
          5    1    3    3  502    0  0.72271042405E+02 -0.51007737515E+02  0.19924479960E+03  0.21803865581E+03  0.41800000000E+01 0.  1.
         -5    1    3    3    0  502 -0.50580241172E+02 -0.10632180412E+02  0.92289841695E+02  0.10585977204E+03  0.41800000000E+01 0.  1.
        -11    1    1    2    0    0 -0.30113877027E+01  0.59654907841E+02  0.20175358946E+03  0.21040980810E+03  0.00000000000E+00 0.  1.
         11    1    1    2    0    0 -0.18679413530E+02  0.19850100864E+01 -0.18103355661E+01  0.18871620750E+02  0.00000000000E+00 0. -1.
</event>
<event>
 7    1  0.2820496E-009  0.1101368E+03  0.7561462E-02  0.1260317E+00
          2   -1    0    0  501    0  0.00000000000E+00  0.00000000000E+00  0.16659433593E+02  0.16659433593E+02  0.00000000000E+00 0. -1.
         -2   -1    0    0    0  501 -0.00000000000E+00 -0.00000000000E+00 -0.88315302681E+03  0.88315302681E+03  0.00000000000E+00 0.  1.
         25    2    1    2    0    0  0.40810425539E+02  0.30648141654E+02 -0.41952609135E+03  0.44074311321E+03  0.12509017188E+03 0.  0.
          5    1    3    3  502    0  0.31862437878E+02 -0.37172895242E+02 -0.76388592777E+02  0.90828016573E+02  0.41800000000E+01 0. -1.
         -5    1    3    3    0  502  0.89479876604E+01  0.67821036896E+02 -0.34313749857E+03  0.34991509664E+03  0.41800000000E+01 0. -1.
        -11    1    1    2    0    0  0.22064743663E+02 -0.32980937914E+02 -0.21962443698E+03  0.22318039452E+03  0.00000000000E+00 0.  1.
         11    1    1    2    0    0 -0.62875169202E+02  0.23327962603E+01 -0.22734306489E+03  0.23588895267E+03  0.00000000000E+00 0. -1.
</event>
<event>
 7    1  0.2820496E-009  0.1578867E+03  0.7561462E-02  0.1191103E+00
         -1   -1    0    0    0  501 -0.00000000000E+00  0.00000000000E+00  0.24164935614E+02  0.24164935614E+02  0.00000000000E+00 0.  1.
          1   -1    0    0  501    0  0.00000000000E+00 -0.00000000000E+00 -0.10736092002E+04  0.10736092002E+04  0.00000000000E+00 0. -1.
         25    2    1    2    0    0  0.11385877040E+03  0.35719197702E+02 -0.50355035580E+03  0.53240314380E+03  0.12510182263E+03 0.  0.
          5    1    3    3  502    0 -0.22243312368E+02 -0.12076739596E+02 -0.11734906315E+03  0.12012030473E+03  0.41800000000E+01 0. -1.
         -5    1    3    3    0  502  0.13610208277E+03  0.47795937297E+02 -0.38620129264E+03  0.41228283908E+03  0.41800000000E+01 0. -1.
        -11    1    1    2    0    0  0.88852334370E+00 -0.30950033152E+02 -0.87777988930E+02  0.93078834149E+02  0.00000000000E+00 0. -1.
         11    1    1    2    0    0 -0.11474729375E+03 -0.47691645495E+01 -0.45811591989E+03  0.47229215790E+03  0.00000000000E+00 0.  1.
</event>
<event>
 7    1  0.2820496E-009  0.2409919E+03  0.7561462E-02  0.1119134E+00
          1   -1    0    0  501    0  0.00000000000E+00  0.00000000000E+00  0.25616665239E+03  0.25616665239E+03  0.00000000000E+00 0. -1.
         -1   -1    0    0    0  501 -0.00000000000E+00 -0.00000000000E+00 -0.28421828404E+03  0.28421828404E+03  0.00000000000E+00 0.  1.
         25    2    1    2    0    0  0.46052645988E+02 -0.21973226084E+03 -0.11457004008E+03  0.28138312008E+03  0.12508818300E+03 0.  0.
          5    1    3    3  502    0 -0.24186878308E+02 -0.14565551867E+02 -0.45578456744E+02  0.53777583645E+02  0.41800000000E+01 0. -1.
         -5    1    3    3    0  502  0.70239524297E+02 -0.20516670898E+03 -0.68991583340E+02  0.22760553644E+03  0.41800000000E+01 0. -1.
        -11    1    1    2    0    0  0.19724000848E+02  0.75291471750E+02  0.59581795314E+02  0.98019550400E+02  0.00000000000E+00 0.  1.
         11    1    1    2    0    0 -0.65776646836E+02  0.14444078909E+03  0.26936613113E+02  0.16098226595E+03  0.00000000000E+00 0. -1.
</event>
<event>
 7    1  0.2820496E-009  0.3182173E+03  0.7561462E-02  0.1076473E+00
         -2   -1    0    0    0  501 -0.00000000000E+00  0.00000000000E+00  0.22731898045E+03  0.22731898045E+03  0.00000000000E+00 0.  1.
          2   -1    0    0  501    0  0.00000000000E+00 -0.00000000000E+00 -0.45911586694E+03  0.45911586694E+03  0.00000000000E+00 0. -1.
         25    2    1    2    0    0  0.23697451127E+03 -0.18381085660E+03 -0.63684517339E+02  0.33115149579E+03  0.12514889300E+03 0.  0.
          5    1    3    3  502    0  0.41633023607E+02 -0.10621465799E+03 -0.12997692042E+02  0.11489679989E+03  0.41800000000E+01 0. -1.
         -5    1    3    3    0  502  0.19534148766E+03 -0.77596198616E+02 -0.50686825297E+02  0.21625469591E+03  0.41800000000E+01 0. -1.
        -11    1    1    2    0    0 -0.45183851427E+01 -0.89746298069E+01 -0.10869416339E+02  0.14802161870E+02  0.00000000000E+00 0. -1.
         11    1    1    2    0    0 -0.23245612613E+03  0.19278548641E+03 -0.15724295282E+03  0.34048118972E+03  0.00000000000E+00 0.  1.
</event>
<event>
 7    1  0.2820496E-009  0.1076966E+03  0.7561462E-02  0.1264896E+00
          2   -1    0    0  501    0  0.00000000000E+00  0.00000000000E+00  0.28004644946E+03  0.28004644946E+03  0.00000000000E+00 0. -1.
         -2   -1    0    0    0  501 -0.00000000000E+00 -0.00000000000E+00 -0.58930111862E+02  0.58930111862E+02  0.00000000000E+00 0.  1.
         25    2    1    2    0    0  0.50793284781E+02  0.45277287893E+02  0.10911356889E+03  0.17939922103E+03  0.12509324128E+03 0.  0.
          5    1    3    3  502    0  0.80541489685E+02  0.66995940409E+02  0.73923986182E+02  0.12828723914E+03  0.41800000000E+01 0. -1.
         -5    1    3    3    0  502 -0.29748204904E+02 -0.21718652516E+02  0.35189582704E+02  0.51111981893E+02  0.41800000000E+01 0. -1.
        -11    1    1    2    0    0 -0.33768438483E+02 -0.11536852528E+02 -0.55365270022E+01  0.36111764497E+02  0.00000000000E+00 0.  1.
         11    1    1    2    0    0 -0.17024846298E+02 -0.33740435366E+02  0.11753929571E+03  0.12346557580E+03  0.00000000000E+00 0. -1.
</event>
<event>
 7    1  0.2820496E-009  0.6240315E+02  0.7561462E-02  0.1388015E+00
          2   -1    0    0  501    0  0.00000000000E+00  0.00000000000E+00  0.79503439413E+02  0.79503439413E+02  0.00000000000E+00 0. -1.
         -2   -1    0    0    0  501 -0.00000000000E+00 -0.00000000000E+00 -0.17535458719E+03  0.17535458719E+03  0.00000000000E+00 0.  1.
         25    2    1    2    0    0  0.25147984061E+02  0.19908519188E+02 -0.34024726510E+02  0.13354500403E+03  0.12509123010E+03 0.  0.
          5    1    3    3  502    0 -0.50506794914E+01  0.53078732774E+01 -0.77789838548E+02  0.78245857803E+02  0.41800000000E+01 0. -1.
         -5    1    3    3    0  502  0.30198663552E+02  0.14600645911E+02  0.43765112037E+02  0.55299146223E+02  0.41800000000E+01 0. -1.
        -11    1    1    2    0    0 -0.40304670852E+02  0.16176297889E+02 -0.68992536306E+02  0.81523672463E+02  0.00000000000E+00 0.  1.
         11    1    1    2    0    0  0.15156686791E+02 -0.36084817077E+02  0.71661150378E+01  0.39789350116E+02  0.00000000000E+00 0. -1.
</event>
<event>
 7    1  0.2820496E-009  0.1129610E+03  0.7561462E-02  0.1255183E+00
          2   -1    0    0  501    0  0.00000000000E+00  0.00000000000E+00  0.56213352232E+03  0.56213352232E+03  0.00000000000E+00 0. -1.
         -2   -1    0    0    0  501 -0.00000000000E+00 -0.00000000000E+00 -0.32985439519E+02  0.32985439519E+02  0.00000000000E+00 0.  1.
         25    2    1    2    0    0 -0.73581675469E+02  0.67600948769E+01  0.36713507953E+03  0.39483554851E+03  0.12508789668E+03 0.  0.
          5    1    3    3  502    0 -0.23497773782E+02 -0.56607242067E+02  0.12013606125E+03  0.13493209714E+03  0.41800000000E+01 0.  1.
         -5    1    3    3    0  502 -0.50083901688E+02  0.63367336944E+02  0.24699901828E+03  0.25990345137E+03  0.41800000000E+01 0.  1.
        -11    1    1    2    0    0  0.56952579718E+02  0.12352554913E+02  0.16479608887E+03  0.17479683308E+03  0.00000000000E+00 0. -1.
         11    1    1    2    0    0  0.16629095751E+02 -0.19112649790E+02 -0.27830855926E+01  0.25486580252E+02  0.00000000000E+00 0.  1.
</event>
<event>
 6    1  0.2820496E-009  0.3827200E+03  0.7561462E-02  0.1049933E+00
         -1   -1    0    0    0  501 -0.00000000000E+00  0.00000000000E+00  0.19558871999E+03  0.19558871999E+03  0.00000000000E+00 0.  1.
          1   -1    0    0  501    0  0.00000000000E+00 -0.00000000000E+00 -0.14033488175E+04  0.14033488175E+04  0.00000000000E+00 0. -1.
          5    1    1    2  502    0  0.50296030743E+02  0.31204144724E+03 -0.11397321029E+03  0.33601625046E+03  0.41800000000E+01 0. -1.
         -5    1    1    2    0  502  0.33755835171E+02  0.59433219217E+02  0.28583105216E+02  0.74203977376E+02  0.41800000000E+01 0. -1.
        -11    1    1    2    0    0 -0.55890590277E+02 -0.24833214524E+03 -0.60944747699E+03  0.66046865153E+03  0.00000000000E+00 0.  1.
         11    1    1    2    0    0 -0.28161275636E+02 -0.12314252122E+03 -0.51292251545E+03  0.52824865815E+03  0.00000000000E+00 0. -1.
</event>
<event>
 7    1  0.2820496E-009  0.1004986E+03  0.7561462E-02  0.1279251E+00
         -1   -1    0    0    0  501 -0.00000000000E+00  0.00000000000E+00  0.17688133497E+03  0.17688133497E+03  0.00000000000E+00 0.  1.
          1   -1    0    0  501    0  0.00000000000E+00 -0.00000000000E+00 -0.95270885730E+02  0.95270885730E+02  0.00000000000E+00 0. -1.
         25    2    1    2    0    0  0.31303850546E+02  0.61075720109E+02  0.23272345433E+02  0.14456665656E+03  0.12509093285E+03 0.  0.
          5    1    3    3  502    0  0.35620321024E+02  0.92999839251E+02  0.40743940202E+02  0.10768156032E+03  0.41800000000E+01 0. -1.
         -5    1    3    3    0  502 -0.43164704776E+01 -0.31924119143E+02 -0.17471594769E+02  0.36885096234E+02  0.41800000000E+01 0. -1.
        -11    1    1    2    0    0 -0.22955169734E+02 -0.39264640096E+02  0.82358797265E+02  0.94083065779E+02  0.00000000000E+00 0.  1.
         11    1    1    2    0    0 -0.83486808125E+01 -0.21811080012E+02 -0.24020693456E+02  0.33502498365E+02  0.00000000000E+00 0. -1.
</event>
<event>
 7    1  0.2820496E-009  0.8860902E+02  0.7561462E-02  0.1306256E+00
          3   -1    0    0  501    0  0.00000000000E+00  0.00000000000E+00  0.61748745925E+03  0.61748745925E+03  0.00000000000E+00 0. -1.
         -3   -1    0    0    0  501 -0.00000000000E+00 -0.00000000000E+00 -0.27299953241E+02  0.27299953241E+02  0.00000000000E+00 0.  1.
         25    2    1    2    0    0 -0.16842860786E+02 -0.43183245085E+02  0.19731416854E+03  0.23817824454E+03  0.12509004937E+03 0.  0.
          5    1    3    3  502    0 -0.37371146406E+02 -0.27969455471E+02  0.20569366627E+03  0.21096504394E+03  0.41800000000E+01 0. -1.
         -5    1    3    3    0  502  0.20528285620E+02 -0.15213789614E+02 -0.83794977239E+01  0.27213200602E+02  0.41800000000E+01 0. -1.
        -11    1    1    2    0    0  0.54717266651E+02  0.13544334944E+02  0.22800230567E+03  0.23486694035E+03  0.00000000000E+00 0. -1.
         11    1    1    2    0    0 -0.37874405865E+02  0.29638910141E+02  0.16487103180E+03  0.17174222760E+03  0.00000000000E+00 0.  1.
</event>
<event>
 7    1  0.2820496E-009  0.1470892E+03  0.7561462E-02  0.1204096E+00
          1   -1    0    0  501    0  0.00000000000E+00  0.00000000000E+00  0.31484848994E+02  0.31484848994E+02  0.00000000000E+00 0. -1.
         -1   -1    0    0    0  501 -0.00000000000E+00 -0.00000000000E+00 -0.99911221521E+03  0.99911221521E+03  0.00000000000E+00 0.  1.
         25    2    1    2    0    0 -0.10115790201E+01 -0.12264158151E+03 -0.80929979779E+03  0.82804262661E+03  0.12508576250E+03 0.  0.
          5    1    3    3  502    0 -0.29374352671E+02  0.11666614857E+02 -0.83818791198E+02  0.89677336351E+02  0.41800000000E+01 0.  1.
         -5    1    3    3    0  502  0.28362773651E+02 -0.13430819637E+03 -0.72548100659E+03  0.73836529026E+03  0.41800000000E+01 0.  1.
        -11    1    1    2    0    0  0.80432815571E+01  0.14407401169E+02 -0.32374192878E+02  0.36336702535E+02  0.00000000000E+00 0.  1.
         11    1    1    2    0    0 -0.70317025370E+01  0.10823418034E+03 -0.12595337555E+03  0.16621773506E+03  0.00000000000E+00 0. -1.
</event>
<event>
 7    1  0.2820496E-009  0.8376285E+02  0.7561462E-02  0.1318700E+00
         -1   -1    0    0    0  501 -0.00000000000E+00  0.00000000000E+00  0.80293371321E+02  0.80293371321E+02  0.00000000000E+00 0.  1.
          1   -1    0    0  501    0  0.00000000000E+00 -0.00000000000E+00 -0.19664173532E+03  0.19664173532E+03  0.00000000000E+00 0. -1.
         25    2    1    2    0    0 -0.39613167019E+02  0.27990038093E+02 -0.10713236435E+03  0.17168965937E+03  0.12508936969E+03 0.  0.
          5    1    3    3  502    0 -0.59385363751E+02  0.51964118434E+02 -0.11483989379E+03  0.13940073399E+03  0.41800000000E+01 0.  1.
         -5    1    3    3    0  502  0.19772196732E+02 -0.23974080340E+02  0.77075294381E+01  0.32288925374E+02  0.41800000000E+01 0.  1.
        -11    1    1    2    0    0  0.16710294480E+02  0.45854278854E+01 -0.47159196221E+02  0.50241913566E+02  0.00000000000E+00 0. -1.
         11    1    1    2    0    0  0.22902872539E+02 -0.32575465979E+02  0.37943196573E+02  0.55003533709E+02  0.00000000000E+00 0.  1.
</event>
<event>
 7    1  0.2820496E-009  0.8878691E+02  0.7561462E-02  0.1305816E+00
          1   -1    0    0  501    0  0.00000000000E+00  0.00000000000E+00  0.13593656870E+03  0.13593656870E+03  0.00000000000E+00 0. -1.
         -1   -1    0    0    0  501 -0.00000000000E+00 -0.00000000000E+00 -0.98732513869E+02  0.98732513869E+02  0.00000000000E+00 0.  1.
         25    2    1    2    0    0 -0.82470573070E+01 -0.29420184493E+02 -0.94818463046E+01  0.12911738414E+03  0.12509129573E+03 0.  0.
          5    1    3    3  502    0  0.12831689158E+02  0.31224312255E+02  0.36608643213E+02  0.49972743374E+02  0.41800000000E+01 0. -1.
         -5    1    3    3    0  502 -0.21078746465E+02 -0.60644496747E+02 -0.46090489517E+02  0.79144640768E+02  0.41800000000E+01 0. -1.
        -11    1    1    2    0    0 -0.31618204904E+02  0.22378138652E+02 -0.59056476604E+01  0.39183780384E+02  0.00000000000E+00 0.  1.
         11    1    1    2    0    0  0.39865262211E+02  0.70420458409E+01  0.52591548791E+02  0.66367918040E+02  0.00000000000E+00 0. -1.
</event>
<event>
 7    1  0.2820496E-009  0.1681295E+03  0.7561462E-02  0.1179813E+00
          4   -1    0    0  501    0  0.00000000000E+00  0.00000000000E+00  0.67325927081E+02  0.67325927081E+02  0.00000000000E+00 0. -1.
         -4   -1    0    0    0  501 -0.00000000000E+00 -0.00000000000E+00 -0.49852930703E+03  0.49852930703E+03  0.00000000000E+00 0.  1.
         25    2    1    2    0    0 -0.64509868086E+02 -0.12831116235E+03 -0.17727238645E+03  0.26018776020E+03  0.12508754574E+03 0.  0.
          5    1    3    3  502    0 -0.62313434568E+02 -0.45680254277E+01 -0.85858377851E+02  0.10626836044E+03  0.41800000000E+01 0. -1.
         -5    1    3    3    0  502 -0.21964335185E+01 -0.12374313692E+03 -0.91414008596E+02  0.15391939976E+03  0.41800000000E+01 0. -1.
        -11    1    1    2    0    0  0.59049894473E+02  0.71495418390E+02 -0.79522854616E+02  0.12215714999E+03  0.00000000000E+00 0. -1.
         11    1    1    2    0    0  0.54599736137E+01  0.56815743959E+02 -0.17440813889E+03  0.18351032392E+03  0.00000000000E+00 0.  1.
</event>
<event>
 7    1  0.2820496E-009  0.1011672E+03  0.7561462E-02  0.1277860E+00
         -4   -1    0    0    0  501 -0.00000000000E+00  0.00000000000E+00  0.16361711623E+03  0.16361711623E+03  0.00000000000E+00 0.  1.
          4   -1    0    0  501    0  0.00000000000E+00 -0.00000000000E+00 -0.74053061482E+02  0.74053061482E+02  0.00000000000E+00 0. -1.
         25    2    1    2    0    0 -0.25587893912E+01 -0.27497913243E+02  0.47050239924E+02  0.13647248399E+03  0.12509328989E+03 0.  0.
          5    1    3    3  502    0 -0.10990799477E+01  0.47524103859E+02  0.37548629814E+02  0.60721663558E+02  0.41800000000E+01 0. -1.
         -5    1    3    3    0  502 -0.14597094435E+01 -0.75022017103E+02  0.95016101099E+01  0.75750820434E+02  0.41800000000E+01 0. -1.
        -11    1    1    2    0    0 -0.33811679764E+02 -0.90130206451E-01  0.44039649445E+02  0.55522324656E+02  0.00000000000E+00 0.  1.
         11    1    1    2    0    0  0.36370469155E+02  0.27588043450E+02 -0.15258346194E+01  0.45675369065E+02  0.00000000000E+00 0. -1.
</event>
<event>
 7    1  0.2820496E-009  0.1128957E+03  0.7561462E-02  0.1255300E+00
         -2   -1    0    0    0  501 -0.00000000000E+00  0.00000000000E+00  0.10585650585E+02  0.10585650585E+02  0.00000000000E+00 0.  1.
          2   -1    0    0  501    0  0.00000000000E+00 -0.00000000000E+00 -0.18146859861E+04  0.18146859861E+04  0.00000000000E+00 0. -1.
         25    2    1    2    0    0  0.26720475390E+02  0.71967968144E+02 -0.13319393641E+04  0.13400005785E+04  0.12508280619E+03 0.  0.
          5    1    3    3  502    0  0.38158212676E+02  0.87044481564E+02 -0.57526839108E+03  0.58308145670E+03  0.41800000000E+01 0.  1.
         -5    1    3    3    0  502 -0.11437737285E+02 -0.15076513420E+02 -0.75667097300E+03  0.75691912176E+03  0.41800000000E+01 0.  1.
        -11    1    1    2    0    0 -0.20974344820E+02 -0.89969437151E+02 -0.41114368799E+03  0.42139477327E+03  0.00000000000E+00 0.  1.
         11    1    1    2    0    0 -0.57461305708E+01  0.18001469007E+02 -0.61017283440E+02  0.63876284968E+02  0.00000000000E+00 0. -1.
</event>
<event>
 7    1  0.2820496E-009  0.7076592E+02  0.7561462E-02  0.1357508E+00
         -2   -1    0    0    0  501 -0.00000000000E+00  0.00000000000E+00  0.12870765687E+03  0.12870765687E+03  0.00000000000E+00 0. -1.
          2   -1    0    0  501    0  0.00000000000E+00 -0.00000000000E+00 -0.11229399727E+03  0.11229399727E+03  0.00000000000E+00 0.  1.
         25    2    1    2    0    0  0.26523284498E+01 -0.13110263554E+02  0.56153385828E+02  0.13776696662E+03  0.12509044926E+03 0.  0.
          5    1    3    3  502    0  0.31303881185E+02 -0.36675717360E+02 -0.20456438111E+02  0.52545023373E+02  0.41800000000E+01 0.  1.
         -5    1    3    3    0  502 -0.28651552735E+02  0.23565453806E+02  0.76609823939E+02  0.85221943249E+02  0.41800000000E+01 0.  1.
        -11    1    1    2    0    0 -0.28262887899E+02  0.10098254792E+02 -0.62184155980E+02  0.69048061792E+02  0.00000000000E+00 0.  1.
         11    1    1    2    0    0  0.25610559449E+02  0.30120087614E+01  0.22444429748E+02  0.34186625730E+02  0.00000000000E+00 0. -1.
</event>
<event>
 7    1  0.2820496E-009  0.1048203E+03  0.7561462E-02  0.1270474E+00
          3   -1    0    0  501    0  0.00000000000E+00  0.00000000000E+00  0.23544250540E+02  0.23544250540E+02  0.00000000000E+00 0. -1.
         -3   -1    0    0    0  501 -0.00000000000E+00 -0.00000000000E+00 -0.58371125017E+03  0.58371125017E+03  0.00000000000E+00 0.  1.
         25    2    1    2    0    0 -0.17630023563E+02 -0.26878048428E+01 -0.21166673317E+03  0.24650917671E+03  0.12508367697E+03 0.  0.
          5    1    3    3  502    0  0.25939595703E+02  0.49489792861E+02 -0.73041747760E+02  0.92057979222E+02  0.41800000000E+01 0.  1.
         -5    1    3    3    0  502 -0.43569619266E+02 -0.52177597704E+02 -0.13862498541E+03  0.15445119749E+03  0.41800000000E+01 0.  1.
        -11    1    1    2    0    0  0.13259337291E+02  0.42978103663E+02 -0.11020909360E+03  0.11903348996E+03  0.00000000000E+00 0.  1.
         11    1    1    2    0    0  0.43706862722E+01 -0.40290298821E+02 -0.23829117286E+03  0.24171283404E+03  0.00000000000E+00 0. -1.
</event>
<event>
 7    1  0.2820496E-009  0.1075887E+03  0.7561462E-02  0.1265101E+00
         -2   -1    0    0    0  501 -0.00000000000E+00  0.00000000000E+00  0.12306120059E+02  0.12306120059E+02  0.00000000000E+00 0. -1.
          2   -1    0    0  501    0  0.00000000000E+00 -0.00000000000E+00 -0.11926302396E+04  0.11926302396E+04  0.00000000000E+00 0.  1.
         25    2    1    2    0    0  0.53464200796E+02 -0.17326785923E+02 -0.66236896620E+03  0.67641633498E+03  0.12509105706E+03 0.  0.
          5    1    3    3  502    0  0.46729008590E+02  0.34098696029E+02 -0.54441449513E+03  0.54749514721E+03  0.41800000000E+01 0.  1.
         -5    1    3    3    0  502  0.67351922064E+01 -0.51425481952E+02 -0.11795447107E+03  0.12892118776E+03  0.41800000000E+01 0.  1.
        -11    1    1    2    0    0 -0.44538543395E+02  0.52506474994E+02 -0.33994235928E+03  0.34684495008E+03  0.00000000000E+00 0.  1.
         11    1    1    2    0    0 -0.89256574014E+01 -0.35179689071E+02 -0.17801279406E+03  0.18167507460E+03  0.00000000000E+00 0. -1.
</event>
<event>
 7    1  0.2820496E-009  0.9322547E+02  0.7561462E-02  0.1295224E+00
          1   -1    0    0  501    0  0.00000000000E+00  0.00000000000E+00  0.16609072082E+03  0.16609072082E+03  0.00000000000E+00 0. -1.
         -1   -1    0    0    0  501 -0.00000000000E+00 -0.00000000000E+00 -0.99981676128E+02  0.99981676128E+02  0.00000000000E+00 0.  1.
         25    2    1    2    0    0 -0.36962965133E+02 -0.53450015535E+02  0.16410414626E+02  0.14191383285E+03  0.12508824603E+03 0.  0.
          5    1    3    3  502    0  0.34187039413E+02 -0.31013214591E+02 -0.28813124630E+02  0.54573269043E+02  0.41800000000E+01 0. -1.
         -5    1    3    3    0  502 -0.71150004547E+02 -0.22436800944E+02  0.45223539256E+02  0.87340563809E+02  0.41800000000E+01 0. -1.
        -11    1    1    2    0    0  0.74825767912E+01  0.16471286565E+02  0.70288148844E+02  0.72579033504E+02  0.00000000000E+00 0. -1.
         11    1    1    2    0    0  0.29480388342E+02  0.36978728970E+02 -0.20589518774E+02  0.51579530595E+02  0.00000000000E+00 0.  1.
</event>
<event>
 7    1  0.2820496E-009  0.1161511E+03  0.7561462E-02  0.1249585E+00
         -2   -1    0    0    0  501 -0.00000000000E+00  0.00000000000E+00  0.14174736954E+02  0.14174736954E+02  0.00000000000E+00 0.  1.
          2   -1    0    0  501    0  0.00000000000E+00 -0.00000000000E+00 -0.15087726477E+04  0.15087726477E+04  0.00000000000E+00 0. -1.
         25    2    1    2    0    0  0.37090815124E+02  0.88571824267E+02 -0.91645694755E+03  0.92992564095E+03  0.12509062459E+03 0.  0.
          5    1    3    3  502    0  0.31057822918E+02  0.21155020189E+02 -0.73877832283E+03  0.73974523042E+03  0.41800000000E+01 0. -1.
         -5    1    3    3    0  502  0.60329922061E+01  0.67416804078E+02 -0.17767862473E+03  0.19018041053E+03  0.41800000000E+01 0. -1.
        -11    1    1    2    0    0  0.26641734353E+02 -0.29940978068E+02 -0.11321707322E+03  0.12010141483E+03  0.00000000000E+00 0.  1.
         11    1    1    2    0    0 -0.63732549477E+02 -0.58630846199E+02 -0.46492389003E+03  0.47292032892E+03  0.00000000000E+00 0. -1.
</event>
<event>
 7    1  0.2820496E-009  0.1008055E+03  0.7561462E-02  0.1278611E+00
         -1   -1    0    0    0  501 -0.00000000000E+00  0.00000000000E+00  0.57094905473E+02  0.57094905473E+02  0.00000000000E+00 0.  1.
          1   -1    0    0  501    0  0.00000000000E+00 -0.00000000000E+00 -0.21723603406E+03  0.21723603406E+03  0.00000000000E+00 0. -1.
         25    2    1    2    0    0  0.14631660056E+02  0.69922282129E+02 -0.10699690817E+03  0.17943851560E+03  0.12508649611E+03 0.  0.
          5    1    3    3  502    0  0.25794607331E+02 -0.19626573386E+02  0.75630035420E+01  0.33544531191E+02  0.41800000000E+01 0. -1.
         -5    1    3    3    0  502 -0.11162947275E+02  0.89548855516E+02 -0.11455991171E+03  0.14589398441E+03  0.41800000000E+01 0. -1.
        -11    1    1    2    0    0  0.55872730195E+01 -0.49637647486E+02 -0.34881521021E+02  0.60924823975E+02  0.00000000000E+00 0.  1.
         11    1    1    2    0    0 -0.20218933076E+02 -0.20284634643E+02 -0.18262699395E+02  0.33967599952E+02  0.00000000000E+00 0. -1.
</event>
<event>
 7    1  0.2820496E-009  0.1008267E+03  0.7561462E-02  0.1278567E+00
          1   -1    0    0  501    0  0.00000000000E+00  0.00000000000E+00  0.20971835787E+03  0.20971835787E+03  0.00000000000E+00 0. -1.
         -1   -1    0    0    0  501 -0.00000000000E+00 -0.00000000000E+00 -0.61883151392E+02  0.61883151392E+02  0.00000000000E+00 0.  1.
         25    2    1    2    0    0  0.28190157700E+02 -0.10587699486E+02  0.97972782420E+02  0.16170952847E+03  0.12507806015E+03 0.  0.
          5    1    3    3  502    0 -0.22619537821E+02 -0.55722725494E+02  0.40718474386E+02  0.72747042442E+02  0.41800000000E+01 0.  1.
         -5    1    3    3    0  502  0.50809695521E+02  0.45135026009E+02  0.57254308034E+02  0.88962486028E+02  0.41800000000E+01 0.  1.
        -11    1    1    2    0    0 -0.48327695195E+01 -0.27869094302E+02  0.57662796246E+02  0.64226475454E+02  0.00000000000E+00 0. -1.
         11    1    1    2    0    0 -0.23357388180E+02  0.38456793787E+02 -0.78003721928E+01  0.45665505333E+02  0.00000000000E+00 0.  1.
</event>
<event>
 7    1  0.2820496E-009  0.1596273E+03  0.7561462E-02  0.1189118E+00
          3   -1    0    0  501    0  0.00000000000E+00  0.00000000000E+00  0.94475918928E+03  0.94475918928E+03  0.00000000000E+00 0. -1.
         -3   -1    0    0    0  501 -0.00000000000E+00 -0.00000000000E+00 -0.29293517207E+02  0.29293517207E+02  0.00000000000E+00 0.  1.
         25    2    1    2    0    0 -0.32163165542E+02 -0.11825141139E+03  0.41187109716E+03  0.44755254849E+03  0.12509043715E+03 0.  0.
          5    1    3    3  502    0 -0.18147472718E+02  0.24265120608E+02  0.53846326172E+02  0.61927587442E+02  0.41800000000E+01 0. -1.
         -5    1    3    3    0  502 -0.14015692824E+02 -0.14251653200E+03  0.35802477099E+03  0.38562496104E+03  0.41800000000E+01 0. -1.
        -11    1    1    2    0    0  0.54114882932E+02  0.49892226254E+02  0.16972428530E+03  0.18499726435E+03  0.00000000000E+00 0.  1.
         11    1    1    2    0    0 -0.21951717390E+02  0.68359185135E+02  0.33387028961E+03  0.34150289365E+03  0.00000000000E+00 0. -1.
</event>
<event>
 7    1  0.2820496E-009  0.1266420E+03  0.7561462E-02  0.1232525E+00
         -1   -1    0    0    0  501 -0.00000000000E+00  0.00000000000E+00  0.14318810054E+03  0.14318810054E+03  0.00000000000E+00 0.  1.
          1   -1    0    0  501    0  0.00000000000E+00 -0.00000000000E+00 -0.13943978692E+03  0.13943978692E+03  0.00000000000E+00 0. -1.
         25    2    1    2    0    0  0.79104763359E+01  0.85165827394E+02 -0.28671405062E+02  0.15422887344E+03  0.12509477265E+03 0.  0.
          5    1    3    3  502    0 -0.18826325601E+02  0.10072050813E+03 -0.52266027747E+02  0.11510109188E+03  0.41800000000E+01 0. -1.
         -5    1    3    3    0  502  0.26736801937E+02 -0.15554680740E+02  0.23594622685E+02  0.39127781567E+02  0.41800000000E+01 0. -1.
        -11    1    1    2    0    0  0.30348964380E+02 -0.50882248732E+01 -0.65665142471E+01  0.31465358422E+02  0.00000000000E+00 0. -1.
         11    1    1    2    0    0 -0.38259440716E+02 -0.80077602521E+02  0.38986232925E+02  0.96933655596E+02  0.00000000000E+00 0.  1.
</event>
<event>
 7    1  0.2820496E-009  0.9698815E+02  0.7561462E-02  0.1286760E+00
         -1   -1    0    0    0  501 -0.00000000000E+00  0.00000000000E+00  0.11850265874E+03  0.11850265874E+03  0.00000000000E+00 0.  1.
          1   -1    0    0  501    0  0.00000000000E+00 -0.00000000000E+00 -0.12874168705E+03  0.12874168705E+03  0.00000000000E+00 0. -1.
         25    2    1    2    0    0  0.52026691867E+02  0.51196539934E+01  0.20471399058E+02  0.13711811045E+03  0.12509720425E+03 0.  0.
          5    1    3    3  502    0  0.22485699163E+01 -0.30641358696E+02  0.57542915401E+02  0.65365192896E+02  0.41800000000E+01 0.  1.
         -5    1    3    3    0  502  0.49778121951E+02  0.35761012689E+02 -0.37071516343E+02  0.71752917554E+02  0.41800000000E+01 0.  1.
        -11    1    1    2    0    0 -0.76629177363E+02 -0.64247636208E+01 -0.92487076511E+01  0.77452224010E+02  0.00000000000E+00 0.  1.
         11    1    1    2    0    0  0.24602485496E+02  0.13051096273E+01 -0.21461719716E+02  0.32674011337E+02  0.00000000000E+00 0. -1.
</event>
<event>
 7    1  0.2820496E-009  0.1291197E+03  0.7561462E-02  0.1228768E+00
         -1   -1    0    0    0  501 -0.00000000000E+00  0.00000000000E+00  0.27941487410E+03  0.27941487410E+03  0.00000000000E+00 0.  1.
          1   -1    0    0  501    0  0.00000000000E+00 -0.00000000000E+00 -0.73005171577E+02  0.73005171577E+02  0.00000000000E+00 0. -1.
         25    2    1    2    0    0 -0.90314081029E+02  0.17512585271E+02  0.12078204231E+03  0.19671722699E+03  0.12508413877E+03 0.  0.
          5    1    3    3  502    0 -0.33079312530E+02  0.64304765198E+02  0.92424323060E+02  0.11742687783E+03  0.41800000000E+01 0.  1.
         -5    1    3    3    0  502 -0.57234768498E+02 -0.46792179927E+02  0.28357719252E+02  0.79290349151E+02  0.41800000000E+01 0.  1.
        -11    1    1    2    0    0  0.84827356978E+02  0.84271856918E+01  0.23915552929E+02  0.88536159972E+02  0.00000000000E+00 0. -1.
         11    1    1    2    0    0  0.54867240502E+01 -0.25939770963E+02  0.61712107287E+02  0.67166658725E+02  0.00000000000E+00 0.  1.
</event>
<event>
 7    1  0.2820496E-009  0.1261522E+03  0.7561462E-02  0.1233280E+00
          2   -1    0    0  501    0  0.00000000000E+00  0.00000000000E+00  0.79565671939E+03  0.79565671939E+03  0.00000000000E+00 0. -1.
         -2   -1    0    0    0  501 -0.00000000000E+00 -0.00000000000E+00 -0.32062755387E+02  0.32062755387E+02  0.00000000000E+00 0.  1.
         25    2    1    2    0    0  0.86314513995E+02  0.83035135232E+02  0.37373606601E+03  0.41191152088E+03  0.12508966778E+03 0.  0.
          5    1    3    3  502    0  0.52630883708E+02  0.74456100522E+02  0.97848474540E+02  0.13381149874E+03  0.41800000000E+01 0. -1.
         -5    1    3    3    0  502  0.33683630288E+02  0.85790347107E+01  0.27588759147E+03  0.27810002214E+03  0.41800000000E+01 0. -1.
        -11    1    1    2    0    0 -0.17039399744E+02 -0.42424431866E+02  0.25327477975E+03  0.25736800038E+03  0.00000000000E+00 0. -1.
         11    1    1    2    0    0 -0.69275114251E+02 -0.40610703367E+02  0.13658311824E+03  0.15843995352E+03  0.00000000000E+00 0.  1.
</event>
<event>
 7    1  0.2820496E-009  0.1130819E+03  0.7561462E-02  0.1254967E+00
         -1   -1    0    0    0  501 -0.00000000000E+00  0.00000000000E+00  0.86107421948E+02  0.86107421948E+02  0.00000000000E+00 0.  1.
          1   -1    0    0  501    0  0.00000000000E+00 -0.00000000000E+00 -0.22415078683E+03  0.22415078683E+03  0.00000000000E+00 0. -1.
         25    2    1    2    0    0  0.74235521098E+02 -0.25414514339E+02 -0.11824650115E+03  0.18917320010E+03  0.12508978563E+03 0.  0.
          5    1    3    3  502    0  0.72158435081E+02  0.38606371527E+02 -0.79632251156E+02  0.11426311522E+03  0.41800000000E+01 0. -1.
         -5    1    3    3    0  502  0.20770860170E+01 -0.64020885865E+02 -0.38614249994E+02  0.74910084874E+02  0.41800000000E+01 0. -1.
        -11    1    1    2    0    0 -0.24173966421E+02  0.16270637545E+02  0.35504809442E+02  0.45931533745E+02  0.00000000000E+00 0.  1.
         11    1    1    2    0    0 -0.50061554678E+02  0.91438767939E+01 -0.55301673179E+02  0.75153474943E+02  0.00000000000E+00 0. -1.
</event>
<event>
 7    1  0.2820496E-009  0.1217114E+03  0.7561462E-02  0.1240300E+00
         -1   -1    0    0    0  501 -0.00000000000E+00  0.00000000000E+00  0.11370945500E+03  0.11370945500E+03  0.00000000000E+00 0.  1.
          1   -1    0    0  501    0  0.00000000000E+00 -0.00000000000E+00 -0.22140717416E+03  0.22140717416E+03  0.00000000000E+00 0. -1.
         25    2    1    2    0    0 -0.11469423794E+03 -0.12151068264E+01 -0.40171833728E+02  0.17440916574E+03  0.12509410924E+03 0.  0.
          5    1    3    3  502    0 -0.47497837637E+01 -0.89195565004E+01  0.37792121498E+02  0.39342544164E+02  0.41800000000E+01 0. -1.
         -5    1    3    3    0  502 -0.10994445418E+03  0.77044496740E+01 -0.77963955226E+02  0.13506662158E+03  0.41800000000E+01 0. -1.
        -11    1    1    2    0    0  0.41977737599E+02  0.20853260648E+02  0.14771840881E+02  0.49144645858E+02  0.00000000000E+00 0. -1.
         11    1    1    2    0    0  0.72716500344E+02 -0.19638153821E+02 -0.82297726314E+02  0.11156281757E+03  0.00000000000E+00 0.  1.
</event>
<event>
 7    1  0.2820496E-009  0.1256234E+03  0.7561462E-02  0.1234098E+00
         -1   -1    0    0    0  501 -0.00000000000E+00  0.00000000000E+00  0.62854131616E+02  0.62854131616E+02  0.00000000000E+00 0.  1.
          1   -1    0    0  501    0  0.00000000000E+00 -0.00000000000E+00 -0.42247500587E+03  0.42247500587E+03  0.00000000000E+00 0. -1.
         25    2    1    2    0    0  0.54817897416E+02  0.10479329250E+03 -0.22869571317E+03  0.28624442806E+03  0.12508999699E+03 0.  0.
          5    1    3    3  502    0 -0.12486125832E+02  0.25717535454E+02  0.60537045955E+01  0.29519734204E+02  0.41800000000E+01 0. -1.
         -5    1    3    3    0  502  0.67304023248E+02  0.79075757042E+02 -0.23474941776E+03  0.25672469386E+03  0.41800000000E+01 0. -1.
        -11    1    1    2    0    0 -0.31682843249E+02 -0.53837428105E+02 -0.66877169381E+01  0.62825128564E+02  0.00000000000E+00 0.  1.
         11    1    1    2    0    0 -0.23135054168E+02 -0.50955864391E+02 -0.12423744415E+03  0.13625958086E+03  0.00000000000E+00 0. -1.
</event>
<event>
 7    1  0.2820496E-009  0.7902775E+02  0.7561462E-02  0.1331833E+00
          2   -1    0    0  501    0  0.00000000000E+00  0.00000000000E+00  0.74466850146E+02  0.74466850146E+02  0.00000000000E+00 0. -1.
         -2   -1    0    0    0  501 -0.00000000000E+00 -0.00000000000E+00 -0.17781140177E+03  0.17781140177E+03  0.00000000000E+00 0.  1.
         25    2    1    2    0    0 -0.18974538815E+02 -0.27600419992E+01 -0.90085791260E+02  0.15533994312E+03  0.12508955666E+03 0.  0.
          5    1    3    3  502    0 -0.19795408747E+02  0.28738519015E+02  0.20219055715E+02  0.40546803778E+02  0.41800000000E+01 0.  1.
         -5    1    3    3    0  502  0.82086993173E+00 -0.31498561014E+02 -0.11030484698E+03  0.11479313934E+03  0.41800000000E+01 0.  1.
        -11    1    1    2    0    0  0.48370920415E+01  0.45680275886E+02  0.86108755582E+01  0.46735770479E+02  0.00000000000E+00 0.  1.
         11    1    1    2    0    0  0.14137446773E+02 -0.42920233886E+02 -0.21869635921E+02  0.50202538317E+02  0.00000000000E+00 0. -1.
</event>
<event>
 7    1  0.2820496E-009  0.8316815E+02  0.7561462E-02  0.1320294E+00
         -1   -1    0    0    0  501 -0.00000000000E+00  0.00000000000E+00  0.58625263485E+02  0.58625263485E+02  0.00000000000E+00 0.  1.
          1   -1    0    0  501    0  0.00000000000E+00 -0.00000000000E+00 -0.29488201021E+03  0.29488201021E+03  0.00000000000E+00 0. -1.
         25    2    1    2    0    0  0.32782477251E+02  0.69640314489E+02 -0.13142501955E+03  0.19708911268E+03  0.12508844214E+03 0.  0.
          5    1    3    3  502    0  0.21184553191E+02  0.15208594536E+02  0.21654124300E+02  0.34153479191E+02  0.41800000000E+01 0. -1.
         -5    1    3    3    0  502  0.11597924061E+02  0.54431719953E+02 -0.15307914385E+03  0.16293563349E+03  0.41800000000E+01 0. -1.
        -11    1    1    2    0    0 -0.25365865429E+02 -0.16058002108E+02  0.81900595496E+01  0.31118541677E+02  0.00000000000E+00 0.  1.
         11    1    1    2    0    0 -0.74166118224E+01 -0.53582312381E+02 -0.11302178673E+03  0.12529961934E+03  0.00000000000E+00 0. -1.
</event>
<event>
 7    1  0.2820496E-009  0.1110668E+03  0.7561462E-02  0.1258607E+00
          2   -1    0    0  501    0  0.00000000000E+00  0.00000000000E+00  0.48031505946E+03  0.48031505946E+03  0.00000000000E+00 0. -1.
         -2   -1    0    0    0  501 -0.00000000000E+00 -0.00000000000E+00 -0.51303762027E+02  0.51303762027E+02  0.00000000000E+00 0.  1.
         25    2    1    2    0    0 -0.65947371192E+02  0.54405105775E+02  0.35859384176E+03  0.38928819914E+03  0.12508711899E+03 0.  0.
          5    1    3    3  502    0 -0.74375061789E+02  0.20898100477E+02  0.34216467930E+03  0.35080268041E+03  0.41800000000E+01 0. -1.
         -5    1    3    3    0  502  0.84276905964E+01  0.33507005299E+02  0.16429162459E+02  0.38485518731E+02  0.41800000000E+01 0. -1.
        -11    1    1    2    0    0 -0.33517180649E+01 -0.38779240511E+02 -0.43859711827E+01  0.39170144904E+02  0.00000000000E+00 0.  1.
         11    1    1    2    0    0  0.69299089257E+02 -0.15625865264E+02  0.74803426851E+02  0.10316047744E+03  0.00000000000E+00 0. -1.
</event>
<event>
 7    1  0.2820496E-009  0.1275176E+03  0.7561462E-02  0.1231186E+00
          1   -1    0    0  501    0  0.00000000000E+00  0.00000000000E+00  0.54201929137E+03  0.54201929137E+03  0.00000000000E+00 0. -1.
         -1   -1    0    0    0  501 -0.00000000000E+00 -0.00000000000E+00 -0.33684680289E+02  0.33684680289E+02  0.00000000000E+00 0.  1.
         25    2    1    2    0    0 -0.64078766653E+02  0.21928194988E+02  0.37484135309E+03  0.40092371892E+03  0.12508738678E+03 0.  0.
          5    1    3    3  502    0 -0.29314507456E+02  0.73866046536E+02  0.21361359631E+03  0.22795564066E+03  0.41800000000E+01 0. -1.
         -5    1    3    3    0  502 -0.34764259197E+02 -0.51937851548E+02  0.16122775678E+03  0.17296807826E+03  0.41800000000E+01 0. -1.
        -11    1    1    2    0    0 -0.19732003148E+01 -0.43336962540E+02  0.51122602850E+02  0.67048537373E+02  0.00000000000E+00 0. -1.
         11    1    1    2    0    0  0.66051966968E+02  0.21408767552E+02  0.82370655145E+02  0.10773171537E+03  0.00000000000E+00 0.  1.
</event>
<event>
 7    1  0.2820496E-009  0.1191135E+03  0.7561462E-02  0.1244567E+00
         -2   -1    0    0    0  501 -0.00000000000E+00  0.00000000000E+00  0.92740774288E+01  0.92740774288E+01  0.00000000000E+00 0. -1.
          2   -1    0    0  501    0  0.00000000000E+00 -0.00000000000E+00 -0.30365537071E+04  0.30365537071E+04  0.00000000000E+00 0.  1.
         25    2    1    2    0    0 -0.44877145621E+02  0.47390545664E+02 -0.26037509414E+04  0.26075709801E+04  0.12509048607E+03 0.  0.
          5    1    3    3  502    0  0.32371014404E+02  0.34600504415E+02 -0.47483267585E+03  0.47720919934E+03  0.41800000000E+01 0.  1.
         -5    1    3    3    0  502 -0.77248160025E+02  0.12790041249E+02 -0.21289182655E+04  0.21303617808E+04  0.41800000000E+01 0.  1.
        -11    1    1    2    0    0  0.25716213065E+02  0.25898246234E+02 -0.15578869974E+03  0.16000675530E+03  0.00000000000E+00 0.  1.
         11    1    1    2    0    0  0.19160932556E+02 -0.73288791898E+02 -0.26773998857E+03  0.27825004912E+03  0.00000000000E+00 0. -1.
</event>
<event>
 7    1  0.2820496E-009  0.9936025E+02  0.7561462E-02  0.1281647E+00
          2   -1    0    0  501    0  0.00000000000E+00  0.00000000000E+00  0.99910462264E+03  0.99910462264E+03  0.00000000000E+00 0. -1.
         -2   -1    0    0    0  501 -0.00000000000E+00 -0.00000000000E+00 -0.14326585716E+02  0.14326585716E+02  0.00000000000E+00 0.  1.
         25    2    1    2    0    0 -0.10435175374E+02 -0.68439986362E+01  0.76186865888E+03  0.77217201687E+03  0.12510010811E+03 0.  0.
          5    1    3    3  502    0 -0.11683042116E+02 -0.63483900146E+02  0.30490916866E+03  0.31169499930E+03  0.41800000000E+01 0. -1.
         -5    1    3    3    0  502  0.12478667426E+01  0.56639901510E+02  0.45695949022E+03  0.46047701758E+03  0.41800000000E+01 0. -1.
        -11    1    1    2    0    0 -0.32005274295E+02 -0.66595092550E+01  0.33983162753E+02  0.47154448326E+02  0.00000000000E+00 0.  1.
         11    1    1    2    0    0  0.42440449669E+02  0.13503507891E+02  0.18892621529E+03  0.19410474316E+03  0.00000000000E+00 0. -1.
</event>
<event>
 7    1  0.2820496E-009  0.1510153E+03  0.7561462E-02  0.1199231E+00
          2   -1    0    0  501    0  0.00000000000E+00  0.00000000000E+00  0.79792074877E+03  0.79792074877E+03  0.00000000000E+00 0. -1.
         -2   -1    0    0    0  501 -0.00000000000E+00 -0.00000000000E+00 -0.49783846728E+02  0.49783846728E+02  0.00000000000E+00 0.  1.
         25    2    1    2    0    0 -0.91144456919E+02 -0.70320870030E+02  0.65905731471E+03  0.68062949956E+03  0.12509050650E+03 0.  0.
          5    1    3    3  502    0  0.14126645677E+01 -0.71807246412E+02  0.37504880571E+03  0.38188657389E+03  0.41800000000E+01 0.  1.
         -5    1    3    3    0  502 -0.92557121487E+02  0.14863763821E+01  0.28400850900E+03  0.29874292567E+03  0.41800000000E+01 0.  1.
        -11    1    1    2    0    0  0.32259316815E+02 -0.13514242415E+02  0.41040525338E+02  0.53922379301E+02  0.00000000000E+00 0. -1.
         11    1    1    2    0    0  0.58885140104E+02  0.83835112445E+02  0.48039061992E+02  0.11315271663E+03  0.00000000000E+00 0.  1.
</event>
<event>
 7    1  0.2820496E-009  0.1042476E+03  0.7561462E-02  0.1271609E+00
          2   -1    0    0  501    0  0.00000000000E+00  0.00000000000E+00  0.33161285552E+03  0.33161285552E+03  0.00000000000E+00 0. -1.
         -2   -1    0    0    0  501 -0.00000000000E+00 -0.00000000000E+00 -0.64702266457E+02  0.64702266457E+02  0.00000000000E+00 0.  1.
         25    2    1    2    0    0  0.24100374993E+02 -0.91795797955E+02  0.18376212890E+03  0.24170876026E+03  0.12508920085E+03 0.  0.
          5    1    3    3  502    0  0.98309231203E+01 -0.59089455748E+02  0.59932670608E+01  0.60345691479E+02  0.41800000000E+01 0.  1.
         -5    1    3    3    0  502  0.14269451873E+02 -0.32706342206E+02  0.17776886184E+03  0.18136306878E+03  0.41800000000E+01 0.  1.
        -11    1    1    2    0    0 -0.36789018974E+02  0.92765915897E+02  0.36510908524E+02  0.10626379210E+03  0.00000000000E+00 0.  1.
         11    1    1    2    0    0  0.12688643981E+02 -0.97011794271E+00  0.46637551641E+02  0.48342569626E+02  0.00000000000E+00 0. -1.
</event>
<event>
 7    1  0.2820496E-009  0.1743267E+03  0.7561462E-02  0.1173409E+00
         -2   -1    0    0    0  501 -0.00000000000E+00  0.00000000000E+00  0.95599134622E+02  0.95599134622E+02  0.00000000000E+00 0. -1.
          2   -1    0    0  501    0  0.00000000000E+00 -0.00000000000E+00 -0.46648320989E+03  0.46648320989E+03  0.00000000000E+00 0.  1.
         25    2    1    2    0    0 -0.65788768083E+02  0.12695691068E+03 -0.45345649228E+02  0.19532131727E+03  0.12509184586E+03 0.  0.
          5    1    3    3  502    0 -0.51226868756E+02  0.14747144721E+03 -0.16845858610E+02  0.15707729046E+03  0.41800000000E+01 0. -1.
         -5    1    3    3    0  502 -0.14561899327E+02 -0.20514536535E+02 -0.28499790618E+02  0.38244026808E+02  0.41800000000E+01 0. -1.
        -11    1    1    2    0    0  0.66528459459E+01 -0.10293706830E+03 -0.17317833902E+03  0.20157142033E+03  0.00000000000E+00 0. -1.
         11    1    1    2    0    0  0.59135922137E+02 -0.24019842373E+02 -0.15236008703E+03  0.16518960692E+03  0.00000000000E+00 0.  1.
</event>
<event>
 7    1  0.2820496E-009  0.1103764E+03  0.7561462E-02  0.1259875E+00
         -1   -1    0    0    0  501 -0.00000000000E+00  0.00000000000E+00  0.19545418897E+02  0.19545418897E+02  0.00000000000E+00 0. -1.
          1   -1    0    0  501    0  0.00000000000E+00 -0.00000000000E+00 -0.64666279390E+03  0.64666279390E+03  0.00000000000E+00 0.  1.
         25    2    1    2    0    0  0.12072013192E+02 -0.28352512950E+02 -0.32487059967E+03  0.34948306008E+03  0.12509158349E+03 0.  0.
          5    1    3    3  502    0  0.43345947377E+02  0.36176468168E+02 -0.15676548895E+03  0.16667482992E+03  0.41800000000E+01 0. -1.
         -5    1    3    3    0  502 -0.31273934185E+02 -0.64528981118E+02 -0.16810511073E+03  0.18280823016E+03  0.41800000000E+01 0. -1.
        -11    1    1    2    0    0 -0.37137049387E+02 -0.16727005174E+02 -0.16912061209E+03  0.17395612830E+03  0.00000000000E+00 0.  1.
         11    1    1    2    0    0  0.25065036196E+02  0.45079518124E+02 -0.13312616323E+03  0.14276902441E+03  0.00000000000E+00 0. -1.
</event>
<event>
 7    1  0.2820496E-009  0.4422008E+02  0.7561462E-02  0.1479270E+00
          2   -1    0    0  501    0  0.00000000000E+00  0.00000000000E+00  0.41964474024E+03  0.41964474024E+03  0.00000000000E+00 0. -1.
         -2   -1    0    0    0  501 -0.00000000000E+00 -0.00000000000E+00 -0.30377386718E+02  0.30377386718E+02  0.00000000000E+00 0.  1.
         25    2    1    2    0    0  0.30886282719E+02 -0.21044978836E+01  0.26385217031E+03  0.29364159951E+03  0.12509608232E+03 0.  0.
          5    1    3    3  502    0  0.24365552047E+02  0.94727433398E+00  0.27698759464E+03  0.27809023255E+03  0.41800000000E+01 0. -1.
         -5    1    3    3    0  502  0.65207306717E+01 -0.30517722176E+01 -0.13135424325E+02  0.15551366961E+02  0.41800000000E+01 0. -1.
        -11    1    1    2    0    0 -0.40501251317E+02 -0.81557151208E+01  0.13378352770E+03  0.14001749652E+03  0.00000000000E+00 0. -1.
         11    1    1    2    0    0  0.96149685980E+01  0.10260213004E+02 -0.83683444847E+01  0.16363030937E+02  0.00000000000E+00 0.  1.
</event>
<event>
 7    1  0.2820496E-009  0.1319658E+03  0.7561462E-02  0.1224568E+00
          2   -1    0    0  501    0  0.00000000000E+00  0.00000000000E+00  0.37044239280E+03  0.37044239280E+03  0.00000000000E+00 0. -1.
         -2   -1    0    0    0  501 -0.00000000000E+00 -0.00000000000E+00 -0.12070703428E+03  0.12070703428E+03  0.00000000000E+00 0.  1.
         25    2    1    2    0    0  0.12714788126E+03  0.76883288238E+01  0.28314779376E+03  0.33473268600E+03  0.12509038276E+03 0.  0.
          5    1    3    3  502    0  0.50615585404E+02  0.70996383140E+01  0.11603741107E+02  0.52578147150E+02  0.41800000000E+01 0. -1.
         -5    1    3    3    0  502  0.76532295855E+02  0.58869050976E+00  0.27154405265E+03  0.28215453885E+03  0.41800000000E+01 0. -1.
        -11    1    1    2    0    0 -0.42873208617E+02  0.19980852057E+02 -0.47000584336E+02  0.66681342172E+02  0.00000000000E+00 0.  1.
         11    1    1    2    0    0 -0.84274672643E+02 -0.27669180880E+02  0.13588149102E+02  0.89735398900E+02  0.00000000000E+00 0. -1.
</event>
<event>
 7    1  0.2820496E-009  0.2078810E+03  0.7561462E-02  0.1143255E+00
          2   -1    0    0  501    0  0.00000000000E+00  0.00000000000E+00  0.38153930026E+03  0.38153930026E+03  0.00000000000E+00 0.  1.
         -2   -1    0    0    0  501 -0.00000000000E+00 -0.00000000000E+00 -0.11781072955E+03  0.11781072955E+03  0.00000000000E+00 0. -1.
         25    2    1    2    0    0 -0.13214072010E+03 -0.12062956756E+03  0.17433053461E+03  0.27937671468E+03  0.12509017120E+03 0.  0.
          5    1    3    3  502    0 -0.15418304381E+03 -0.11777346131E+03  0.16566384985E+03  0.25515678070E+03  0.41800000000E+01 0.  1.
         -5    1    3    3    0  502  0.22042323713E+02 -0.28561062461E+01  0.86666847596E+01  0.24219933985E+02  0.41800000000E+01 0.  1.
        -11    1    1    2    0    0  0.18615627472E+02 -0.13768654057E+02  0.20862507436E+02  0.31166675107E+02  0.00000000000E+00 0.  1.
         11    1    1    2    0    0  0.11352509263E+03  0.13439822161E+03  0.68535528659E+02  0.18880664002E+03  0.00000000000E+00 0. -1.
</event>
<event>
 7    1  0.2820496E-009  0.6350638E+02  0.7561462E-02  0.1383680E+00
          1   -1    0    0  501    0  0.00000000000E+00  0.00000000000E+00  0.21682373877E+03  0.21682373877E+03  0.00000000000E+00 0. -1.
         -1   -1    0    0    0  501 -0.00000000000E+00 -0.00000000000E+00 -0.66997613566E+02  0.66997613566E+02  0.00000000000E+00 0.  1.
         25    2    1    2    0    0  0.17599616011E+01  0.47118684198E+02  0.11267398776E+03  0.17482975420E+03  0.12508696003E+03 0.  0.
          5    1    3    3  502    0  0.51506262626E+01  0.19775471530E+02 -0.26028734147E+02  0.33355143928E+02  0.41800000000E+01 0.  1.
         -5    1    3    3    0  502 -0.33906646615E+01  0.27343212668E+02  0.13870272191E+03  0.14147461027E+03  0.41800000000E+01 0.  1.
        -11    1    1    2    0    0 -0.13366016669E+02  0.12046595820E+02  0.44740314638E+02  0.48223092252E+02  0.00000000000E+00 0. -1.
         11    1    1    2    0    0  0.11606055068E+02 -0.59165280018E+02 -0.75881772015E+01  0.60768505882E+02  0.00000000000E+00 0.  1.
</event>
<event>
 7    1  0.2820496E-009  0.1800675E+03  0.7561462E-02  0.1167738E+00
         -3   -1    0    0    0  501 -0.00000000000E+00  0.00000000000E+00  0.46178107589E+03  0.46178107589E+03  0.00000000000E+00 0.  1.
          3   -1    0    0  501    0  0.00000000000E+00 -0.00000000000E+00 -0.82965082725E+02  0.82965082725E+02  0.00000000000E+00 0. -1.
         25    2    1    2    0    0  0.10449616688E+03  0.11026865860E+03  0.24638249741E+03  0.31532592572E+03  0.12508988144E+03 0.  0.
          5    1    3    3  502    0  0.35611366469E+02 -0.24111676104E+02  0.77553523137E+02  0.88778171289E+02  0.41800000000E+01 0. -1.
         -5    1    3    3    0  502  0.68884800409E+02  0.13438033471E+03  0.16882897427E+03  0.22654775443E+03  0.41800000000E+01 0. -1.
        -11    1    1    2    0    0 -0.73288807953E+02 -0.29020106570E+02  0.11692474174E+03  0.14101351420E+03  0.00000000000E+00 0.  1.
         11    1    1    2    0    0 -0.31207358924E+02 -0.81248552035E+02  0.15508754013E+02  0.88406718691E+02  0.00000000000E+00 0. -1.
</event>
<event>
 7    1  0.2820496E-009  0.1270197E+03  0.7561462E-02  0.1231946E+00
         -1   -1    0    0    0  501 -0.00000000000E+00  0.00000000000E+00  0.12180710325E+03  0.12180710325E+03  0.00000000000E+00 0.  1.
          1   -1    0    0  501    0  0.00000000000E+00 -0.00000000000E+00 -0.16278283953E+03  0.16278283953E+03  0.00000000000E+00 0. -1.
         25    2    1    2    0    0  0.18329906721E+02 -0.88331591965E+02 -0.11111392128E+02  0.15462598762E+03  0.12508907783E+03 0.  0.
          5    1    3    3  502    0 -0.40564161308E+02  0.16837564869E+01  0.15628481490E+02  0.43703638890E+02  0.41800000000E+01 0.  1.
         -5    1    3    3    0  502  0.58894068029E+02 -0.90015348452E+02 -0.26739873618E+02  0.11092234873E+03  0.41800000000E+01 0.  1.
        -11    1    1    2    0    0 -0.28017600151E+02  0.15338276526E+02  0.22964415060E+02  0.39339712811E+02  0.00000000000E+00 0.  1.
         11    1    1    2    0    0  0.96876934300E+01  0.72993315439E+02 -0.52828759213E+02  0.90624242357E+02  0.00000000000E+00 0. -1.
</event>
<event>
 7    1  0.2820496E-009  0.1423383E+03  0.7561462E-02  0.1210217E+00
         -1   -1    0    0    0  501 -0.00000000000E+00  0.00000000000E+00  0.19296624803E+02  0.19296624803E+02  0.00000000000E+00 0.  1.
          1   -1    0    0  501    0  0.00000000000E+00 -0.00000000000E+00 -0.10696168420E+04  0.10696168420E+04  0.00000000000E+00 0. -1.
         25    2    1    2    0    0  0.64123936075E+01 -0.94838688778E+02 -0.53041669205E+03  0.55319637564E+03  0.12509543210E+03 0.  0.
          5    1    3    3  502    0 -0.93804818892E+01 -0.12358777040E+03 -0.42327052234E+03  0.44106387056E+03  0.41800000000E+01 0.  1.
         -5    1    3    3    0  502  0.15792875497E+02  0.28749081626E+02 -0.10714616971E+03  0.11213250507E+03  0.41800000000E+01 0.  1.
        -11    1    1    2    0    0  0.10710780687E+02  0.10639858566E+03 -0.40004538812E+03  0.41409140586E+03  0.00000000000E+00 0.  1.
         11    1    1    2    0    0 -0.17123174294E+02 -0.11559896879E+02 -0.11985813702E+03  0.12162568530E+03  0.00000000000E+00 0. -1.
</event>
<event>
 7    1  0.2820496E-009  0.9622112E+02  0.7561462E-02  0.1288449E+00
         -1   -1    0    0    0  501 -0.00000000000E+00  0.00000000000E+00  0.11924276009E+03  0.11924276009E+03  0.00000000000E+00 0.  1.
          1   -1    0    0  501    0  0.00000000000E+00 -0.00000000000E+00 -0.13795575437E+03  0.13795575437E+03  0.00000000000E+00 0. -1.
         25    2    1    2    0    0 -0.14053066817E+02  0.16698359513E+02  0.56508114088E+02  0.13898617371E+03  0.12509062966E+03 0.  0.
          5    1    3    3  502    0 -0.29940310277E+02  0.53260694386E+02  0.73309226413E+02  0.95524022231E+02  0.41800000000E+01 0. -1.
         -5    1    3    3    0  502  0.15887243459E+02 -0.36562334872E+02 -0.16801112325E+02  0.43462151482E+02  0.41800000000E+01 0. -1.
        -11    1    1    2    0    0  0.51267013099E+02 -0.26369692600E+01 -0.44750246849E+02  0.68101724148E+02  0.00000000000E+00 0.  1.
         11    1    1    2    0    0 -0.37213946281E+02 -0.14061390253E+02 -0.30470861518E+02  0.50110616593E+02  0.00000000000E+00 0. -1.
</event>
<event>
 7    1  0.2820496E-009  0.1262308E+03  0.7561462E-02  0.1233158E+00
         -2   -1    0    0    0  501 -0.00000000000E+00  0.00000000000E+00  0.69700333190E+03  0.69700333190E+03  0.00000000000E+00 0.  1.
          2   -1    0    0  501    0  0.00000000000E+00 -0.00000000000E+00 -0.51836120711E+02  0.51836120711E+02  0.00000000000E+00 0. -1.
         25    2    1    2    0    0  0.22576725104E+02 -0.12348680222E+03  0.51599314166E+03  0.54557763957E+03  0.12508932695E+03 0.  0.
          5    1    3    3  502    0  0.72351274133E+01 -0.30916302000E+02  0.37376275722E+03  0.37513229118E+03  0.41800000000E+01 0.  1.
         -5    1    3    3    0  502  0.15341597691E+02 -0.92570500220E+02  0.14223038444E+03  0.17044534839E+03  0.41800000000E+01 0.  1.
        -11    1    1    2    0    0 -0.60715257523E+01  0.75887698487E+02  0.13245584772E+03  0.15277551441E+03  0.00000000000E+00 0.  1.
         11    1    1    2    0    0 -0.16505199352E+02  0.47599103732E+02 -0.32817781943E+01  0.50486298635E+02  0.00000000000E+00 0. -1.
</event>
<event>
 7    1  0.2820496E-009  0.9900473E+02  0.7561462E-02  0.1282403E+00
          2   -1    0    0  501    0  0.00000000000E+00  0.00000000000E+00  0.14357124013E+04  0.14357124013E+04  0.00000000000E+00 0.  1.
         -2   -1    0    0    0  501 -0.00000000000E+00 -0.00000000000E+00 -0.17518536392E+02  0.17518536392E+02  0.00000000000E+00 0. -1.
         25    2    1    2    0    0 -0.19643957679E+02 -0.61802895174E+02  0.11989003768E+04  0.12071519062E+04  0.12509247922E+03 0.  0.
          5    1    3    3  502    0  0.17916607093E+02 -0.39065410646E+02  0.12320793830E+03  0.13055565702E+03  0.41800000000E+01 0. -1.
         -5    1    3    3    0  502 -0.37560564772E+02 -0.22737484528E+02  0.10756924385E+04  0.10765962492E+04  0.41800000000E+01 0. -1.
        -11    1    1    2    0    0 -0.35648950397E+02  0.16692632826E+02  0.93621417930E+02  0.10156013760E+03  0.00000000000E+00 0.  1.
         11    1    1    2    0    0  0.55292908077E+02  0.45110262347E+02  0.12567207020E+03  0.14451889386E+03  0.00000000000E+00 0. -1.
</event>
<event>
 7    1  0.2820496E-009  0.1444714E+03  0.7561462E-02  0.1207436E+00
         -2   -1    0    0    0  501 -0.00000000000E+00  0.00000000000E+00  0.97974460558E+02  0.97974460558E+02  0.00000000000E+00 0.  1.
          2   -1    0    0  501    0  0.00000000000E+00 -0.00000000000E+00 -0.24569157515E+03  0.24569157515E+03  0.00000000000E+00 0. -1.
         25    2    1    2    0    0 -0.10291265906E+03 -0.16402702436E+02 -0.12210585534E+03  0.20352537780E+03  0.12511065285E+03 0.  0.
          5    1    3    3  502    0  0.36276524575E+01  0.41244142935E+02 -0.30505448167E+02  0.51597421996E+02  0.41800000000E+01 0. -1.
         -5    1    3    3    0  502 -0.10654031152E+03 -0.57646845371E+02 -0.91600407176E+02  0.15192795581E+03  0.41800000000E+01 0. -1.
        -11    1    1    2    0    0  0.27667615561E+01  0.25419388489E+02 -0.30093917176E+02  0.39489797817E+02  0.00000000000E+00 0. -1.
         11    1    1    2    0    0  0.10014589751E+03 -0.90166860529E+01  0.44826579245E+01  0.10065086009E+03  0.00000000000E+00 0.  1.
</event>
<event>
 7    1  0.2820496E-009  0.1071036E+03  0.7561462E-02  0.1266030E+00
          2   -1    0    0  501    0  0.00000000000E+00  0.00000000000E+00  0.70210788695E+03  0.70210788695E+03  0.00000000000E+00 0.  1.
         -2   -1    0    0    0  501 -0.00000000000E+00 -0.00000000000E+00 -0.16818996483E+02  0.16818996483E+02  0.00000000000E+00 0. -1.
         25    2    1    2    0    0  0.62869752431E+01 -0.71662213457E+01  0.38034602353E+03  0.40050168253E+03  0.12509044450E+03 0.  0.
          5    1    3    3  502    0 -0.40810011948E+02  0.39349483673E+02  0.21396580900E+03  0.22138807277E+03  0.41800000000E+01 0. -1.
         -5    1    3    3    0  502  0.47096987191E+02 -0.46515705019E+02  0.16638021453E+03  0.17911360976E+03  0.41800000000E+01 0. -1.
        -11    1    1    2    0    0  0.10742590344E+02  0.46736948125E+02  0.14176231845E+03  0.14965393580E+03  0.00000000000E+00 0. -1.
         11    1    1    2    0    0 -0.17029565587E+02 -0.39570726779E+02  0.16318054848E+03  0.16877126510E+03  0.00000000000E+00 0.  1.
</event>
<event>
 7    1  0.2820496E-009  0.1275515E+03  0.7561462E-02  0.1231135E+00
         -1   -1    0    0    0  501 -0.00000000000E+00  0.00000000000E+00  0.39996294297E+02  0.39996294297E+02  0.00000000000E+00 0.  1.
          1   -1    0    0  501    0  0.00000000000E+00 -0.00000000000E+00 -0.50246870410E+03  0.50246870410E+03  0.00000000000E+00 0. -1.
         25    2    1    2    0    0 -0.26981729212E+02  0.69042338851E+02 -0.35131514262E+03  0.38021547225E+03  0.12508644066E+03 0.  0.
          5    1    3    3  502    0 -0.72600804410E+02  0.67788193277E+02 -0.24855120669E+03  0.26769626575E+03  0.41800000000E+01 0. -1.
         -5    1    3    3    0  502  0.45619075198E+02  0.12541455738E+01 -0.10276393594E+03  0.11251920650E+03  0.41800000000E+01 0. -1.
        -11    1    1    2    0    0 -0.20743999648E+02 -0.56971845601E+02 -0.90341292266E+02  0.10880098254E+03  0.00000000000E+00 0. -1.
         11    1    1    2    0    0  0.47725728859E+02 -0.12070493250E+02 -0.20815974910E+02  0.53448543609E+02  0.00000000000E+00 0.  1.
</event>
<event>
 7    1  0.3107102E-009  0.1246603E+03  0.7561462E-02  0.1235601E+00
          2   -1    0    0  501    0  0.00000000000E+00  0.00000000000E+00  0.14343066105E+04  0.14343066105E+04  0.00000000000E+00 0.  1.
         -2   -1    0    0    0  501 -0.00000000000E+00 -0.00000000000E+00 -0.15524345743E+02  0.15524345743E+02  0.00000000000E+00 0. -1.
         25    2    1    2    0    0  0.64799738901E+02  0.75740421173E+02  0.87580901286E+03  0.89029501239E+03  0.12509262380E+03 0.  0.
          5    1    3    3  502    0 -0.27399046225E+02  0.68851284629E+01  0.38924872224E+03  0.39029495628E+03  0.41800000000E+01 0. -1.
         -5    1    3    3    0  502  0.92198785126E+02  0.68855292710E+02  0.48656029062E+03  0.50000005612E+03  0.41800000000E+01 0. -1.
        -11    1    1    2    0    0  0.12147805340E+01 -0.17614085954E+02  0.12049962658E+02  0.21375998592E+02  0.00000000000E+00 0. -1.
         11    1    1    2    0    0 -0.66014519435E+02 -0.58126335219E+02  0.53092328929E+03  0.53815994531E+03  0.00000000000E+00 0.  1.
</event>
<event>
 7    1  0.2820496E-009  0.1547672E+03  0.7561462E-02  0.1194735E+00
         -2   -1    0    0    0  501 -0.00000000000E+00  0.00000000000E+00  0.22262277518E+03  0.22262277518E+03  0.00000000000E+00 0.  1.
          2   -1    0    0  501    0  0.00000000000E+00 -0.00000000000E+00 -0.11996790626E+03  0.11996790626E+03  0.00000000000E+00 0. -1.
         25    2    1    2    0    0 -0.10776488246E+03 -0.57818911428E+02  0.38027554673E+02  0.17902136861E+03  0.12508500747E+03 0.  0.
          5    1    3    3  502    0 -0.64036559379E+02  0.28286727592E+02  0.42941712587E+02  0.82233101455E+02  0.41800000000E+01 0.  1.
         -5    1    3    3    0  502 -0.43728323082E+02 -0.86105639021E+02 -0.49141579138E+01  0.96788267154E+02  0.41800000000E+01 0.  1.
        -11    1    1    2    0    0  0.15993218016E+02  0.47822450437E+02 -0.77989647320E+00  0.50431914765E+02  0.00000000000E+00 0. -1.
         11    1    1    2    0    0  0.91771664445E+02  0.99964609909E+01  0.65407210713E+02  0.11313739806E+03  0.00000000000E+00 0.  1.
</event>
<event>
 7    1  0.2820496E-009  0.7237406E+02  0.7561462E-02  0.1352201E+00
         -1   -1    0    0    0  501 -0.00000000000E+00  0.00000000000E+00  0.74378750903E+02  0.74378750903E+02  0.00000000000E+00 0.  1.
          1   -1    0    0  501    0  0.00000000000E+00 -0.00000000000E+00 -0.18018997253E+03  0.18018997253E+03  0.00000000000E+00 0. -1.
         25    2    1    2    0    0  0.36994777222E+02 -0.28661236226E+01 -0.86884297967E+02  0.15676071116E+03  0.12509281004E+03 0.  0.
          5    1    3    3  502    0  0.30867812964E+02 -0.45729920962E+02  0.45378939254E+01  0.55516776110E+02  0.41800000000E+01 0. -1.
         -5    1    3    3    0  502  0.61269642578E+01  0.42863797340E+02 -0.91422191892E+02  0.10124393505E+03  0.41800000000E+01 0. -1.
        -11    1    1    2    0    0 -0.30157642977E+02  0.13685563232E+02  0.31546028835E+02  0.45737621344E+02  0.00000000000E+00 0.  1.
         11    1    1    2    0    0 -0.68371342450E+01 -0.10819439610E+02 -0.50472952497E+02  0.52070390933E+02  0.00000000000E+00 0. -1.
</event>
<event>
 7    1  0.2820496E-009  0.1272520E+03  0.7561462E-02  0.1231591E+00
          2   -1    0    0  501    0  0.00000000000E+00  0.00000000000E+00  0.13361204527E+03  0.13361204527E+03  0.00000000000E+00 0. -1.
         -2   -1    0    0    0  501 -0.00000000000E+00 -0.00000000000E+00 -0.28034575622E+03  0.28034575622E+03  0.00000000000E+00 0.  1.
         25    2    1    2    0    0 -0.69745946862E+02  0.73607336634E+02  0.54106319652E+02  0.16987551550E+03  0.12509060649E+03 0.  0.
          5    1    3    3  502    0 -0.61195516299E+01  0.47249990886E+02  0.82422996696E+02  0.95294455952E+02  0.41800000000E+01 0.  1.
         -5    1    3    3    0  502 -0.63626395232E+02  0.26357345749E+02 -0.28316677044E+02  0.74581059553E+02  0.41800000000E+01 0.  1.
        -11    1    1    2    0    0 -0.27371468881E+01 -0.64578816920E+02 -0.79587694542E+02  0.10252861401E+03  0.00000000000E+00 0. -1.
         11    1    1    2    0    0  0.72483093750E+02 -0.90285197145E+01 -0.12125233607E+03  0.14155367197E+03  0.00000000000E+00 0.  1.
</event>
<event>
 7    1  0.2820496E-009  0.8881342E+02  0.7561462E-02  0.1305751E+00
          4   -1    0    0  501    0  0.00000000000E+00  0.00000000000E+00  0.26142435117E+02  0.26142435117E+02  0.00000000000E+00 0. -1.
         -4   -1    0    0    0  501 -0.00000000000E+00 -0.00000000000E+00 -0.85004465508E+03  0.85004465508E+03  0.00000000000E+00 0.  1.
         25    2    1    2    0    0  0.17887281952E+01  0.50306745735E+02 -0.70636357003E+03  0.71911776757E+03  0.12508757874E+03 0.  0.
          5    1    3    3  502    0  0.29474038237E+02  0.64346801515E+02 -0.65592083095E+03  0.65974149382E+03  0.41800000000E+01 0.  1.
         -5    1    3    3    0  502 -0.27685310042E+02 -0.14040055781E+02 -0.50442739078E+02  0.59376273748E+02  0.41800000000E+01 0.  1.
        -11    1    1    2    0    0 -0.26125149521E+02 -0.93192557771E+01 -0.10382735800E+03  0.10746856394E+03  0.00000000000E+00 0.  1.
         11    1    1    2    0    0  0.24336421326E+02 -0.40987489958E+02 -0.13711291933E+02  0.49600758688E+02  0.00000000000E+00 0. -1.
</event>
<event>
 7    1  0.2820496E-009  0.8975778E+02  0.7561462E-02  0.1303439E+00
          4   -1    0    0  501    0  0.00000000000E+00  0.00000000000E+00  0.48856883461E+02  0.48856883461E+02  0.00000000000E+00 0. -1.
         -4   -1    0    0    0  501 -0.00000000000E+00 -0.00000000000E+00 -0.26692484959E+03  0.26692484959E+03  0.00000000000E+00 0.  1.
         25    2    1    2    0    0  0.14947538840E+02  0.32786322130E+02 -0.11474067449E+03  0.17351871642E+03  0.12507977746E+03 0.  0.
          5    1    3    3  502    0  0.66624770236E+02  0.44798342605E+00 -0.76055868421E+02  0.10119796549E+03  0.41800000000E+01 0.  1.
         -5    1    3    3    0  502 -0.51677231396E+02  0.32338338704E+02 -0.38684806068E+02  0.72320750932E+02  0.41800000000E+01 0.  1.
        -11    1    1    2    0    0 -0.20024476865E+02 -0.16347625244E+01  0.11518712981E+02  0.23158861608E+02  0.00000000000E+00 0. -1.
         11    1    1    2    0    0  0.50769380250E+01 -0.31151559605E+02 -0.11484600463E+03  0.11910415502E+03  0.00000000000E+00 0.  1.
</event>
<event>
 7    1  0.2820496E-009  0.8937149E+02  0.7561462E-02  0.1304381E+00
         -2   -1    0    0    0  501 -0.00000000000E+00  0.00000000000E+00  0.31340399124E+02  0.31340399124E+02  0.00000000000E+00 0.  1.
          2   -1    0    0  501    0  0.00000000000E+00 -0.00000000000E+00 -0.40164717400E+03  0.40164717400E+03  0.00000000000E+00 0. -1.
         25    2    1    2    0    0  0.33731263518E+02  0.94818076956E+01 -0.22074992713E+03  0.25613346424E+03  0.12508444493E+03 0.  0.
          5    1    3    3  502    0  0.35303163683E+02  0.40378470081E+02 -0.27576571976E+02  0.60453899246E+02  0.41800000000E+01 0. -1.
         -5    1    3    3    0  502 -0.15719001655E+01 -0.30896662385E+02 -0.19317335515E+03  0.19567956500E+03  0.41800000000E+01 0. -1.
        -11    1    1    2    0    0 -0.31076671252E+02 -0.46874639913E+02 -0.99807149206E+02  0.11456202859E+03  0.00000000000E+00 0. -1.
         11    1    1    2    0    0 -0.26545922658E+01  0.37392832217E+02 -0.49749698543E+02  0.62292080287E+02  0.00000000000E+00 0.  1.
</event>
<event>
 7    1  0.2820496E-009  0.1127402E+03  0.7561462E-02  0.1255578E+00
          1   -1    0    0  501    0  0.00000000000E+00  0.00000000000E+00  0.74688358735E+03  0.74688358735E+03  0.00000000000E+00 0. -1.
         -1   -1    0    0    0  501 -0.00000000000E+00 -0.00000000000E+00 -0.18698289010E+02  0.18698289010E+02  0.00000000000E+00 0.  1.
         25    2    1    2    0    0  0.38615128475E+01 -0.39985268715E+02  0.33124102781E+03  0.35634288693E+03  0.12508357830E+03 0.  0.
          5    1    3    3  502    0  0.53830064722E+02  0.10242655897E+02  0.19666159831E+03  0.20419560357E+03  0.41800000000E+01 0. -1.
         -5    1    3    3    0  502 -0.49968551875E+02 -0.50227924612E+02  0.13457942950E+03  0.15214728335E+03  0.41800000000E+01 0. -1.
        -11    1    1    2    0    0  0.28349003998E+02  0.56604719825E+02  0.25029023586E+03  0.25817235038E+03  0.00000000000E+00 0. -1.
         11    1    1    2    0    0 -0.32210516845E+02 -0.16619451110E+02  0.14665403467E+03  0.15106663905E+03  0.00000000000E+00 0.  1.
</event>
<event>
 7    1  0.2820496E-009  0.1044082E+03  0.7561462E-02  0.1271290E+00
         -4   -1    0    0    0  501 -0.00000000000E+00  0.00000000000E+00  0.39425025498E+03  0.39425025498E+03  0.00000000000E+00 0.  1.
          4   -1    0    0  501    0  0.00000000000E+00 -0.00000000000E+00 -0.46992903955E+02  0.46992903955E+02  0.00000000000E+00 0. -1.
         25    2    1    2    0    0 -0.58185404919E+02 -0.21732182267E+02  0.27546639803E+03  0.30884796459E+03  0.12508996642E+03 0.  0.
          5    1    3    3  502    0  0.18830901379E+02  0.28835607930E+02  0.14488449949E+03  0.14898015211E+03  0.41800000000E+01 0. -1.
         -5    1    3    3    0  502 -0.77016306298E+02 -0.50567790196E+02  0.13058189854E+03  0.15986781248E+03  0.41800000000E+01 0. -1.
        -11    1    1    2    0    0 -0.57582276765E+01  0.16802970917E+02  0.65601794656E+02  0.67963905712E+02  0.00000000000E+00 0.  1.
         11    1    1    2    0    0  0.63943632595E+02  0.49292113498E+01  0.61891583449E+01  0.64431288634E+02  0.00000000000E+00 0. -1.
</event>
<event>
 7    1  0.2820496E-009  0.7291466E+02  0.7561462E-02  0.1350453E+00
          2   -1    0    0  501    0  0.00000000000E+00  0.00000000000E+00  0.38885606708E+03  0.38885606708E+03  0.00000000000E+00 0. -1.
         -2   -1    0    0    0  501 -0.00000000000E+00 -0.00000000000E+00 -0.35518794393E+02  0.35518794393E+02  0.00000000000E+00 0.  1.
         25    2    1    2    0    0  0.25041455632E+02 -0.12718879603E+02  0.26903161181E+03  0.29801707224E+03  0.12508925932E+03 0.  0.
          5    1    3    3  502    0 -0.27857405379E+02 -0.30638925547E+02  0.27049719595E+02  0.49638075338E+02  0.41800000000E+01 0. -1.
         -5    1    3    3    0  502  0.52898861012E+02  0.17920045943E+02  0.24198189222E+03  0.24837899691E+03  0.41800000000E+01 0. -1.
        -11    1    1    2    0    0 -0.94431462214E+00 -0.12955346972E+02 -0.15675098147E+02  0.20357835032E+02  0.00000000000E+00 0.  1.
         11    1    1    2    0    0 -0.24097141010E+02  0.25674226576E+02  0.99980759022E+02  0.10599995420E+03  0.00000000000E+00 0. -1.
</event>
<event>
 7    1  0.2820496E-009  0.1967031E+03  0.7561462E-02  0.1152551E+00
         -1   -1    0    0    0  501 -0.00000000000E+00  0.00000000000E+00  0.53255020277E+02  0.53255020277E+02  0.00000000000E+00 0.  1.
          1   -1    0    0  501    0  0.00000000000E+00 -0.00000000000E+00 -0.10686680597E+04  0.10686680597E+04  0.00000000000E+00 0. -1.
         25    2    1    2    0    0 -0.80153904013E+02  0.16871780373E+03 -0.75894205302E+03  0.79153632572E+03  0.12508544869E+03 0.  0.
          5    1    3    3  502    0 -0.64554251519E+02  0.53677828841E+02 -0.15311183178E+03  0.17466901880E+03  0.41800000000E+01 0. -1.
         -5    1    3    3    0  502 -0.15599652494E+02  0.11503997489E+03 -0.60583022124E+03  0.61686730692E+03  0.41800000000E+01 0. -1.
        -11    1    1    2    0    0  0.66913027802E+02 -0.83811982182E+02 -0.78987492454E+02  0.13319469063E+03  0.00000000000E+00 0.  1.
         11    1    1    2    0    0  0.13240876212E+02 -0.84905821545E+02 -0.17748349399E+03  0.19719206367E+03  0.00000000000E+00 0. -1.
</event>
<event>
 7    1  0.2820496E-009  0.7143151E+02  0.7561462E-02  0.1355292E+00
          2   -1    0    0  501    0  0.00000000000E+00  0.00000000000E+00  0.10958960913E+04  0.10958960913E+04  0.00000000000E+00 0. -1.
         -2   -1    0    0    0  501 -0.00000000000E+00 -0.00000000000E+00 -0.12615340574E+02  0.12615340574E+02  0.00000000000E+00 0.  1.
         25    2    1    2    0    0 -0.31064939410E+01  0.45766720702E+01  0.89883895363E+03  0.90751854166E+03  0.12509133730E+03 0.  0.
          5    1    3    3  502    0 -0.28766518977E+02  0.35942128096E+02  0.78924371492E+03  0.79059627063E+03  0.41800000000E+01 0. -1.
         -5    1    3    3    0  502  0.25660025036E+02 -0.31365456026E+02  0.10959523871E+03  0.11692227103E+03  0.41800000000E+01 0. -1.
        -11    1    1    2    0    0  0.28690961855E+02  0.38795933806E+01  0.16560289070E+03  0.16811466309E+03  0.00000000000E+00 0. -1.
         11    1    1    2    0    0 -0.25584467914E+02 -0.84562654507E+01  0.18838906370E+02  0.32878227097E+02  0.00000000000E+00 0.  1.
</event>
<event>
 7    1  0.2995215E-009  0.9656388E+02  0.7561462E-02  0.1287692E+00
          1   -1    0    0  501    0  0.00000000000E+00  0.00000000000E+00  0.19160497340E+03  0.19160497340E+03  0.00000000000E+00 0. -1.
         -1   -1    0    0    0  501 -0.00000000000E+00 -0.00000000000E+00 -0.86604548736E+02  0.86604548736E+02  0.00000000000E+00 0.  1.
         25    2    1    2    0    0 -0.42519657038E+02  0.45903082353E+02  0.89429718722E+02  0.16601342438E+03  0.12509103997E+03 0.  0.
          5    1    3    3  502    0 -0.62540556306E+02  0.24114927742E+01 -0.19598192611E+01  0.62757069498E+02  0.41800000000E+01 0.  1.
         -5    1    3    3    0  502  0.20020899268E+02  0.43491589579E+02  0.91389537984E+02  0.10325635489E+03  0.41800000000E+01 0.  1.
        -11    1    1    2    0    0 -0.40097028381E+01 -0.34103537274E+02  0.44455712196E+02  0.56173297200E+02  0.00000000000E+00 0. -1.
         11    1    1    2    0    0  0.46529359877E+02 -0.11799545079E+02 -0.28885006259E+02  0.56022800547E+02  0.00000000000E+00 0.  1.
</event>
<event>
 7    1  0.2820496E-009  0.1284071E+03  0.7561462E-02  0.1229839E+00
          1   -1    0    0  501    0  0.00000000000E+00  0.00000000000E+00  0.21609046726E+03  0.21609046726E+03  0.00000000000E+00 0. -1.
         -1   -1    0    0    0  501 -0.00000000000E+00 -0.00000000000E+00 -0.10137367294E+03  0.10137367294E+03  0.00000000000E+00 0.  1.
         25    2    1    2    0    0  0.67884805201E+02 -0.65285203347E+02  0.13218365210E+03  0.20491365855E+03  0.12508631030E+03 0.  0.
          5    1    3    3  502    0  0.43427255819E+02 -0.10275553748E+03  0.93514128920E+02  0.14562620554E+03  0.41800000000E+01 0. -1.
         -5    1    3    3    0  502  0.24457549383E+02  0.37470334134E+02  0.38669523177E+02  0.59287453012E+02  0.41800000000E+01 0. -1.
        -11    1    1    2    0    0 -0.38373621739E+02  0.58493006134E+02 -0.34289824254E+02  0.77908655869E+02  0.00000000000E+00 0.  1.
         11    1    1    2    0    0 -0.29511183462E+02  0.67921972129E+01  0.16822966475E+02  0.34641825780E+02  0.00000000000E+00 0. -1.
</event>
<event>
 7    1  0.2820496E-009  0.8867358E+02  0.7561462E-02  0.1306096E+00
         -1   -1    0    0    0  501 -0.00000000000E+00  0.00000000000E+00  0.54440846640E+02  0.54440846640E+02  0.00000000000E+00 0.  1.
          1   -1    0    0  501    0  0.00000000000E+00 -0.00000000000E+00 -0.49610386661E+03  0.49610386661E+03  0.00000000000E+00 0. -1.
         25    2    1    2    0    0 -0.61722344922E+02  0.16148046032E+01 -0.41241283616E+03  0.43536646701E+03  0.12508939888E+03 0.  0.
          5    1    3    3  502    0 -0.70028932851E+02 -0.33755464781E+02 -0.13732248378E+03  0.15785569293E+03  0.41800000000E+01 0. -1.
         -5    1    3    3    0  502  0.83065879295E+01  0.35370269384E+02 -0.27509035238E+03  0.27751077408E+03  0.41800000000E+01 0. -1.
        -11    1    1    2    0    0  0.45829322936E+02  0.41493272787E+01 -0.62655619600E+02  0.77738474548E+02  0.00000000000E+00 0. -1.
         11    1    1    2    0    0  0.15893021986E+02 -0.57641318819E+01  0.33405435788E+02  0.37439771693E+02  0.00000000000E+00 0.  1.
</event>
<event>
 7    1  0.2820496E-009  0.1261332E+03  0.7561462E-02  0.1233309E+00
          2   -1    0    0  501    0  0.00000000000E+00  0.00000000000E+00  0.61024546871E+03  0.61024546871E+03  0.00000000000E+00 0. -1.
         -2   -1    0    0    0  501 -0.00000000000E+00 -0.00000000000E+00 -0.36253414639E+02  0.36253414639E+02  0.00000000000E+00 0.  1.
         25    2    1    2    0    0 -0.88181192018E+02  0.25871478591E+02  0.40756691073E+03  0.43612987405E+03  0.12511284622E+03 0.  0.
          5    1    3    3  502    0  0.24465777795E+02  0.13653012963E+02  0.27385450780E+02  0.39400689848E+02  0.41800000000E+01 0.  1.
         -5    1    3    3    0  502 -0.11264696981E+03  0.12218465629E+02  0.38018145995E+03  0.39672918421E+03  0.41800000000E+01 0.  1.
        -11    1    1    2    0    0  0.19951881019E+02  0.20069481594E+02  0.10209894901E+03  0.10594836967E+03  0.00000000000E+00 0. -1.
         11    1    1    2    0    0  0.68229310999E+02 -0.45940960185E+02  0.64326194336E+02  0.10442063963E+03  0.00000000000E+00 0.  1.
</event>
<event>
 7    1  0.2820496E-009  0.7149638E+02  0.7561462E-02  0.1355077E+00
          1   -1    0    0  501    0  0.00000000000E+00  0.00000000000E+00  0.97485845370E+02  0.97485845370E+02  0.00000000000E+00 0. -1.
         -1   -1    0    0    0  501 -0.00000000000E+00 -0.00000000000E+00 -0.13214714861E+03  0.13214714861E+03  0.00000000000E+00 0.  1.
         25    2    1    2    0    0 -0.13185896322E+01  0.31330434038E+02 -0.39604727314E+02  0.13490593643E+03  0.12509093685E+03 0.  0.
          5    1    3    3  502    0 -0.23036646919E+02  0.30348854709E+01  0.40635171371E+02  0.46995608129E+02  0.41800000000E+01 0. -1.
         -5    1    3    3    0  502  0.21718057287E+02  0.28295548568E+02 -0.80239898684E+02  0.87910328301E+02  0.41800000000E+01 0. -1.
        -11    1    1    2    0    0 -0.37099886484E+02 -0.24473386301E+02 -0.19653872286E+02  0.48596531872E+02  0.00000000000E+00 0.  1.
         11    1    1    2    0    0  0.38418476116E+02 -0.68570477374E+01  0.24597296363E+02  0.46130525676E+02  0.00000000000E+00 0. -1.
</event>
<event>
 7    1  0.3217004E-009  0.1196518E+03  0.7561462E-02  0.1243673E+00
         -2   -1    0    0    0  501 -0.00000000000E+00  0.00000000000E+00  0.13054389348E+02  0.13054389348E+02  0.00000000000E+00 0.  1.
          2   -1    0    0  501    0  0.00000000000E+00 -0.00000000000E+00 -0.21948353228E+04  0.21948353228E+04  0.00000000000E+00 0. -1.
         25    2    1    2    0    0  0.61194586717E+02  0.64757972870E+02 -0.17740625239E+04  0.17806973737E+04  0.12508767225E+03 0.  0.
          5    1    3    3  502    0 -0.10536986500E+02 -0.27185575877E+02 -0.18237331622E+03  0.18473652180E+03  0.41800000000E+01 0.  1.
         -5    1    3    3    0  502  0.71731573217E+02  0.91943548747E+02 -0.15916892077E+04  0.15959608519E+04  0.41800000000E+01 0.  1.
        -11    1    1    2    0    0 -0.44649296834E+02 -0.61972246198E+02 -0.40240941987E+03  0.40959426290E+03  0.00000000000E+00 0. -1.
         11    1    1    2    0    0 -0.16545289884E+02 -0.27857266722E+01 -0.53089897457E+01  0.17598075535E+02  0.00000000000E+00 0.  1.
</event>
<event>
 7    1  0.2820496E-009  0.1016246E+03  0.7561462E-02  0.1276916E+00
          2   -1    0    0  501    0  0.00000000000E+00  0.00000000000E+00  0.57135415345E+03  0.57135415345E+03  0.00000000000E+00 0.  1.
         -2   -1    0    0    0  501 -0.00000000000E+00 -0.00000000000E+00 -0.31493172433E+02  0.31493172433E+02  0.00000000000E+00 0. -1.
         25    2    1    2    0    0 -0.52756365291E+01  0.69426592088E+02  0.37758449173E+03  0.40381370242E+03  0.12509026278E+03 0.  0.
          5    1    3    3  502    0  0.43616632422E+02  0.17365925469E+01  0.53788010063E+02  0.69397757918E+02  0.41800000000E+01 0. -1.
         -5    1    3    3    0  502 -0.48892268951E+02  0.67689999541E+02  0.32379648166E+03  0.33441594450E+03  0.41800000000E+01 0. -1.
        -11    1    1    2    0    0  0.14101409901E+02 -0.14740899996E+02 -0.64914243946E+01  0.21407533360E+02  0.00000000000E+00 0. -1.
         11    1    1    2    0    0 -0.88257733717E+01 -0.54685692092E+02  0.16876791368E+03  0.17762609010E+03  0.00000000000E+00 0.  1.
</event>
<event>
 7    1  0.2820496E-009  0.2463650E+03  0.7561462E-02  0.1115624E+00
         -1   -1    0    0    0  501 -0.00000000000E+00  0.00000000000E+00  0.10917958267E+03  0.10917958267E+03  0.00000000000E+00 0.  1.
          1   -1    0    0  501    0  0.00000000000E+00 -0.00000000000E+00 -0.60471227111E+03  0.60471227111E+03  0.00000000000E+00 0. -1.
         25    2    1    2    0    0  0.10227081045E+03 -0.20847994925E+03 -0.28024623660E+03  0.38484903348E+03  0.12509043741E+03 0.  0.
          5    1    3    3  502    0 -0.85927476962E+01 -0.11352420593E+03 -0.90980635504E+02  0.14579619022E+03  0.41800000000E+01 0. -1.
         -5    1    3    3    0  502  0.11086355814E+03 -0.94955743320E+02 -0.18926560110E+03  0.23905284326E+03  0.41800000000E+01 0. -1.
        -11    1    1    2    0    0 -0.92190940135E+02  0.17484249818E+03 -0.21745147857E+03  0.29386087550E+03  0.00000000000E+00 0. -1.
         11    1    1    2    0    0 -0.10079870312E+02  0.33637451066E+02  0.21650267342E+01  0.35181944808E+02  0.00000000000E+00 0.  1.
</event>
<event>
 7    1  0.2820496E-009  0.1215053E+03  0.7561462E-02  0.1240634E+00
          2   -1    0    0  501    0  0.00000000000E+00  0.00000000000E+00  0.18716719829E+03  0.18716719829E+03  0.00000000000E+00 0. -1.
         -2   -1    0    0    0  501 -0.00000000000E+00 -0.00000000000E+00 -0.12399442073E+03  0.12399442073E+03  0.00000000000E+00 0.  1.
         25    2    1    2    0    0 -0.88043110479E+01 -0.73534193422E+02  0.11402716451E+03  0.18475077116E+03  0.12508341097E+03 0.  0.
          5    1    3    3  502    0 -0.26114428525E+02  0.23247798744E+02  0.14716759359E+01  0.35242896500E+02  0.41800000000E+01 0. -1.
         -5    1    3    3    0  502  0.17310117477E+02 -0.96781992167E+02  0.11255548858E+03  0.14950787466E+03  0.41800000000E+01 0. -1.
        -11    1    1    2    0    0  0.42251116538E+02  0.59833986237E+02 -0.13591339127E+02  0.74498236603E+02  0.00000000000E+00 0.  1.
         11    1    1    2    0    0 -0.33446805490E+02  0.13700207186E+02 -0.37263047833E+02  0.51912611263E+02  0.00000000000E+00 0. -1.
</event>
<event>
 7    1  0.2820496E-009  0.1030202E+03  0.7561462E-02  0.1274070E+00
         -3   -1    0    0    0  501 -0.00000000000E+00  0.00000000000E+00  0.48367859595E+02  0.48367859595E+02  0.00000000000E+00 0.  1.
          3   -1    0    0  501    0  0.00000000000E+00 -0.00000000000E+00 -0.29589702322E+03  0.29589702322E+03  0.00000000000E+00 0. -1.
         25    2    1    2    0    0 -0.29494186461E+02  0.17123236925E+02 -0.84072427733E+02  0.15452970421E+03  0.12509254215E+03 0.  0.
          5    1    3    3  502    0  0.29526644307E+02  0.49344233332E+02 -0.18592933472E+02  0.60579251087E+02  0.41800000000E+01 0. -1.
         -5    1    3    3    0  502 -0.59020830768E+02 -0.32220996406E+02 -0.65479494261E+02  0.93950453126E+02  0.41800000000E+01 0. -1.
        -11    1    1    2    0    0  0.42083547427E+02 -0.37955348886E+02 -0.56427697012E+02  0.79973235918E+02  0.00000000000E+00 0.  1.
         11    1    1    2    0    0 -0.12589360966E+02  0.20832111960E+02 -0.10702903888E+03  0.10976194269E+03  0.00000000000E+00 0. -1.
</event>
<event>
 7    1  0.2820496E-009  0.1070881E+03  0.7561462E-02  0.1266059E+00
         -3   -1    0    0    0  501 -0.00000000000E+00  0.00000000000E+00  0.46621519983E+02  0.46621519983E+02  0.00000000000E+00 0.  1.
          3   -1    0    0  501    0  0.00000000000E+00 -0.00000000000E+00 -0.40266697670E+03  0.40266697670E+03  0.00000000000E+00 0. -1.
         25    2    1    2    0    0 -0.62493297550E+02 -0.68377889499E+02 -0.20891687370E+03  0.26052006138E+03  0.12507395514E+03 0.  0.
          5    1    3    3  502    0 -0.11802002239E+02 -0.22201892464E+01 -0.16635961723E+03  0.16684487149E+03  0.41800000000E+01 0.  1.
         -5    1    3    3    0  502 -0.50691295310E+02 -0.66157700252E+02 -0.42557256467E+02  0.93675189890E+02  0.41800000000E+01 0.  1.
        -11    1    1    2    0    0  0.73501571037E+01 -0.15773054163E+02 -0.26320401733E+02  0.31552774751E+02  0.00000000000E+00 0.  1.
         11    1    1    2    0    0  0.55143140446E+02  0.84150943661E+02 -0.12080818128E+03  0.15721566055E+03  0.00000000000E+00 0. -1.
</event>
<event>
 7    1  0.2820496E-009  0.2101308E+03  0.7561462E-02  0.1141462E+00
          2   -1    0    0  501    0  0.00000000000E+00  0.00000000000E+00  0.70157812425E+03  0.70157812425E+03  0.00000000000E+00 0. -1.
         -2   -1    0    0    0  501 -0.00000000000E+00 -0.00000000000E+00 -0.78888910442E+02  0.78888910442E+02  0.00000000000E+00 0.  1.
         25    2    1    2    0    0  0.19589200274E+03 -0.37156735777E+02  0.39138577529E+03  0.45671048314E+03  0.12508933031E+03 0.  0.
          5    1    3    3  502    0  0.18687608154E+03 -0.48005924057E+02  0.25634125671E+03  0.32086687409E+03  0.41800000000E+01 0.  1.
         -5    1    3    3    0  502  0.90159212030E+01  0.10849188280E+02  0.13504451858E+03  0.13584360905E+03  0.41800000000E+01 0.  1.
        -11    1    1    2    0    0 -0.74567669754E+02  0.51159479565E+02  0.15588821351E+03  0.18021865840E+03  0.00000000000E+00 0.  1.
         11    1    1    2    0    0 -0.12132433299E+03 -0.14002743788E+02  0.75415225003E+02  0.14353789315E+03  0.00000000000E+00 0. -1.
</event>
<event>
 7    1  0.4443858E-009  0.1869360E+03  0.7561462E-02  0.1161254E+00
          2   -1    0    0  501    0  0.00000000000E+00  0.00000000000E+00  0.41872987988E+03  0.41872987988E+03  0.00000000000E+00 0. -1.
         -2   -1    0    0    0  501 -0.00000000000E+00 -0.00000000000E+00 -0.10106722306E+03  0.10106722306E+03  0.00000000000E+00 0.  1.
         25    2    1    2    0    0  0.34923478083E+02  0.15866470012E+03  0.24684198770E+03  0.32087374346E+03  0.12503941765E+03 0.  0.
          5    1    3    3  502    0  0.80452106060E+02  0.78593807588E+02  0.14365071132E+03  0.18248980033E+03  0.41800000000E+01 0.  1.
         -5    1    3    3    0  502 -0.45528627977E+02  0.80070892532E+02  0.10319127638E+03  0.13838394313E+03  0.41800000000E+01 0.  1.
        -11    1    1    2    0    0 -0.34799442259E+02 -0.52688207691E+02 -0.12186445298E+02  0.64308303198E+02  0.00000000000E+00 0.  1.
         11    1    1    2    0    0 -0.12403582436E+00 -0.10597649243E+03  0.83007114422E+02  0.13461505628E+03  0.00000000000E+00 0. -1.
</event>
<event>
 7    1  0.2820496E-009  0.1197979E+03  0.7561462E-02  0.1243431E+00
         -1   -1    0    0    0  501 -0.00000000000E+00  0.00000000000E+00  0.13855362996E+03  0.13855362996E+03  0.00000000000E+00 0.  1.
          1   -1    0    0  501    0  0.00000000000E+00 -0.00000000000E+00 -0.23420836180E+03  0.23420836180E+03  0.00000000000E+00 0. -1.
         25    2    1    2    0    0 -0.99524528776E+01 -0.91889328870E+02  0.63060825083E+02  0.16783009329E+03  0.12509025732E+03 0.  0.
          5    1    3    3  502    0 -0.84988178802E+01 -0.11866495972E+03  0.72161228165E+02  0.13920602652E+03  0.41800000000E+01 0.  1.
         -5    1    3    3    0  502 -0.14536349974E+01  0.26775630848E+02 -0.91004030828E+01  0.28624066767E+02  0.41800000000E+01 0.  1.
        -11    1    1    2    0    0  0.13165842187E+02  0.63957001409E+02 -0.16382133509E+03  0.17635551384E+03  0.00000000000E+00 0. -1.
         11    1    1    2    0    0 -0.32133893096E+01  0.27932327461E+02  0.51057781686E+01  0.28576384638E+02  0.00000000000E+00 0.  1.
</event>
<event>
 7    1  0.2820496E-009  0.1018288E+03  0.7561462E-02  0.1276497E+00
          1   -1    0    0  501    0  0.00000000000E+00  0.00000000000E+00  0.44409505424E+03  0.44409505424E+03  0.00000000000E+00 0. -1.
         -1   -1    0    0    0  501 -0.00000000000E+00 -0.00000000000E+00 -0.32026884982E+02  0.32026884982E+02  0.00000000000E+00 0.  1.
         25    2    1    2    0    0 -0.15789858217E+02  0.34011969820E+02  0.16802683666E+03  0.21280567049E+03  0.12508837614E+03 0.  0.
          5    1    3    3  502    0  0.39496991661E+02 -0.49615350510E+00  0.13278186723E+03  0.13859565355E+03  0.41800000000E+01 0. -1.
         -5    1    3    3    0  502 -0.55286849878E+02  0.34508123325E+02  0.35244969429E+02  0.74210016945E+02  0.41800000000E+01 0. -1.
        -11    1    1    2    0    0 -0.59834991830E+01  0.30221015973E+02  0.67626340491E+02  0.74313080929E+02  0.00000000000E+00 0. -1.
         11    1    1    2    0    0  0.21773357400E+02 -0.64232985794E+02  0.17641499211E+03  0.18900318780E+03  0.00000000000E+00 0.  1.
</event>
<event>
 7    1  0.2820496E-009  0.1686892E+03  0.7561462E-02  0.1179222E+00
          2   -1    0    0  501    0  0.00000000000E+00  0.00000000000E+00  0.43468745555E+03  0.43468745555E+03  0.00000000000E+00 0. -1.
         -2   -1    0    0    0  501 -0.00000000000E+00 -0.00000000000E+00 -0.73115738329E+02  0.73115738329E+02  0.00000000000E+00 0.  1.
         25    2    1    2    0    0 -0.13118457270E+03 -0.75293404780E+01  0.12252860158E+03  0.21892238497E+03  0.12509064455E+03 0.  0.
          5    1    3    3  502    0 -0.69190696578E+02  0.58232271809E+02  0.68710409539E+02  0.11365272875E+03  0.41800000000E+01 0. -1.
         -5    1    3    3    0  502 -0.61993876119E+02 -0.65761612287E+02  0.53818192042E+02  0.10526965622E+03  0.41800000000E+01 0. -1.
        -11    1    1    2    0    0  0.13462080558E+03 -0.13288780977E+02  0.17336844147E+03  0.21989990789E+03  0.00000000000E+00 0.  1.
         11    1    1    2    0    0 -0.34362328785E+01  0.20818121455E+02  0.65674674168E+02  0.68980901011E+02  0.00000000000E+00 0. -1.
</event>
<event>
 7    1  0.2820496E-009  0.1199149E+03  0.7561462E-02  0.1243237E+00
          2   -1    0    0  501    0  0.00000000000E+00  0.00000000000E+00  0.18284687121E+03  0.18284687121E+03  0.00000000000E+00 0. -1.
         -2   -1    0    0    0  501 -0.00000000000E+00 -0.00000000000E+00 -0.89406027822E+02  0.89406027822E+02  0.00000000000E+00 0.  1.
         25    2    1    2    0    0 -0.59567891680E+02 -0.20622113195E+02  0.76033714835E+02  0.15938047028E+03  0.12508958088E+03 0.  0.
          5    1    3    3  502    0 -0.97479082996E+02 -0.26024694424E+02  0.48450789808E+02  0.11200182041E+03  0.41800000000E+01 0. -1.
         -5    1    3    3    0  502  0.37911191316E+02  0.54025812289E+01  0.27582925027E+02  0.47378649875E+02  0.41800000000E+01 0. -1.
        -11    1    1    2    0    0  0.65071078052E+01 -0.27765293943E+02 -0.17046663091E+02  0.33224128616E+02  0.00000000000E+00 0.  1.
         11    1    1    2    0    0  0.53060783875E+02  0.48387407139E+02  0.34453791641E+02  0.79648300129E+02  0.00000000000E+00 0. -1.
</event>
<event>
 7    1  0.2820496E-009  0.1085595E+03  0.7561462E-02  0.1263261E+00
          1   -1    0    0  501    0  0.00000000000E+00  0.00000000000E+00  0.22275328018E+03  0.22275328018E+03  0.00000000000E+00 0. -1.
         -1   -1    0    0    0  501 -0.00000000000E+00 -0.00000000000E+00 -0.10174371672E+03  0.10174371672E+03  0.00000000000E+00 0.  1.
         25    2    1    2    0    0 -0.69348860384E+02 -0.19718907157E+02 -0.14708611302E+02  0.14513307882E+03  0.12509663299E+03 0.  0.
          5    1    3    3  502    0 -0.48698060553E+02  0.26609193863E+02 -0.56480849893E+02  0.79291292740E+02  0.41800000000E+01 0. -1.
         -5    1    3    3    0  502 -0.20650799831E+02 -0.46328101019E+02  0.41772238591E+02  0.65841786083E+02  0.41800000000E+01 0. -1.
        -11    1    1    2    0    0 -0.47748212830E+00  0.38311622617E+02  0.77927888924E+02  0.86837574177E+02  0.00000000000E+00 0. -1.
         11    1    1    2    0    0  0.69826342513E+02 -0.18592715460E+02  0.57790285840E+02  0.92526343894E+02  0.00000000000E+00 0.  1.
</event>
<event>
 7    1  0.3767914E-009  0.2714062E+03  0.7561462E-02  0.1100477E+00
         -2   -1    0    0    0  501 -0.00000000000E+00  0.00000000000E+00  0.13541128830E+03  0.13541128830E+03  0.00000000000E+00 0.  1.
          2   -1    0    0  501    0  0.00000000000E+00 -0.00000000000E+00 -0.66892274119E+03  0.66892274119E+03  0.00000000000E+00 0. -1.
         25    2    1    2    0    0  0.26799475226E+03 -0.43774357874E+01 -0.16142463472E+03  0.33696393660E+03  0.12508570138E+03 0.  0.
          5    1    3    3  502    0  0.18800121279E+03 -0.36502871604E+01 -0.17358120992E+03  0.25594079285E+03  0.41800000000E+01 0.  1.
         -5    1    3    3    0  502  0.79993539475E+02 -0.72714862693E+00  0.12156575200E+02  0.81023143752E+02  0.41800000000E+01 0.  1.
        -11    1    1    2    0    0 -0.93339522962E+02  0.30125006931E+02 -0.18957924361E+03  0.21344805503E+03  0.00000000000E+00 0. -1.
         11    1    1    2    0    0 -0.17465522930E+03 -0.25747571144E+02 -0.18250757455E+03  0.25392203786E+03  0.00000000000E+00 0.  1.
</event>
<event>
 7    1  0.2820496E-009  0.1373266E+03  0.7561462E-02  0.1216972E+00
         -2   -1    0    0    0  501 -0.00000000000E+00  0.00000000000E+00  0.63457303738E+02  0.63457303738E+02  0.00000000000E+00 0.  1.
          2   -1    0    0  501    0  0.00000000000E+00 -0.00000000000E+00 -0.75673568211E+03  0.75673568211E+03  0.00000000000E+00 0. -1.
         25    2    1    2    0    0 -0.11225214093E+03  0.25839813056E+02 -0.63880316437E+03  0.66104734625E+03  0.12508346050E+03 0.  0.
          5    1    3    3  502    0 -0.35780504487E+02  0.60604504828E+02 -0.15902425655E+03  0.17395211145E+03  0.41800000000E+01 0. -1.
         -5    1    3    3    0  502 -0.76471636440E+02 -0.34764691772E+02 -0.47977890782E+03  0.48709523480E+03  0.41800000000E+01 0. -1.
        -11    1    1    2    0    0  0.33309144398E+02  0.78353024207E+01  0.24839272756E+02  0.42283336383E+02  0.00000000000E+00 0.  1.
         11    1    1    2    0    0  0.78942996529E+02 -0.33675115476E+02 -0.79314486758E+02  0.11686230322E+03  0.00000000000E+00 0. -1.
</event>
<event>
 7    1  0.2820496E-009  0.1253202E+03  0.7561462E-02  0.1234570E+00
          2   -1    0    0  501    0  0.00000000000E+00  0.00000000000E+00  0.31444601573E+03  0.31444601573E+03  0.00000000000E+00 0. -1.
         -2   -1    0    0    0  501 -0.00000000000E+00 -0.00000000000E+00 -0.71817692972E+02  0.71817692972E+02  0.00000000000E+00 0.  1.
         25    2    1    2    0    0 -0.96388632607E+01  0.88341598810E+02  0.19654178534E+03  0.24934480167E+03  0.12508801290E+03 0.  0.
          5    1    3    3  502    0 -0.95376750834E+01 -0.28994164897E+02  0.18070272713E+02  0.35716046814E+02  0.41800000000E+01 0. -1.
         -5    1    3    3    0  502 -0.10118817722E+00  0.11733576371E+03  0.17847151263E+03  0.21362875486E+03  0.41800000000E+01 0. -1.
        -11    1    1    2    0    0  0.30416042599E+02 -0.44431261153E+02 -0.17755315433E+02  0.56696770994E+02  0.00000000000E+00 0.  1.
         11    1    1    2    0    0 -0.20777179338E+02 -0.43910337656E+02  0.63841852848E+02  0.80222136031E+02  0.00000000000E+00 0. -1.
</event>
<event>
 7    1  0.2820496E-009  0.1166944E+03  0.7561462E-02  0.1248652E+00
         -3   -1    0    0    0  501 -0.00000000000E+00  0.00000000000E+00  0.54486017478E+02  0.54486017478E+02  0.00000000000E+00 0.  1.
          3   -1    0    0  501    0  0.00000000000E+00 -0.00000000000E+00 -0.40438451598E+03  0.40438451598E+03  0.00000000000E+00 0. -1.
         25    2    1    2    0    0 -0.13303930042E+02 -0.85547033708E+02 -0.27110556374E+03  0.31087117836E+03  0.12508946124E+03 0.  0.
          5    1    3    3  502    0 -0.27437409647E+02 -0.33067345586E+01 -0.81532894535E+00  0.27962172714E+02  0.41800000000E+01 0.  1.
         -5    1    3    3    0  502  0.14133479605E+02 -0.82240299149E+02 -0.27029023480E+03  0.28290900565E+03  0.41800000000E+01 0.  1.
        -11    1    1    2    0    0  0.43121449317E+01  0.10255702207E+03 -0.77679109989E+02  0.12872677071E+03  0.00000000000E+00 0. -1.
         11    1    1    2    0    0  0.89917851107E+01 -0.17009988358E+02 -0.11138247725E+01  0.19272584389E+02  0.00000000000E+00 0.  1.
</event>
<event>
 7    1  0.2820496E-009  0.1097446E+03  0.7561462E-02  0.1261044E+00
          2   -1    0    0  501    0  0.00000000000E+00  0.00000000000E+00  0.14254391254E+03  0.14254391254E+03  0.00000000000E+00 0. -1.
         -2   -1    0    0    0  501 -0.00000000000E+00 -0.00000000000E+00 -0.12341251240E+03  0.12341251240E+03  0.00000000000E+00 0.  1.
         25    2    1    2    0    0 -0.61755000346E+02  0.41356226772E+02 -0.48489216874E+01  0.14558147643E+03  0.12508571732E+03 0.  0.
          5    1    3    3  502    0 -0.64422047287E+02 -0.14461089016E+02  0.36853703860E+02  0.75729724418E+02  0.41800000000E+01 0. -1.
         -5    1    3    3    0  502  0.26670469413E+01  0.55817315788E+02 -0.41702625547E+02  0.69851752009E+02  0.41800000000E+01 0. -1.
        -11    1    1    2    0    0  0.47780018623E+02 -0.58269877142E+02  0.46811209755E+02  0.88710755383E+02  0.00000000000E+00 0. -1.
         11    1    1    2    0    0  0.13974981722E+02  0.16913650371E+02 -0.22830887927E+02  0.31664193130E+02  0.00000000000E+00 0.  1.
</event>
<event>
 7    1  0.2820496E-009  0.1234132E+03  0.7561462E-02  0.1237570E+00
         -2   -1    0    0    0  501 -0.00000000000E+00  0.00000000000E+00  0.16370413401E+03  0.16370413401E+03  0.00000000000E+00 0. -1.
          2   -1    0    0  501    0  0.00000000000E+00 -0.00000000000E+00 -0.11997308856E+03  0.11997308856E+03  0.00000000000E+00 0.  1.
         25    2    1    2    0    0 -0.84901611974E+02  0.45526646326E+01  0.52315279694E+00  0.15125183458E+03  0.12509129988E+03 0.  0.
          5    1    3    3  502    0  0.11465782417E+02  0.43299674459E+02  0.12298924042E+02  0.46637558977E+02  0.41800000000E+01 0. -1.
         -5    1    3    3    0  502 -0.96367394391E+02 -0.38747009827E+02 -0.11775771245E+02  0.10461427561E+03  0.41800000000E+01 0. -1.
        -11    1    1    2    0    0  0.82956642721E+01  0.16479498529E+02 -0.22665965926E+02  0.29225638211E+02  0.00000000000E+00 0.  1.
         11    1    1    2    0    0  0.76605947702E+02 -0.21032163161E+02  0.65873858577E+02  0.10319974978E+03  0.00000000000E+00 0. -1.
</event>
<event>
 7    1  0.2820496E-009  0.9882007E+02  0.7561462E-02  0.1282797E+00
          3   -1    0    0  501    0  0.00000000000E+00  0.00000000000E+00  0.41435202911E+02  0.41435202911E+02  0.00000000000E+00 0. -1.
         -3   -1    0    0    0  501 -0.00000000000E+00 -0.00000000000E+00 -0.42490726412E+03  0.42490726412E+03  0.00000000000E+00 0.  1.
         25    2    1    2    0    0  0.74629802715E+02 -0.30488537042E+01 -0.24220971468E+03  0.28265065185E+03  0.12508773779E+03 0.  0.
          5    1    3    3  502    0  0.47114208554E+02 -0.41125858839E+02 -0.22314265617E+03  0.23177834738E+03  0.41800000000E+01 0. -1.
         -5    1    3    3    0  502  0.27515594161E+02  0.38077005135E+02 -0.19067058511E+02  0.50872304472E+02  0.41800000000E+01 0. -1.
        -11    1    1    2    0    0 -0.20614891025E+02  0.22380463829E+02 -0.11787317458E+03  0.12173719308E+03  0.00000000000E+00 0.  1.
         11    1    1    2    0    0 -0.54014911690E+02 -0.19331610125E+02 -0.23389171951E+02  0.61954622099E+02  0.00000000000E+00 0. -1.
</event>
<event>
 7    1  0.2820496E-009  0.8095058E+02  0.7561462E-02  0.1326375E+00
         -2   -1    0    0    0  501 -0.00000000000E+00  0.00000000000E+00  0.45447678193E+02  0.45447678193E+02  0.00000000000E+00 0.  1.
          2   -1    0    0  501    0  0.00000000000E+00 -0.00000000000E+00 -0.35198578839E+03  0.35198578839E+03  0.00000000000E+00 0. -1.
         25    2    1    2    0    0  0.43018977271E+02  0.43194831827E+02 -0.21901603635E+03  0.25948017120E+03  0.12508200977E+03 0.  0.
          5    1    3    3  502    0  0.33825412504E+02  0.18163197902E+02  0.18769366324E+00  0.38620822337E+02  0.41800000000E+01 0. -1.
         -5    1    3    3    0  502  0.91935647678E+01  0.25031633925E+02 -0.21920373001E+03  0.22085934886E+03  0.41800000000E+01 0. -1.
        -11    1    1    2    0    0 -0.51615371130E+02  0.63950099033E+00 -0.16760705950E+02  0.54272246704E+02  0.00000000000E+00 0.  1.
         11    1    1    2    0    0  0.85963938584E+01 -0.43834332817E+02 -0.70761367904E+02  0.83681048682E+02  0.00000000000E+00 0. -1.
</event>
<event>
 7    1  0.2820496E-009  0.2230667E+03  0.7561462E-02  0.1131617E+00
         -2   -1    0    0    0  501 -0.00000000000E+00  0.00000000000E+00  0.76439884398E+02  0.76439884398E+02  0.00000000000E+00 0.  1.
          2   -1    0    0  501    0  0.00000000000E+00 -0.00000000000E+00 -0.67080331352E+03  0.67080331352E+03  0.00000000000E+00 0. -1.
         25    2    1    2    0    0 -0.78955161072E+02  0.18175337850E+03 -0.32746513212E+03  0.40267975659E+03  0.12509742428E+03 0.  0.
          5    1    3    3  502    0 -0.66788973359E+02  0.17220802028E+02 -0.10454680788E+03  0.12531891487E+03  0.41800000000E+01 0.  1.
         -5    1    3    3    0  502 -0.12166187713E+02  0.16453257647E+03 -0.22291832423E+03  0.27736084172E+03  0.41800000000E+01 0.  1.
        -11    1    1    2    0    0 -0.42948158826E+01 -0.81819400326E+02 -0.14367720851E+03  0.16539649319E+03  0.00000000000E+00 0. -1.
         11    1    1    2    0    0  0.83249976955E+02 -0.99933978170E+02 -0.12322108849E+03  0.17916694814E+03  0.00000000000E+00 0.  1.
</event>
<event>
 7    1  0.2820496E-009  0.1644482E+03  0.7561462E-02  0.1183764E+00
         -3   -1    0    0    0  501 -0.00000000000E+00  0.00000000000E+00  0.67684813753E+02  0.67684813753E+02  0.00000000000E+00 0.  1.
          3   -1    0    0  501    0  0.00000000000E+00 -0.00000000000E+00 -0.62491687792E+03  0.62491687792E+03  0.00000000000E+00 0. -1.
         25    2    1    2    0    0 -0.76831077229E+02 -0.14121870349E+03 -0.40439980430E+03  0.45280531790E+03  0.12509083720E+03 0.  0.
          5    1    3    3  502    0 -0.69880777849E+01 -0.58288108620E+02 -0.36534212426E+02  0.69271624171E+02  0.41800000000E+01 0.  1.
         -5    1    3    3    0  502 -0.69842999444E+02 -0.82930594872E+02 -0.36786559188E+03  0.38353369373E+03  0.41800000000E+01 0.  1.
        -11    1    1    2    0    0  0.39344154659E+02  0.56000697792E+02 -0.98057566831E+01  0.69138943608E+02  0.00000000000E+00 0.  1.
         11    1    1    2    0    0  0.37486922570E+02  0.85218005701E+02 -0.14302650318E+03  0.17065743017E+03  0.00000000000E+00 0. -1.
</event>
<event>
 7    1  0.2820496E-009  0.2580044E+03  0.7561462E-02  0.1108348E+00
         -1   -1    0    0    0  501 -0.00000000000E+00  0.00000000000E+00  0.11166267639E+03  0.11166267639E+03  0.00000000000E+00 0.  1.
          1   -1    0    0  501    0  0.00000000000E+00 -0.00000000000E+00 -0.66611817006E+03  0.66611817006E+03  0.00000000000E+00 0. -1.
         25    2    1    2    0    0  0.23869766117E+03 -0.68339446039E+02 -0.24550328550E+03  0.37089883849E+03  0.12508889584E+03 0.  0.
          5    1    3    3  502    0  0.18294143154E+03 -0.57737038480E+01 -0.11648760078E+03  0.21699708884E+03  0.41800000000E+01 0.  1.
         -5    1    3    3    0  502  0.55756229630E+02 -0.62565742191E+02 -0.12901568472E+03  0.15390174964E+03  0.41800000000E+01 0.  1.
        -11    1    1    2    0    0 -0.16755817553E+03  0.56964882777E+02 -0.27551192233E+03  0.32745619463E+03  0.00000000000E+00 0. -1.
         11    1    1    2    0    0 -0.71139485648E+02  0.11374563262E+02 -0.33440285837E+02  0.79425813339E+02  0.00000000000E+00 0.  1.
</event>
<event>
 7    1  0.2820496E-009  0.9529237E+02  0.7561462E-02  0.1290519E+00
          2   -1    0    0  501    0  0.00000000000E+00  0.00000000000E+00  0.60814600211E+03  0.60814600211E+03  0.00000000000E+00 0. -1.
         -2   -1    0    0    0  501 -0.00000000000E+00 -0.00000000000E+00 -0.36687505883E+02  0.36687505883E+02  0.00000000000E+00 0.  1.
         25    2    1    2    0    0  0.69358780634E+02 -0.23372504374E+02  0.15267005686E+03  0.21050350202E+03  0.12508662474E+03 0.  0.
          5    1    3    3  502    0  0.82789159572E+02 -0.26695458035E+02  0.16812628705E+03  0.18934258164E+03  0.41800000000E+01 0. -1.
         -5    1    3    3    0  502 -0.13430378938E+02  0.33229536608E+01 -0.15456230195E+02  0.21160920379E+02  0.41800000000E+01 0. -1.
        -11    1    1    2    0    0 -0.73749045655E+02  0.93360848776E+01  0.41103753533E+03  0.41770556576E+03  0.00000000000E+00 0. -1.
         11    1    1    2    0    0  0.43902650211E+01  0.14036419496E+02  0.77509040423E+01  0.16624440222E+02  0.00000000000E+00 0.  1.
</event>
<event>
 7    1  0.2820496E-009  0.1036769E+03  0.7561462E-02  0.1272749E+00
          1   -1    0    0  501    0  0.00000000000E+00  0.00000000000E+00  0.16784656333E+03  0.16784656333E+03  0.00000000000E+00 0. -1.
         -1   -1    0    0    0  501 -0.00000000000E+00 -0.00000000000E+00 -0.90021525798E+02  0.90021525798E+02  0.00000000000E+00 0.  1.
         25    2    1    2    0    0 -0.59557563557E+02 -0.64492089879E+00  0.45437424575E+02  0.14580742677E+03  0.12509087436E+03 0.  0.
          5    1    3    3  502    0  0.13507310713E+02  0.32212900504E+02  0.54717123810E+02  0.65050399228E+02  0.41800000000E+01 0.  1.
         -5    1    3    3    0  502 -0.73064874270E+02 -0.32857821403E+02 -0.92796992354E+01  0.80757027541E+02  0.41800000000E+01 0.  1.
        -11    1    1    2    0    0  0.34684009468E+02  0.35173199748E+02 -0.11722478319E+02  0.50769587267E+02  0.00000000000E+00 0.  1.
         11    1    1    2    0    0  0.24873554088E+02 -0.34528278850E+02  0.44110091272E+02  0.61291075087E+02  0.00000000000E+00 0. -1.
</event>
<event>
 7    1  0.2820496E-009  0.1057904E+03  0.7561462E-02  0.1268570E+00
         -1   -1    0    0    0  501 -0.00000000000E+00  0.00000000000E+00  0.71736272409E+02  0.71736272409E+02  0.00000000000E+00 0.  1.
          1   -1    0    0  501    0  0.00000000000E+00 -0.00000000000E+00 -0.30473051148E+03  0.30473051148E+03  0.00000000000E+00 0. -1.
         25    2    1    2    0    0  0.33955259286E+02 -0.57630373660E+02 -0.33151750792E+02  0.14567594979E+03  0.12509286217E+03 0.  0.
          5    1    3    3  502    0 -0.11387911352E+02 -0.74182328369E+02  0.15790236994E+02  0.76808244033E+02  0.41800000000E+01 0. -1.
         -5    1    3    3    0  502  0.45343170638E+02  0.16551954708E+02 -0.48941987786E+02  0.68867705760E+02  0.41800000000E+01 0. -1.
        -11    1    1    2    0    0 -0.20689796609E+02 -0.71098904303E+01 -0.17286714209E+01  0.21945535549E+02  0.00000000000E+00 0.  1.
         11    1    1    2    0    0 -0.13265462677E+02  0.64740264090E+02 -0.19811381686E+03  0.20884529854E+03  0.00000000000E+00 0. -1.
</event>
<event>
 7    1  0.2820496E-009  0.1224481E+03  0.7561462E-02  0.1239112E+00
          1   -1    0    0  501    0  0.00000000000E+00  0.00000000000E+00  0.35810772610E+03  0.35810772610E+03  0.00000000000E+00 0. -1.
         -1   -1    0    0    0  501 -0.00000000000E+00 -0.00000000000E+00 -0.55128158152E+02  0.55128158152E+02  0.00000000000E+00 0.  1.
         25    2    1    2    0    0  0.78290387563E+02 -0.39529836243E+02  0.18578072437E+03  0.24052803510E+03  0.12508902983E+03 0.  0.
          5    1    3    3  502    0 -0.40181289708E+01 -0.65422224844E+02  0.91808140266E+02  0.11288232759E+03  0.41800000000E+01 0. -1.
         -5    1    3    3    0  502  0.82308516534E+02  0.25892388602E+02  0.93972584104E+02  0.12764570751E+03  0.41800000000E+01 0. -1.
        -11    1    1    2    0    0 -0.74571844366E+02  0.26276026501E+02  0.13113035890E+03  0.15312269775E+03  0.00000000000E+00 0. -1.
         11    1    1    2    0    0 -0.37185431966E+01  0.13253809742E+02 -0.13931515324E+02  0.19585151401E+02  0.00000000000E+00 0.  1.
</event>
<event>
 7    1  0.2820496E-009  0.9861966E+02  0.7561462E-02  0.1283226E+00
          2   -1    0    0  501    0  0.00000000000E+00  0.00000000000E+00  0.72910481278E+03  0.72910481278E+03  0.00000000000E+00 0. -1.
         -2   -1    0    0    0  501 -0.00000000000E+00 -0.00000000000E+00 -0.15417512224E+02  0.15417512224E+02  0.00000000000E+00 0.  1.
         25    2    1    2    0    0  0.10867153870E+02  0.17041131633E+01  0.34406238196E+03  0.36626134889E+03  0.12508978367E+03 0.  0.
          5    1    3    3  502    0  0.42638791022E+01 -0.58095556237E+02  0.22926698956E+03  0.23658845961E+03  0.41800000000E+01 0. -1.
         -5    1    3    3    0  502  0.66032747678E+01  0.59799669400E+02  0.11479539239E+03  0.12967288928E+03  0.41800000000E+01 0. -1.
        -11    1    1    2    0    0 -0.25790641942E+02 -0.34162619174E+02  0.16067069779E+03  0.16627481737E+03  0.00000000000E+00 0.  1.
         11    1    1    2    0    0  0.14923488072E+02  0.32458506011E+02  0.20895422081E+03  0.21198615875E+03  0.00000000000E+00 0. -1.
</event>
<event>
 7    1  0.2820496E-009  0.1586466E+03  0.7561462E-02  0.1190233E+00
          2   -1    0    0  501    0  0.00000000000E+00  0.00000000000E+00  0.22795910788E+03  0.22795910788E+03  0.00000000000E+00 0. -1.
         -2   -1    0    0    0  501 -0.00000000000E+00 -0.00000000000E+00 -0.12591844522E+03  0.12591844522E+03  0.00000000000E+00 0.  1.
         25    2    1    2    0    0 -0.63469185482E+02  0.10093280240E+03  0.12613052198E+01  0.17281488585E+03  0.12509047036E+03 0.  0.
          5    1    3    3  502    0 -0.91913101730E+02  0.10893535237E+03 -0.32768945042E+01  0.14262937882E+03  0.41800000000E+01 0.  1.
         -5    1    3    3    0  502  0.28443916248E+02 -0.80025499751E+01  0.45381997240E+01  0.30185507025E+02  0.41800000000E+01 0.  1.
        -11    1    1    2    0    0 -0.38774331481E+01 -0.71091653593E+02  0.25202502034E+02  0.75526312019E+02  0.00000000000E+00 0.  1.
         11    1    1    2    0    0  0.67346618630E+02 -0.29841148805E+02  0.75576855403E+02  0.10553635523E+03  0.00000000000E+00 0. -1.
</event>
<event>
 7    1  0.2820496E-009  0.1095159E+03  0.7561462E-02  0.1261469E+00
         -1   -1    0    0    0  501 -0.00000000000E+00  0.00000000000E+00  0.27902940902E+02  0.27902940902E+02  0.00000000000E+00 0.  1.
          1   -1    0    0  501    0  0.00000000000E+00 -0.00000000000E+00 -0.72276305587E+03  0.72276305587E+03  0.00000000000E+00 0. -1.
         25    2    1    2    0    0  0.53520523236E+02 -0.71304208717E+02 -0.42150636680E+03  0.44862474672E+03  0.12509120485E+03 0.  0.
          5    1    3    3  502    0  0.27238548636E+02 -0.24388632304E+02 -0.37673074298E+03  0.37852380245E+03  0.41800000000E+01 0.  1.
         -5    1    3    3    0  502  0.26281974600E+02 -0.46915576413E+02 -0.44775623821E+02  0.70100944270E+02  0.41800000000E+01 0.  1.
        -11    1    1    2    0    0 -0.68692962602E+02  0.15440661778E+02 -0.15801655781E+03  0.17299239778E+03  0.00000000000E+00 0.  1.
         11    1    1    2    0    0  0.15172439365E+02  0.55863546939E+02 -0.11533719036E+03  0.12904885227E+03  0.00000000000E+00 0. -1.
</event>
<event>
 7    1  0.2820496E-009  0.1042905E+03  0.7561462E-02  0.1271524E+00
         -2   -1    0    0    0  501 -0.00000000000E+00  0.00000000000E+00  0.51364470832E+02  0.51364470832E+02  0.00000000000E+00 0. -1.
          2   -1    0    0  501    0  0.00000000000E+00 -0.00000000000E+00 -0.32171718718E+03  0.32171718718E+03  0.00000000000E+00 0.  1.
         25    2    1    2    0    0  0.83571585905E+01  0.59876096242E+02 -0.10377130988E+03  0.17340524197E+03  0.12508358880E+03 0.  0.
          5    1    3    3  502    0 -0.82334597327E+01  0.80678408296E+02 -0.11776824995E+03  0.14305113953E+03  0.41800000000E+01 0. -1.
         -5    1    3    3    0  502  0.16590618323E+02 -0.20802312054E+02  0.13996940077E+02  0.30354102435E+02  0.41800000000E+01 0. -1.
        -11    1    1    2    0    0  0.21417146927E+02  0.10627349069E+02 -0.11058251609E+02  0.26342354857E+02  0.00000000000E+00 0. -1.
         11    1    1    2    0    0 -0.29774305518E+02 -0.70503445312E+02 -0.15552315487E+03  0.17333406119E+03  0.00000000000E+00 0.  1.
</event>
<event>
 7    1  0.2820496E-009  0.1071083E+03  0.7561462E-02  0.1266021E+00
          1   -1    0    0  501    0  0.00000000000E+00  0.00000000000E+00  0.97435400056E+03  0.97435400056E+03  0.00000000000E+00 0. -1.
         -1   -1    0    0    0  501 -0.00000000000E+00 -0.00000000000E+00 -0.13751009838E+02  0.13751009838E+02  0.00000000000E+00 0.  1.
         25    2    1    2    0    0 -0.10998221503E+02  0.50091831161E+02  0.63108917731E+03  0.64540552429E+03  0.12507833002E+03 0.  0.
          5    1    3    3  502    0 -0.36736137518E+02  0.76837995631E+02  0.28998245209E+03  0.30225968353E+03  0.41800000000E+01 0.  1.
         -5    1    3    3    0  502  0.25737916015E+02 -0.26746164470E+02  0.34110672522E+03  0.34314584075E+03  0.41800000000E+01 0.  1.
        -11    1    1    2    0    0 -0.25713930991E+02 -0.48441583292E+02  0.23446462970E+03  0.24079338823E+03  0.00000000000E+00 0. -1.
         11    1    1    2    0    0  0.36712152494E+02 -0.16502478685E+01  0.95049183717E+02  0.10190609787E+03  0.00000000000E+00 0.  1.
</event>
<event>
 7    1  0.2820496E-009  0.1132276E+03  0.7561462E-02  0.1254707E+00
         -1   -1    0    0    0  501 -0.00000000000E+00  0.00000000000E+00  0.22128763282E+02  0.22128763282E+02  0.00000000000E+00 0.  1.
          1   -1    0    0  501    0  0.00000000000E+00 -0.00000000000E+00 -0.70954309676E+03  0.70954309676E+03  0.00000000000E+00 0. -1.
         25    2    1    2    0    0  0.45738345178E+02  0.56145904830E+01 -0.26095375784E+03  0.29303252653E+03  0.12509067921E+03 0.  0.
          5    1    3    3  502    0 -0.34008989891E+02  0.24072208725E+02 -0.42300012468E+02  0.59521811809E+02  0.41800000000E+01 0.  1.
         -5    1    3    3    0  502  0.79747335068E+02 -0.18457618242E+02 -0.21865374537E+03  0.23351071472E+03  0.41800000000E+01 0.  1.
        -11    1    1    2    0    0  0.19379914234E+02 -0.27743470518E+02 -0.13597516056E+03  0.14012325118E+03  0.00000000000E+00 0. -1.
         11    1    1    2    0    0 -0.65118259412E+02  0.22128880035E+02 -0.29048541507E+03  0.29851608233E+03  0.00000000000E+00 0.  1.
</event>
<event>
 7    1  0.2820496E-009  0.1269661E+03  0.7561462E-02  0.1232028E+00
          1   -1    0    0  501    0  0.00000000000E+00  0.00000000000E+00  0.12009340583E+04  0.12009340583E+04  0.00000000000E+00 0. -1.
         -1   -1    0    0    0  501 -0.00000000000E+00 -0.00000000000E+00 -0.16600473858E+02  0.16600473858E+02  0.00000000000E+00 0.  1.
         25    2    1    2    0    0  0.15935035186E+02  0.81442330937E+02  0.78534561857E+03  0.79956364021E+03  0.12508994973E+03 0.  0.
          5    1    3    3  502    0 -0.27813625573E+02 -0.23255340211E+02  0.18060110169E+03  0.18425156430E+03  0.41800000000E+01 0. -1.
         -5    1    3    3    0  502  0.43748660759E+02  0.10469767115E+03  0.60474451688E+03  0.61531207591E+03  0.41800000000E+01 0. -1.
        -11    1    1    2    0    0 -0.39239315350E+01 -0.89397271715E+02  0.39176602107E+03  0.40185555203E+03  0.00000000000E+00 0.  1.
         11    1    1    2    0    0 -0.12011103651E+02  0.79549407783E+01  0.72219447777E+01  0.16115339899E+02  0.00000000000E+00 0. -1.
</event>
<event>
 7    1  0.2820496E-009  0.1277848E+03  0.7561462E-02  0.1230780E+00
         -3   -1    0    0    0  501 -0.00000000000E+00  0.00000000000E+00  0.93590585607E+02  0.93590585607E+02  0.00000000000E+00 0.  1.
          3   -1    0    0  501    0  0.00000000000E+00 -0.00000000000E+00 -0.21461138433E+03  0.21461138433E+03  0.00000000000E+00 0. -1.
         25    2    1    2    0    0 -0.46346424385E+02  0.67577227029E+02 -0.20504217628E+02  0.15094114087E+03  0.12509249539E+03 0.  0.
          5    1    3    3  502    0  0.28725849047E+02 -0.11949539263E+02  0.16432992121E+02  0.35432774688E+02  0.41800000000E+01 0. -1.
         -5    1    3    3    0  502 -0.75072273432E+02  0.79526766292E+02 -0.36937209749E+02  0.11550836619E+03  0.41800000000E+01 0. -1.
        -11    1    1    2    0    0  0.47186329330E+02 -0.34055196698E-01 -0.66746318493E+02  0.81741188319E+02  0.00000000000E+00 0. -1.
         11    1    1    2    0    0 -0.83990494548E+00 -0.67543171832E+02 -0.33770262598E+02  0.75519640739E+02  0.00000000000E+00 0.  1.
</event>
<event>
 7    1  0.2820496E-009  0.1210028E+03  0.7561462E-02  0.1241452E+00
         -1   -1    0    0    0  501 -0.00000000000E+00  0.00000000000E+00  0.15141225145E+03  0.15141225145E+03  0.00000000000E+00 0.  1.
          1   -1    0    0  501    0  0.00000000000E+00 -0.00000000000E+00 -0.14335363890E+03  0.14335363890E+03  0.00000000000E+00 0. -1.
         25    2    1    2    0    0  0.12823540958E+01 -0.81633153012E+02 -0.52349039083E+02  0.15828283886E+03  0.12508964419E+03 0.  0.
          5    1    3    3  502    0 -0.43729189975E+02 -0.27270302316E+02 -0.68437161039E+02  0.85773124319E+02  0.41800000000E+01 0. -1.
         -5    1    3    3    0  502  0.45011544071E+02 -0.54362850696E+02  0.16088121957E+02  0.72509714546E+02  0.41800000000E+01 0. -1.
        -11    1    1    2    0    0 -0.38347745270E+02  0.11104498648E+02  0.34315787377E+02  0.52644398761E+02  0.00000000000E+00 0.  1.
         11    1    1    2    0    0  0.37065391175E+02  0.70528654364E+02  0.26091864256E+02  0.83838652719E+02  0.00000000000E+00 0. -1.
</event>
<event>
 7    1  0.2820496E-009  0.1085341E+03  0.7561462E-02  0.1263309E+00
          2   -1    0    0  501    0  0.00000000000E+00  0.00000000000E+00  0.46266932309E+03  0.46266932309E+03  0.00000000000E+00 0. -1.
         -2   -1    0    0    0  501 -0.00000000000E+00 -0.00000000000E+00 -0.26055907916E+02  0.26055907916E+02  0.00000000000E+00 0.  1.
         25    2    1    2    0    0 -0.21596979105E+02 -0.12578893249E+02  0.25703016878E+03  0.28694352518E+03  0.12508965150E+03 0.  0.
          5    1    3    3  502    0 -0.29975223849E+02 -0.66378890701E+02  0.14733549952E+03  0.16440770357E+03  0.41800000000E+01 0.  1.
         -5    1    3    3    0  502  0.83782447444E+01  0.53799997452E+02  0.10969466926E+03  0.12253582160E+03  0.41800000000E+01 0.  1.
        -11    1    1    2    0    0 -0.26381071496E+02 -0.18607771639E+02  0.43618186994E+02  0.54265609139E+02  0.00000000000E+00 0.  1.
         11    1    1    2    0    0  0.47978050600E+02  0.31186664888E+02  0.13596505939E+03  0.14751609669E+03  0.00000000000E+00 0. -1.
</event>
<event>
 7    1  0.2820496E-009  0.2648976E+03  0.7561462E-02  0.1104236E+00
         -1   -1    0    0    0  501 -0.00000000000E+00  0.00000000000E+00  0.10780686095E+04  0.10780686095E+04  0.00000000000E+00 0.  1.
          1   -1    0    0  501    0  0.00000000000E+00 -0.00000000000E+00 -0.82504938046E+02  0.82504938046E+02  0.00000000000E+00 0. -1.
         25    2    1    2    0    0 -0.24797446546E+03  0.21553038167E+01  0.73886874229E+03  0.78935065934E+03  0.12510581209E+03 0.  0.
          5    1    3    3  502    0 -0.14890324424E+03  0.62614056378E+02  0.43566899862E+03  0.46466939318E+03  0.41800000000E+01 0.  1.
         -5    1    3    3    0  502 -0.99071221222E+02 -0.60458752562E+02  0.30319974367E+03  0.32468126616E+03  0.41800000000E+01 0.  1.
        -11    1    1    2    0    0  0.16349769945E+03 -0.22877430094E+02  0.10289562939E+03  0.19453119308E+03  0.00000000000E+00 0. -1.
         11    1    1    2    0    0  0.84476766016E+02  0.20722126277E+02  0.15379929974E+03  0.17669169509E+03  0.00000000000E+00 0.  1.
</event>
<event>
 7    1  0.2820496E-009  0.1041718E+03  0.7561462E-02  0.1271760E+00
         -1   -1    0    0    0  501 -0.00000000000E+00  0.00000000000E+00  0.43685582559E+02  0.43685582559E+02  0.00000000000E+00 0.  1.
          1   -1    0    0  501    0  0.00000000000E+00 -0.00000000000E+00 -0.38745000958E+03  0.38745000958E+03  0.00000000000E+00 0. -1.
         25    2    1    2    0    0  0.53016403617E+02  0.26992842215E+02 -0.25478749102E+03  0.29000720278E+03  0.12509260369E+03 0.  0.
          5    1    3    3  502    0 -0.33267746733E+01  0.41176341150E+02 -0.16461338000E+02  0.44665496179E+02  0.41800000000E+01 0.  1.
         -5    1    3    3    0  502  0.56343178290E+02 -0.14183498934E+02 -0.23832615302E+03  0.24534170660E+03  0.41800000000E+01 0.  1.
        -11    1    1    2    0    0 -0.78930028801E+02 -0.16634493795E+02 -0.57490719294E+02  0.99054725456E+02  0.00000000000E+00 0.  1.
         11    1    1    2    0    0  0.25913625184E+02 -0.10358348421E+02 -0.31486216709E+02  0.42073663911E+02  0.00000000000E+00 0. -1.
</event>
<event>
 7    1  0.2820496E-009  0.1047815E+03  0.7561462E-02  0.1270551E+00
         -1   -1    0    0    0  501 -0.00000000000E+00  0.00000000000E+00  0.22001738070E+03  0.22001738070E+03  0.00000000000E+00 0.  1.
          1   -1    0    0  501    0  0.00000000000E+00 -0.00000000000E+00 -0.65334022217E+02  0.65334022217E+02  0.00000000000E+00 0. -1.
         25    2    1    2    0    0 -0.41851993687E+01 -0.41798966890E+02  0.47736429957E+02  0.14032427329E+03  0.12508982933E+03 0.  0.
          5    1    3    3  502    0 -0.59793202991E+02  0.33177388413E+01  0.25541748282E+02  0.65238698793E+02  0.41800000000E+01 0.  1.
         -5    1    3    3    0  502  0.55608003622E+02 -0.45116705731E+02  0.22194681675E+02  0.75085574497E+02  0.41800000000E+01 0.  1.
        -11    1    1    2    0    0 -0.17953098227E+02 -0.10648411643E+02 -0.31240539667E+01  0.21105973554E+02  0.00000000000E+00 0. -1.
         11    1    1    2    0    0  0.22138297596E+02  0.52447378533E+02  0.11007098249E+03  0.12392115607E+03  0.00000000000E+00 0.  1.
</event>
<event>
 7    1  0.2820496E-009  0.9513724E+02  0.7561462E-02  0.1290867E+00
         -1   -1    0    0    0  501 -0.00000000000E+00  0.00000000000E+00  0.22270351904E+02  0.22270351904E+02  0.00000000000E+00 0.  1.
          1   -1    0    0  501    0  0.00000000000E+00 -0.00000000000E+00 -0.81374116622E+03  0.81374116622E+03  0.00000000000E+00 0. -1.
         25    2    1    2    0    0 -0.20425456411E+02  0.16134100466E+02 -0.65151399880E+03  0.66392356178E+03  0.12508595761E+03 0.  0.
          5    1    3    3  502    0  0.39684538155E+02  0.20730716576E+02 -0.47949047208E+03  0.48159444597E+03  0.41800000000E+01 0.  1.
         -5    1    3    3    0  502 -0.60109994566E+02 -0.45966161101E+01 -0.17202352672E+03  0.18232911581E+03  0.41800000000E+01 0.  1.
        -11    1    1    2    0    0  0.38571281977E+02  0.20729561440E+02 -0.25943827684E+02  0.50897354605E+02  0.00000000000E+00 0.  1.
         11    1    1    2    0    0 -0.18145825565E+02 -0.36863661906E+02 -0.11401298783E+03  0.12119060174E+03  0.00000000000E+00 0. -1.
</event>
<event>
 7    1  0.2820496E-009  0.1218546E+03  0.7561462E-02  0.1240069E+00
         -2   -1    0    0    0  501 -0.00000000000E+00  0.00000000000E+00  0.19044088853E+03  0.19044088853E+03  0.00000000000E+00 0. -1.
          2   -1    0    0  501    0  0.00000000000E+00 -0.00000000000E+00 -0.11319289999E+03  0.11319289999E+03  0.00000000000E+00 0.  1.
         25    2    1    2    0    0  0.58685184918E+02 -0.62234336601E+02  0.91546087283E+02  0.17704469068E+03  0.12508826012E+03 0.  0.
          5    1    3    3  502    0 -0.38656278713E+02 -0.20917322389E+02  0.15767745443E+02  0.46882154987E+02  0.41800000000E+01 0. -1.
         -5    1    3    3    0  502  0.97341463631E+02 -0.41317014212E+02  0.75778341840E+02  0.13016253569E+03  0.41800000000E+01 0. -1.
        -11    1    1    2    0    0 -0.42244305078E+02  0.16890187256E+02 -0.49231718566E+02  0.67034482545E+02  0.00000000000E+00 0.  1.
         11    1    1    2    0    0 -0.16440879840E+02  0.45344149345E+02  0.34933619815E+02  0.59554615296E+02  0.00000000000E+00 0. -1.
</event>
<event>
 7    1  0.2820496E-009  0.1122704E+03  0.7561462E-02  0.1256422E+00
         -1   -1    0    0    0  501 -0.00000000000E+00  0.00000000000E+00  0.21050121843E+02  0.21050121843E+02  0.00000000000E+00 0.  1.
          1   -1    0    0  501    0  0.00000000000E+00 -0.00000000000E+00 -0.73256037946E+03  0.73256037946E+03  0.00000000000E+00 0. -1.
         25    2    1    2    0    0 -0.75284063217E+01  0.59595180844E+02 -0.40015589127E+03  0.42353300955E+03  0.12508880998E+03 0.  0.
          5    1    3    3  502    0  0.69731554804E+01 -0.37627530103E+02 -0.83546208186E+02  0.91988571144E+02  0.41800000000E+01 0.  1.
         -5    1    3    3    0  502 -0.14501561802E+02  0.97222710947E+02 -0.31660968308E+03  0.33154443841E+03  0.41800000000E+01 0.  1.
        -11    1    1    2    0    0  0.34757071888E+02 -0.21629993446E+02 -0.50196050193E+02  0.64773097175E+02  0.00000000000E+00 0.  1.
         11    1    1    2    0    0 -0.27228665567E+02 -0.37965187398E+02 -0.26115831615E+03  0.26530439457E+03  0.00000000000E+00 0. -1.
</event>
<event>
 7    1  0.2820496E-009  0.1469247E+03  0.7561462E-02  0.1204304E+00
          2   -1    0    0  501    0  0.00000000000E+00  0.00000000000E+00  0.41059802164E+03  0.41059802164E+03  0.00000000000E+00 0. -1.
         -2   -1    0    0    0  501 -0.00000000000E+00 -0.00000000000E+00 -0.73914700634E+02  0.73914700634E+02  0.00000000000E+00 0.  1.
         25    2    1    2    0    0 -0.10659389001E+03  0.56727551058E+02  0.26511489327E+03  0.31703862812E+03  0.12508921874E+03 0.  0.
          5    1    3    3  502    0 -0.12808150683E+03  0.71306076611E+02  0.21216282467E+03  0.25791464775E+03  0.41800000000E+01 0.  1.
         -5    1    3    3    0  502  0.21487616828E+02 -0.14578525552E+02  0.52952068605E+02  0.59123980361E+02  0.41800000000E+01 0.  1.
        -11    1    1    2    0    0  0.29368180702E+02 -0.18693173300E+02 -0.21326197082E+02  0.40825622442E+02  0.00000000000E+00 0.  1.
         11    1    1    2    0    0  0.77225709304E+02 -0.38034377758E+02  0.92894624813E+02  0.12664847172E+03  0.00000000000E+00 0. -1.
</event>
<event>
 7    1  0.2820496E-009  0.1924198E+03  0.7561462E-02  0.1156297E+00
         -2   -1    0    0    0  501 -0.00000000000E+00  0.00000000000E+00  0.36728022326E+02  0.36728022326E+02  0.00000000000E+00 0.  1.
          2   -1    0    0  501    0  0.00000000000E+00 -0.00000000000E+00 -0.11911555022E+04  0.11911555022E+04  0.00000000000E+00 0. -1.
         25    2    1    2    0    0 -0.16091870471E+03  0.74619473900E+02 -0.54908510657E+03  0.59042745030E+03  0.12508886599E+03 0.  0.
          5    1    3    3  502    0 -0.97275675268E+02  0.72240849917E+02 -0.18770536530E+03  0.22345485889E+03  0.41800000000E+01 0.  1.
         -5    1    3    3    0  502 -0.63643029439E+02  0.23786239827E+01 -0.36137974127E+03  0.36697259141E+03  0.41800000000E+01 0.  1.
        -11    1    1    2    0    0  0.63231413837E+02  0.17391678727E+02 -0.19815802406E+03  0.20872777651E+03  0.00000000000E+00 0.  1.
         11    1    1    2    0    0  0.97687290870E+02 -0.92011152627E+02 -0.40718434928E+03  0.42872829777E+03  0.00000000000E+00 0. -1.
</event>
<event>
 7    1  0.2820496E-009  0.9043865E+02  0.7561462E-02  0.1301793E+00
          3   -1    0    0  501    0  0.00000000000E+00  0.00000000000E+00  0.70779645046E+02  0.70779645046E+02  0.00000000000E+00 0. -1.
         -3   -1    0    0    0  501 -0.00000000000E+00 -0.00000000000E+00 -0.22179281648E+03  0.22179281648E+03  0.00000000000E+00 0.  1.
         25    2    1    2    0    0  0.62711868898E+02  0.19453889201E+02 -0.82303433158E+02  0.16349869512E+03  0.12508691334E+03 0.  0.
          5    1    3    3  502    0  0.58682186447E+02  0.69684372266E+01 -0.11425826165E+03  0.12870346102E+03  0.41800000000E+01 0.  1.
         -5    1    3    3    0  502  0.40296824509E+01  0.12485451974E+02  0.31954828493E+02  0.34795234094E+02  0.41800000000E+01 0.  1.
        -11    1    1    2    0    0 -0.37038633359E+02 -0.53595435099E+02 -0.31238571827E+02  0.72250808953E+02  0.00000000000E+00 0.  1.
         11    1    1    2    0    0 -0.25673235539E+02  0.34141545898E+02 -0.37471166454E+02  0.56822957462E+02  0.00000000000E+00 0. -1.
</event>
<event>
 7    1  0.2820496E-009  0.1015190E+03  0.7561462E-02  0.1277134E+00
         -1   -1    0    0    0  501 -0.00000000000E+00  0.00000000000E+00  0.10397630416E+04  0.10397630416E+04  0.00000000000E+00 0.  1.
          1   -1    0    0  501    0  0.00000000000E+00 -0.00000000000E+00 -0.14304294171E+02  0.14304294171E+02  0.00000000000E+00 0. -1.
         25    2    1    2    0    0  0.14460630855E+00  0.99564255562E+01  0.82861080025E+03  0.83805868813E+03  0.12508938863E+03 0.  0.
          5    1    3    3  502    0 -0.46343090529E+02  0.40678378281E+02  0.57793592919E+03  0.58123129918E+03  0.41800000000E+01 0.  1.
         -5    1    3    3    0  502  0.46487696838E+02 -0.30721952724E+02  0.25067487106E+03  0.25682738896E+03  0.41800000000E+01 0.  1.
        -11    1    1    2    0    0  0.74106289354E+01 -0.46983390145E+02  0.78622741720E+02  0.91890651789E+02  0.00000000000E+00 0.  1.
         11    1    1    2    0    0 -0.75552352439E+01  0.37026964588E+02  0.11822520542E+03  0.12411799581E+03  0.00000000000E+00 0. -1.
</event>
<event>
 7    1  0.2820496E-009  0.1099622E+03  0.7561462E-02  0.1260640E+00
          2   -1    0    0  501    0  0.00000000000E+00  0.00000000000E+00  0.52590431456E+03  0.52590431456E+03  0.00000000000E+00 0. -1.
         -2   -1    0    0    0  501 -0.00000000000E+00 -0.00000000000E+00 -0.30545523396E+02  0.30545523396E+02  0.00000000000E+00 0.  1.
         25    2    1    2    0    0  0.17965740725E+01  0.46118583593E+02  0.18404609056E+03  0.22727683823E+03  0.12510653985E+03 0.  0.
          5    1    3    3  502    0 -0.52073808069E+02  0.49925497786E+02  0.13966189631E+03  0.15724870269E+03  0.41800000000E+01 0. -1.
         -5    1    3    3    0  502  0.53870382142E+02 -0.38069141931E+01  0.44384194254E+02  0.70028135541E+02  0.41800000000E+01 0. -1.
        -11    1    1    2    0    0  0.30398197899E+02 -0.52509516498E+02  0.11392041072E+03  0.12907036738E+03  0.00000000000E+00 0.  1.
         11    1    1    2    0    0 -0.32194771971E+02  0.63909329044E+01  0.19739228988E+03  0.20010263234E+03  0.00000000000E+00 0. -1.
</event>
<event>
 7    1  0.2820496E-009  0.9922274E+02  0.7561462E-02  0.1281939E+00
         -2   -1    0    0    0  501 -0.00000000000E+00  0.00000000000E+00  0.12106284859E+02  0.12106284859E+02  0.00000000000E+00 0.  1.
          2   -1    0    0  501    0  0.00000000000E+00 -0.00000000000E+00 -0.11438001742E+04  0.11438001742E+04  0.00000000000E+00 0. -1.
         25    2    1    2    0    0 -0.93658558151E+01 -0.41644049067E+02 -0.65854935996E+03  0.67168503842E+03  0.12510629584E+03 0.  0.
          5    1    3    3  502    0 -0.24404286086E+02  0.20929316976E+02 -0.49129853175E+02  0.58862724720E+02  0.41800000000E+01 0. -1.
         -5    1    3    3    0  502  0.15038430271E+02 -0.62573366043E+02 -0.60941950678E+03  0.61282231370E+03  0.41800000000E+01 0. -1.
        -11    1    1    2    0    0  0.46794507609E+02  0.17442063989E+01 -0.25901248399E+03  0.26321138854E+03  0.00000000000E+00 0.  1.
         11    1    1    2    0    0 -0.37428651794E+02  0.39899842669E+02 -0.21413204540E+03  0.22101003210E+03  0.00000000000E+00 0. -1.
</event>
<event>
 7    1  0.2820496E-009  0.1305186E+03  0.7561462E-02  0.1226688E+00
         -2   -1    0    0    0  501 -0.00000000000E+00  0.00000000000E+00  0.89967549937E+02  0.89967549937E+02  0.00000000000E+00 0.  1.
          2   -1    0    0  501    0  0.00000000000E+00 -0.00000000000E+00 -0.25114823751E+03  0.25114823751E+03  0.00000000000E+00 0. -1.
         25    2    1    2    0    0  0.77292482462E+02 -0.27366730056E+02 -0.15975626751E+03  0.21884057355E+03  0.12508423508E+03 0.  0.
          5    1    3    3  502    0  0.95020731329E+02  0.12354772729E+02 -0.14268777205E+03  0.17192688121E+03  0.41800000000E+01 0. -1.
         -5    1    3    3    0  502 -0.17728248867E+02 -0.39721502786E+02 -0.17068495460E+02  0.46913692337E+02  0.41800000000E+01 0. -1.
        -11    1    1    2    0    0  0.19463244462E+01 -0.25884204068E+02 -0.61956100505E+01  0.26686434437E+02  0.00000000000E+00 0.  1.
         11    1    1    2    0    0 -0.79238806909E+02  0.53250934124E+02  0.47711899818E+01  0.95588779463E+02  0.00000000000E+00 0. -1.
</event>
<event>
 7    1  0.2820496E-009  0.7985255E+02  0.7561462E-02  0.1329470E+00
         -1   -1    0    0    0  501 -0.00000000000E+00  0.00000000000E+00  0.50305491533E+02  0.50305491533E+02  0.00000000000E+00 0.  1.
          1   -1    0    0  501    0  0.00000000000E+00 -0.00000000000E+00 -0.39041547317E+03  0.39041547317E+03  0.00000000000E+00 0. -1.
         25    2    1    2    0    0 -0.25782564892E+02 -0.29607771191E+02 -0.31525311598E+03  0.34142733077E+03  0.12508690695E+03 0.  0.
          5    1    3    3  502    0  0.41321687193E+02 -0.43835071247E+01 -0.20933985240E+03  0.21346508654E+03  0.41800000000E+01 0. -1.
         -5    1    3    3    0  502 -0.67104252084E+02 -0.25224264066E+02 -0.10591326358E+03  0.12796224423E+03  0.41800000000E+01 0. -1.
        -11    1    1    2    0    0  0.15892721109E+02  0.10700034909E+01  0.31531226783E+02  0.35326219076E+02  0.00000000000E+00 0.  1.
         11    1    1    2    0    0  0.98898437830E+01  0.28537767700E+02 -0.56388092439E+02  0.63967414863E+02  0.00000000000E+00 0. -1.
</event>
<event>
 7    1  0.2820496E-009  0.9481123E+02  0.7561462E-02  0.1291602E+00
          1   -1    0    0  501    0  0.00000000000E+00  0.00000000000E+00  0.39408721751E+02  0.39408721751E+02  0.00000000000E+00 0. -1.
         -1   -1    0    0    0  501 -0.00000000000E+00 -0.00000000000E+00 -0.51900209867E+03  0.51900209867E+03  0.00000000000E+00 0.  1.
         25    2    1    2    0    0 -0.81802529694E+02  0.44102078352E+02 -0.27582477555E+03  0.31680207781E+03  0.12509037740E+03 0.  0.
          5    1    3    3  502    0 -0.81450800361E+02  0.40207380457E+02 -0.28871627303E+03  0.30269691944E+03  0.41800000000E+01 0. -1.
         -5    1    3    3    0  502 -0.35172933320E+00  0.38946978955E+01  0.12891497485E+02  0.14105158370E+02  0.41800000000E+01 0. -1.
        -11    1    1    2    0    0  0.40705693119E+02 -0.20508599995E+02 -0.16559354318E+02  0.48495034194E+02  0.00000000000E+00 0. -1.
         11    1    1    2    0    0  0.41096836575E+02 -0.23593478357E+02 -0.18720924705E+03  0.19311370842E+03  0.00000000000E+00 0.  1.
</event>
<event>
 7    1  0.2820496E-009  0.5785979E+02  0.7561462E-02  0.1407039E+00
          2   -1    0    0  501    0  0.00000000000E+00  0.00000000000E+00  0.45639394038E+03  0.45639394038E+03  0.00000000000E+00 0. -1.
         -2   -1    0    0    0  501 -0.00000000000E+00 -0.00000000000E+00 -0.29946793849E+02  0.29946793849E+02  0.00000000000E+00 0.  1.
         25    2    1    2    0    0 -0.27408267268E+02 -0.56315368978E+01  0.32051631162E+03  0.34519834330E+03  0.12509301689E+03 0.  0.
          5    1    3    3  502    0 -0.30849852907E+02  0.14205919611E+02  0.32270937145E+03  0.32451861642E+03  0.41800000000E+01 0. -1.
         -5    1    3    3    0  502  0.34415856384E+01 -0.19837456508E+02 -0.21930598299E+01  0.20679726880E+02  0.41800000000E+01 0. -1.
        -11    1    1    2    0    0  0.36651353068E+00 -0.22158267170E+02 -0.57722108564E+01  0.22900688949E+02  0.00000000000E+00 0.  1.
         11    1    1    2    0    0  0.27041753738E+02  0.27789804068E+02  0.11170304576E+03  0.11824170198E+03  0.00000000000E+00 0. -1.
</event>
<event>
 7    1  0.2820496E-009  0.1344433E+03  0.7561462E-02  0.1221008E+00
          2   -1    0    0  501    0  0.00000000000E+00  0.00000000000E+00  0.10209632298E+03  0.10209632298E+03  0.00000000000E+00 0.  1.
         -2   -1    0    0    0  501 -0.00000000000E+00 -0.00000000000E+00 -0.21029312189E+03  0.21029312189E+03  0.00000000000E+00 0. -1.
         25    2    1    2    0    0 -0.93445600109E+02  0.23632218108E+01 -0.89382536362E+02  0.17992983315E+03  0.12509133484E+03 0.  0.
          5    1    3    3  502    0 -0.12246682243E+03  0.59632433225E+01 -0.54568853618E+02  0.13427179545E+03  0.41800000000E+01 0. -1.
         -5    1    3    3    0  502  0.29021222325E+02 -0.36000215117E+01 -0.34813682743E+02  0.45658037696E+02  0.41800000000E+01 0. -1.
        -11    1    1    2    0    0  0.55755100348E+02 -0.35815820261E+02 -0.40426993020E+02  0.77625678486E+02  0.00000000000E+00 0. -1.
         11    1    1    2    0    0  0.37690499760E+02  0.33452598451E+02  0.21612730474E+02  0.54833933233E+02  0.00000000000E+00 0.  1.
</event>
<event>
 7    1  0.3152515E-009  0.1047759E+03  0.7561462E-02  0.1270562E+00
          1   -1    0    0  501    0  0.00000000000E+00  0.00000000000E+00  0.31914561328E+03  0.31914561328E+03  0.00000000000E+00 0. -1.
         -1   -1    0    0    0  501 -0.00000000000E+00 -0.00000000000E+00 -0.48281242742E+02  0.48281242742E+02  0.00000000000E+00 0.  1.
         25    2    1    2    0    0 -0.39030505228E+02 -0.40447979458E+02  0.11983953747E+03  0.18212222635E+03  0.12509025226E+03 0.  0.
          5    1    3    3  502    0 -0.24739515934E+02  0.36599727216E+02  0.85777007212E+02  0.96575105732E+02  0.41800000000E+01 0. -1.
         -5    1    3    3    0  502 -0.14290989294E+02 -0.77047706675E+02  0.34062530257E+02  0.85547120620E+02  0.41800000000E+01 0. -1.
        -11    1    1    2    0    0  0.84183965529E+01  0.52966771852E+02  0.33545297641E+02  0.63258480181E+02  0.00000000000E+00 0.  1.
         11    1    1    2    0    0  0.30612108675E+02 -0.12518792394E+02  0.11747953543E+03  0.12204614949E+03  0.00000000000E+00 0. -1.
</event>
<event>
 7    1  0.2820496E-009  0.2676387E+03  0.7561462E-02  0.1102639E+00
         -2   -1    0    0    0  501 -0.00000000000E+00  0.00000000000E+00  0.12998648414E+03  0.12998648414E+03  0.00000000000E+00 0.  1.
          2   -1    0    0  501    0  0.00000000000E+00 -0.00000000000E+00 -0.60350805765E+03  0.60350805765E+03  0.00000000000E+00 0. -1.
         25    2    1    2    0    0 -0.83527183848E+02 -0.24144808376E+03 -0.19675584285E+03  0.34588097287E+03  0.12508724198E+03 0.  0.
          5    1    3    3  502    0 -0.29678137122E+02 -0.18830079011E+02  0.10543907005E+02  0.36932507003E+02  0.41800000000E+01 0. -1.
         -5    1    3    3    0  502 -0.53849046726E+02 -0.22261800475E+03 -0.20729974986E+03  0.30894846587E+03  0.41800000000E+01 0. -1.
        -11    1    1    2    0    0 -0.54212589270E+00  0.13575002648E+03 -0.15129743224E+03  0.20327143575E+03  0.00000000000E+00 0. -1.
         11    1    1    2    0    0  0.84069309741E+02  0.10569805727E+03 -0.12546829843E+03  0.18434213317E+03  0.00000000000E+00 0.  1.
</event>
<event>
 7    1  0.2820496E-009  0.1062815E+03  0.7561462E-02  0.1267615E+00
         -2   -1    0    0    0  501 -0.00000000000E+00  0.00000000000E+00  0.42901640419E+02  0.42901640419E+02  0.00000000000E+00 0.  1.
          2   -1    0    0  501    0  0.00000000000E+00 -0.00000000000E+00 -0.43348868537E+03  0.43348868537E+03  0.00000000000E+00 0. -1.
         25    2    1    2    0    0  0.61300510697E+02 -0.50769537010E+02 -0.24766953183E+03  0.28865565295E+03  0.12508633213E+03 0.  0.
          5    1    3    3  502    0 -0.24113728563E+02 -0.76406755807E+01 -0.14883763234E+03  0.15102968260E+03  0.41800000000E+01 0. -1.
         -5    1    3    3    0  502  0.85414239260E+02 -0.43128861430E+02 -0.98831899496E+02  0.13762597035E+03  0.41800000000E+01 0. -1.
        -11    1    1    2    0    0 -0.66917863000E+01  0.33073349346E+02 -0.25951744326E-01  0.33743549225E+02  0.00000000000E+00 0.  1.
         11    1    1    2    0    0 -0.54608724397E+02  0.17696187665E+02 -0.14289156137E+03  0.15399112361E+03  0.00000000000E+00 0. -1.
</event>
<event>
 7    1  0.2820496E-009  0.1720673E+03  0.7561462E-02  0.1175709E+00
         -1   -1    0    0    0  501 -0.00000000000E+00  0.00000000000E+00  0.58406858785E+02  0.58406858785E+02  0.00000000000E+00 0.  1.
          1   -1    0    0  501    0  0.00000000000E+00 -0.00000000000E+00 -0.56796238665E+03  0.56796238665E+03  0.00000000000E+00 0. -1.
         25    2    1    2    0    0 -0.63992975961E+02 -0.13104523760E+03 -0.28657555093E+03  0.34502292116E+03  0.12508922601E+03 0.  0.
          5    1    3    3  502    0  0.28730567411E+02 -0.75155545428E+01 -0.17455721497E+02  0.34700197071E+02  0.41800000000E+01 0.  1.
         -5    1    3    3    0  502 -0.92723543372E+02 -0.12352968305E+03 -0.26911982943E+03  0.31032272409E+03  0.41800000000E+01 0.  1.
        -11    1    1    2    0    0  0.77511196009E+02  0.10849674791E+03 -0.13592348509E+03  0.19040673205E+03  0.00000000000E+00 0.  1.
         11    1    1    2    0    0 -0.13518220048E+02  0.22548489690E+02 -0.87056491849E+02  0.90939592222E+02  0.00000000000E+00 0. -1.
</event>
<event>
 7    1  0.2820496E-009  0.6331413E+02  0.7561462E-02  0.1384428E+00
          1   -1    0    0  501    0  0.00000000000E+00  0.00000000000E+00  0.10689734117E+03  0.10689734117E+03  0.00000000000E+00 0. -1.
         -1   -1    0    0    0  501 -0.00000000000E+00 -0.00000000000E+00 -0.12159608413E+03  0.12159608413E+03  0.00000000000E+00 0.  1.
         25    2    1    2    0    0 -0.46604740675E+01 -0.21124353303E+02 -0.37447290207E+02  0.13235493138E+03  0.12509024741E+03 0.  0.
          5    1    3    3  502    0  0.19196472271E+01 -0.24964529234E+02 -0.82579841809E+02  0.86393376126E+02  0.41800000000E+01 0. -1.
         -5    1    3    3    0  502 -0.65801212946E+01  0.38401759308E+01  0.45132551601E+02  0.45961555255E+02  0.41800000000E+01 0. -1.
        -11    1    1    2    0    0  0.47384783154E+02  0.11367039419E+02  0.18445588346E+02  0.52103425887E+02  0.00000000000E+00 0.  1.
         11    1    1    2    0    0 -0.42724309087E+02  0.97573138838E+01  0.43029589078E+01  0.44035068031E+02  0.00000000000E+00 0. -1.
</event>
<event>
 7    1  0.2820496E-009  0.3559958E+03  0.7561462E-02  0.1060181E+00
          1   -1    0    0  501    0  0.00000000000E+00  0.00000000000E+00  0.76783110997E+03  0.76783110997E+03  0.00000000000E+00 0. -1.
         -1   -1    0    0    0  501 -0.00000000000E+00 -0.00000000000E+00 -0.42568813216E+03  0.42568813216E+03  0.00000000000E+00 0.  1.
         25    2    1    2    0    0 -0.12038419580E+02 -0.34628378309E+03 -0.28932242997E+03  0.46841485453E+03  0.12509046918E+03 0.  0.
          5    1    3    3  502    0  0.34070092419E+02 -0.29106332771E+03 -0.20589326089E+03  0.35817333683E+03  0.41800000000E+01 0.  1.
         -5    1    3    3    0  502 -0.46108511999E+02 -0.55220455380E+02 -0.83429169077E+02  0.11024151770E+03  0.41800000000E+01 0. -1.
        -11    1    1    2    0    0  0.26475607736E+00  0.22421616050E+03  0.32336264435E+03  0.39349251135E+03  0.00000000000E+00 0.  1.
         11    1    1    2    0    0  0.11773663502E+02  0.12206762259E+03  0.30810276344E+03  0.33161187626E+03  0.00000000000E+00 0. -1.
</event>
<event>
 7    1  0.2820496E-009  0.1188549E+03  0.7561462E-02  0.1244998E+00
          3   -1    0    0  501    0  0.00000000000E+00  0.00000000000E+00  0.52255900041E+02  0.52255900041E+02  0.00000000000E+00 0. -1.
         -3   -1    0    0    0  501 -0.00000000000E+00 -0.00000000000E+00 -0.42738392776E+03  0.42738392776E+03  0.00000000000E+00 0.  1.
         25    2    1    2    0    0 -0.28723794599E+02 -0.97252040363E+02 -0.22806482046E+03  0.27918619715E+03  0.12509338359E+03 0.  0.
          5    1    3    3  502    0 -0.35757036635E+02 -0.11246692438E+03 -0.11508094396E+03  0.16488926833E+03  0.41800000000E+01 0.  1.
         -5    1    3    3    0  502  0.70332420362E+01  0.15214884016E+02 -0.11298387650E+03  0.11429692882E+03  0.41800000000E+01 0.  1.
        -11    1    1    2    0    0  0.57430360271E+00  0.21907657861E+02  0.99271732946E+01  0.24058762795E+02  0.00000000000E+00 0. -1.
         11    1    1    2    0    0  0.28149490996E+02  0.75344382501E+02 -0.15699038056E+03  0.17639486785E+03  0.00000000000E+00 0.  1.
</event>
<event>
 7    1  0.2820496E-009  0.2221493E+03  0.7561462E-02  0.1132291E+00
         -3   -1    0    0    0  501 -0.00000000000E+00  0.00000000000E+00  0.24407606667E+04  0.24407606667E+04  0.00000000000E+00 0.  1.
          3   -1    0    0  501    0  0.00000000000E+00 -0.00000000000E+00 -0.27666849490E+02  0.27666849490E+02  0.00000000000E+00 0. -1.
         25    2    1    2    0    0 -0.18631694224E+03 -0.10873292433E+03  0.17037247137E+04  0.17218773923E+04  0.12508797714E+03 0.  0.
          5    1    3    3  502    0 -0.10619326751E+03 -0.20997207253E+02  0.46460934133E+03  0.47707148860E+03  0.41800000000E+01 0.  1.
         -5    1    3    3    0  502 -0.80123674731E+02 -0.87735717078E+02  0.12391153724E+04  0.12448059037E+04  0.41800000000E+01 0.  1.
        -11    1    1    2    0    0  0.17779414573E+03  0.96868235771E+02  0.70112851055E+03  0.72977763851E+03  0.00000000000E+00 0.  1.
         11    1    1    2    0    0  0.85227965111E+01  0.11864688560E+02  0.82405929136E+01  0.16772485402E+02  0.00000000000E+00 0. -1.
</event>
<event>
 7    1  0.2820496E-009  0.1162745E+03  0.7561462E-02  0.1249373E+00
          1   -1    0    0  501    0  0.00000000000E+00  0.00000000000E+00  0.16544500096E+03  0.16544500096E+03  0.00000000000E+00 0. -1.
         -1   -1    0    0    0  501 -0.00000000000E+00 -0.00000000000E+00 -0.13051282747E+03  0.13051282747E+03  0.00000000000E+00 0.  1.
         25    2    1    2    0    0  0.79201660561E+02 -0.32796669332E+02  0.68452380566E+02  0.16637907346E+03  0.12509093943E+03 0.  0.
          5    1    3    3  502    0  0.58248373723E+02 -0.75502158041E+02  0.18412666360E+02  0.97210840922E+02  0.41800000000E+01 0. -1.
         -5    1    3    3    0  502  0.20953286838E+02  0.42705488709E+02  0.50039714206E+02  0.69168232542E+02  0.41800000000E+01 0. -1.
        -11    1    1    2    0    0 -0.30918942514E+02  0.26370599485E+02 -0.61269033788E+02  0.73520636727E+02  0.00000000000E+00 0.  1.
         11    1    1    2    0    0 -0.48282718047E+02  0.64260698468E+01  0.27748826712E+02  0.56058118231E+02  0.00000000000E+00 0. -1.
</event>
<event>
 7    1  0.2820496E-009  0.1184149E+03  0.7561462E-02  0.1245735E+00
          3   -1    0    0  501    0  0.00000000000E+00  0.00000000000E+00  0.12098779482E+03  0.12098779482E+03  0.00000000000E+00 0. -1.
         -3   -1    0    0    0  501 -0.00000000000E+00 -0.00000000000E+00 -0.15867719695E+03  0.15867719695E+03  0.00000000000E+00 0.  1.
         25    2    1    2    0    0  0.54297898042E+02  0.50142514488E+02  0.25162407859E+02  0.14744833751E+03  0.12508130145E+03 0.  0.
          5    1    3    3  502    0  0.66135527930E+02 -0.17544743562E+02  0.36526827815E+02  0.77675012915E+02  0.41800000000E+01 0.  1.
         -5    1    3    3    0  502 -0.11837629888E+02  0.67687258050E+02 -0.11364419956E+02  0.69773324592E+02  0.41800000000E+01 0.  1.
        -11    1    1    2    0    0 -0.52607656263E+02 -0.34567526927E+01 -0.67069597791E+02  0.85310290027E+02  0.00000000000E+00 0.  1.
         11    1    1    2    0    0 -0.16902417791E+01 -0.46685761796E+02  0.42177877987E+01  0.46906364234E+02  0.00000000000E+00 0. -1.
</event>
<event>
 7    1  0.2820496E-009  0.9954648E+02  0.7561462E-02  0.1281253E+00
         -2   -1    0    0    0  501 -0.00000000000E+00  0.00000000000E+00  0.23462038417E+03  0.23462038417E+03  0.00000000000E+00 0.  1.
          2   -1    0    0  501    0  0.00000000000E+00 -0.00000000000E+00 -0.64807011276E+02  0.64807011276E+02  0.00000000000E+00 0. -1.
         25    2    1    2    0    0  0.53847315117E+02  0.87787552804E+01  0.10662333522E+03  0.17319347524E+03  0.12510333474E+03 0.  0.
          5    1    3    3  502    0  0.25535953245E+02 -0.46947033275E+02  0.50334582496E+01  0.53841591204E+02  0.41800000000E+01 0. -1.
         -5    1    3    3    0  502  0.28311361872E+02  0.55725788555E+02  0.10158987697E+03  0.11935188404E+03  0.41800000000E+01 0. -1.
        -11    1    1    2    0    0 -0.39161999890E+02  0.24688775616E+02  0.74729900726E+02  0.87907655749E+02  0.00000000000E+00 0.  1.
         11    1    1    2    0    0 -0.14685315228E+02 -0.33467530897E+02 -0.11539863051E+02  0.38326264453E+02  0.00000000000E+00 0. -1.
</event>
<event>
 7    1  0.2820496E-009  0.1050220E+03  0.7561462E-02  0.1270076E+00
          1   -1    0    0  501    0  0.00000000000E+00  0.00000000000E+00  0.37662595661E+03  0.37662595661E+03  0.00000000000E+00 0. -1.
         -1   -1    0    0    0  501 -0.00000000000E+00 -0.00000000000E+00 -0.41849054370E+02  0.41849054370E+02  0.00000000000E+00 0.  1.
         25    2    1    2    0    0 -0.46644511869E+02 -0.45850820562E+02  0.18735528818E+03  0.23458029545E+03  0.12509157752E+03 0.  0.
          5    1    3    3  502    0 -0.87683433617E+02 -0.18076086609E+02  0.13774465212E+03  0.16433560486E+03  0.41800000000E+01 0. -1.
         -5    1    3    3    0  502  0.41038921748E+02 -0.27774733953E+02  0.49610636064E+02  0.70244690583E+02  0.41800000000E+01 0. -1.
        -11    1    1    2    0    0  0.36309512118E+02  0.47946463334E+02  0.15793792714E+03  0.16900187231E+03  0.00000000000E+00 0. -1.
         11    1    1    2    0    0  0.10334999752E+02 -0.20956427720E+01 -0.10516313080E+02  0.14892843224E+02  0.00000000000E+00 0.  1.
</event>
<event>
 7    1  0.2820496E-009  0.1311032E+03  0.7561462E-02  0.1225828E+00
          1   -1    0    0  501    0  0.00000000000E+00  0.00000000000E+00  0.20053679608E+03  0.20053679608E+03  0.00000000000E+00 0. -1.
         -1   -1    0    0    0  501 -0.00000000000E+00 -0.00000000000E+00 -0.94248461547E+02  0.94248461547E+02  0.00000000000E+00 0.  1.
         25    2    1    2    0    0 -0.74664736949E+02  0.27839885983E+02  0.29720367978E+02  0.15126434407E+03  0.12509084427E+03 0.  0.
          5    1    3    3  502    0 -0.10472374462E+03  0.88151005120E+01  0.42209730623E+02  0.11333094212E+03  0.41800000000E+01 0. -1.
         -5    1    3    3    0  502  0.30059007668E+02  0.19024785471E+02 -0.12489362645E+02  0.37933401950E+02  0.41800000000E+01 0. -1.
        -11    1    1    2    0    0  0.13882182059E+02 -0.53472026219E+02  0.31021650332E+02  0.63358624954E+02  0.00000000000E+00 0. -1.
         11    1    1    2    0    0  0.60782554890E+02  0.25632140236E+02  0.45546316227E+02  0.80162288602E+02  0.00000000000E+00 0.  1.
</event>
<event>
 7    1  0.2820496E-009  0.1106481E+03  0.7561462E-02  0.1259374E+00
         -1   -1    0    0    0  501 -0.00000000000E+00  0.00000000000E+00  0.30723014860E+03  0.30723014860E+03  0.00000000000E+00 0.  1.
          1   -1    0    0  501    0  0.00000000000E+00 -0.00000000000E+00 -0.40803364384E+02  0.40803364384E+02  0.00000000000E+00 0. -1.
         25    2    1    2    0    0  0.14814723326E+02 -0.22443010219E+02  0.17475292710E+03  0.21658264136E+03  0.12508513210E+03 0.  0.
          5    1    3    3  502    0  0.57995729034E+02 -0.49859794759E+02  0.10245828312E+03  0.12792449297E+03  0.41800000000E+01 0. -1.
         -5    1    3    3    0  502 -0.43181005708E+02  0.27416784541E+02  0.72294643976E+02  0.88658148391E+02  0.41800000000E+01 0. -1.
        -11    1    1    2    0    0  0.28039184785E+02  0.38490043528E+02  0.55429617133E+02  0.73076136937E+02  0.00000000000E+00 0.  1.
         11    1    1    2    0    0 -0.42853908111E+02 -0.16047033309E+02  0.36244239986E+02  0.58374734694E+02  0.00000000000E+00 0. -1.
</event>
<event>
 7    1  0.2820496E-009  0.1068439E+03  0.7561462E-02  0.1266529E+00
         -1   -1    0    0    0  501 -0.00000000000E+00  0.00000000000E+00  0.13388445851E+03  0.13388445851E+03  0.00000000000E+00 0.  1.
          1   -1    0    0  501    0  0.00000000000E+00 -0.00000000000E+00 -0.15686374441E+03  0.15686374441E+03  0.00000000000E+00 0. -1.
         25    2    1    2    0    0  0.38040714562E+02 -0.85413649404E+02 -0.28427433016E+02  0.15874302381E+03  0.12509452903E+03 0.  0.
          5    1    3    3  502    0 -0.91939561572E+01 -0.33346332398E+02 -0.69121661653E+02  0.77406609691E+02  0.41800000000E+01 0. -1.
         -5    1    3    3    0  502  0.47234670719E+02 -0.52067317006E+02  0.40694228636E+02  0.81336414123E+02  0.41800000000E+01 0. -1.
        -11    1    1    2    0    0 -0.45875172362E+02  0.35794666870E+02  0.40374451325E+02  0.70822919562E+02  0.00000000000E+00 0.  1.
         11    1    1    2    0    0  0.78344577999E+01  0.49618982534E+02 -0.34926304212E+02  0.61182259542E+02  0.00000000000E+00 0. -1.
</event>
<event>
 7    1  0.2820496E-009  0.1033415E+03  0.7561462E-02  0.1273422E+00
         -1   -1    0    0    0  501 -0.00000000000E+00  0.00000000000E+00  0.20444300553E+02  0.20444300553E+02  0.00000000000E+00 0.  1.
          1   -1    0    0  501    0  0.00000000000E+00 -0.00000000000E+00 -0.63071381392E+03  0.63071381392E+03  0.00000000000E+00 0. -1.
         25    2    1    2    0    0  0.24933934383E+02 -0.10929125452E+02 -0.40080187156E+03  0.42075009252E+03  0.12508938101E+03 0.  0.
          5    1    3    3  502    0 -0.74727094620E+01 -0.64483146686E+02 -0.21671009327E+03  0.22626235771E+03  0.41800000000E+01 0. -1.
         -5    1    3    3    0  502  0.32406643845E+02  0.53554021234E+02 -0.18409177830E+03  0.19448773481E+03  0.41800000000E+01 0. -1.
        -11    1    1    2    0    0  0.18117856377E+02 -0.19163570170E+02 -0.14438260815E+03  0.14677137554E+03  0.00000000000E+00 0. -1.
         11    1    1    2    0    0 -0.43051790760E+02  0.30092695622E+02 -0.65085033658E+02  0.83636646416E+02  0.00000000000E+00 0.  1.
</event>
<event>
 7    1  0.2820496E-009  0.1968363E+03  0.7561462E-02  0.1152436E+00
          1   -1    0    0  501    0  0.00000000000E+00  0.00000000000E+00  0.23414911431E+03  0.23414911431E+03  0.00000000000E+00 0. -1.
         -1   -1    0    0    0  501 -0.00000000000E+00 -0.00000000000E+00 -0.21339619863E+03  0.21339619863E+03  0.00000000000E+00 0.  1.
         25    2    1    2    0    0  0.58393736199E+02  0.16279666014E+03  0.10116049872E+03  0.23620532008E+03  0.12508767227E+03 0.  0.
          5    1    3    3  502    0  0.56098672858E+01  0.14462637327E+03  0.33926165448E+02  0.14871689735E+03  0.41800000000E+01 0. -1.
         -5    1    3    3    0  502  0.52783868913E+02  0.18170286875E+02  0.67234333269E+02  0.87488422736E+02  0.41800000000E+01 0. -1.
        -11    1    1    2    0    0 -0.80400825547E+02 -0.11547130733E+03 -0.73340280568E+02  0.15867171241E+03  0.00000000000E+00 0.  1.
         11    1    1    2    0    0  0.22007089348E+02 -0.47325352812E+02 -0.70673024658E+01  0.52668280440E+02  0.00000000000E+00 0. -1.
</event>
<event>
 7    1  0.2820496E-009  0.1087958E+03  0.7561462E-02  0.1262816E+00
         -2   -1    0    0    0  501 -0.00000000000E+00  0.00000000000E+00  0.22720884339E+02  0.22720884339E+02  0.00000000000E+00 0.  1.
          2   -1    0    0  501    0  0.00000000000E+00 -0.00000000000E+00 -0.58753720717E+03  0.58753720717E+03  0.00000000000E+00 0. -1.
         25    2    1    2    0    0 -0.48130654933E+02 -0.40262549440E+02 -0.33747402789E+03  0.36534267852E+03  0.12509564507E+03 0.  0.
          5    1    3    3  502    0  0.22651184387E+02 -0.50436034732E+02 -0.75002947453E+02  0.93272634145E+02  0.41800000000E+01 0.  1.
         -5    1    3    3    0  502 -0.70781839320E+02  0.10173485292E+02 -0.26247108044E+03  0.27207004438E+03  0.41800000000E+01 0.  1.
        -11    1    1    2    0    0 -0.82861568127E+01 -0.11347972400E+02 -0.46393228478E+02  0.48474410991E+02  0.00000000000E+00 0.  1.
         11    1    1    2    0    0  0.56416811746E+02  0.51610521840E+02 -0.18094906646E+03  0.19644100200E+03  0.00000000000E+00 0. -1.
</event>
<event>
 7    1  0.2820496E-009  0.2601457E+03  0.7561462E-02  0.1107056E+00
          1   -1    0    0  501    0  0.00000000000E+00  0.00000000000E+00  0.42625620067E+03  0.42625620067E+03  0.00000000000E+00 0. -1.
         -1   -1    0    0    0  501 -0.00000000000E+00 -0.00000000000E+00 -0.19259535818E+03  0.19259535818E+03  0.00000000000E+00 0.  1.
         25    2    1    2    0    0  0.17030641937E+03 -0.16997858807E+03  0.16302838114E+01  0.27119531942E+03  0.12508895462E+03 0.  0.
          5    1    3    3  502    0  0.18553405170E+03 -0.12736495652E+03  0.84499512951E+01  0.22524118311E+03  0.41800000000E+01 0. -1.
         -5    1    3    3    0  502 -0.15227632325E+02 -0.42613631548E+02 -0.68196674837E+01  0.45954136316E+02  0.41800000000E+01 0. -1.
        -11    1    1    2    0    0 -0.77064272105E+02  0.12351837010E+03  0.88747215770E+02  0.17050442251E+03  0.00000000000E+00 0.  1.
         11    1    1    2    0    0 -0.93242147270E+02  0.46460217969E+02  0.14328334291E+03  0.17715181692E+03  0.00000000000E+00 0. -1.
</event>
<event>
 7    1  0.2820496E-009  0.1285593E+03  0.7561462E-02  0.1229609E+00
          2   -1    0    0  501    0  0.00000000000E+00  0.00000000000E+00  0.13425434446E+04  0.13425434446E+04  0.00000000000E+00 0. -1.
         -2   -1    0    0    0  501 -0.00000000000E+00 -0.00000000000E+00 -0.18863404930E+02  0.18863404930E+02  0.00000000000E+00 0.  1.
         25    2    1    2    0    0 -0.40898124308E+02  0.82770625725E+02  0.98466014036E+03  0.99685852646E+03  0.12509075388E+03 0.  0.
          5    1    3    3  502    0 -0.65175036837E+02 -0.25986331324E+01  0.48109936545E+03  0.48551890814E+03  0.41800000000E+01 0. -1.
         -5    1    3    3    0  502  0.24276912530E+02  0.85369258857E+02  0.50356077491E+03  0.51133961832E+03  0.41800000000E+01 0. -1.
        -11    1    1    2    0    0  0.42157776245E+02 -0.34110811757E+02  0.58232137325E+02  0.79572654814E+02  0.00000000000E+00 0.  1.
         11    1    1    2    0    0 -0.12596519375E+01 -0.48659813968E+02  0.28078776202E+03  0.28497566829E+03  0.00000000000E+00 0. -1.
</event>
<event>
 7    1  0.2820496E-009  0.1552037E+03  0.7561462E-02  0.1194221E+00
         -1   -1    0    0    0  501 -0.00000000000E+00  0.00000000000E+00  0.22077705224E+02  0.22077705224E+02  0.00000000000E+00 0.  1.
          1   -1    0    0  501    0  0.00000000000E+00 -0.00000000000E+00 -0.13006642228E+04  0.13006642228E+04  0.00000000000E+00 0. -1.
         25    2    1    2    0    0 -0.10980198686E+03 -0.29108705088E+02 -0.91784739334E+03  0.93327120573E+03  0.12509001942E+03 0.  0.
          5    1    3    3  502    0  0.26039872025E+02 -0.29126583504E+01 -0.23824216679E+03  0.23971516629E+03  0.41800000000E+01 0.  1.
         -5    1    3    3    0  502 -0.13584185888E+03 -0.26196046738E+02 -0.67960522654E+03  0.69355603943E+03  0.41800000000E+01 0.  1.
        -11    1    1    2    0    0  0.85909661056E+02 -0.22317127126E+02 -0.19368561029E+03  0.21305548493E+03  0.00000000000E+00 0.  1.
         11    1    1    2    0    0  0.23892325802E+02  0.51425832214E+02 -0.16705351395E+03  0.17641523736E+03  0.00000000000E+00 0. -1.
</event>
<event>
 7    1  0.2820496E-009  0.1284846E+03  0.7561462E-02  0.1229722E+00
          2   -1    0    0  501    0  0.00000000000E+00  0.00000000000E+00  0.25448254906E+03  0.25448254906E+03  0.00000000000E+00 0. -1.
         -2   -1    0    0    0  501 -0.00000000000E+00 -0.00000000000E+00 -0.73328296476E+02  0.73328296476E+02  0.00000000000E+00 0.  1.
         25    2    1    2    0    0  0.36134496619E+02  0.66624278636E+02  0.14143685340E+03  0.20346182434E+03  0.12509130311E+03 0.  0.
          5    1    3    3  502    0  0.29154966046E+02  0.10287737905E+03  0.88933264281E+02  0.13914152889E+03  0.41800000000E+01 0. -1.
         -5    1    3    3    0  502  0.69795305721E+01 -0.36253100413E+02  0.52503589124E+02  0.64320295455E+02  0.41800000000E+01 0. -1.
        -11    1    1    2    0    0 -0.58152989108E+02 -0.69475829968E+02  0.45529933736E+02  0.10139840215E+03  0.00000000000E+00 0. -1.
         11    1    1    2    0    0  0.22018492489E+02  0.28515513316E+01 -0.58125345604E+01  0.22950619044E+02  0.00000000000E+00 0.  1.
</event>
<event>
 7    1  0.2820496E-009  0.1287911E+03  0.7561462E-02  0.1229261E+00
         -1   -1    0    0    0  501 -0.00000000000E+00  0.00000000000E+00  0.39011160255E+03  0.39011160255E+03  0.00000000000E+00 0.  1.
          1   -1    0    0  501    0  0.00000000000E+00 -0.00000000000E+00 -0.57608555736E+02  0.57608555736E+02  0.00000000000E+00 0. -1.
         25    2    1    2    0    0  0.32962973588E+02 -0.93786741319E+02  0.15157706891E+03  0.22022658424E+03  0.12506650275E+03 0.  0.
          5    1    3    3  502    0  0.55250905050E+02 -0.58380460843E+02  0.15835664951E+03  0.17763795079E+03  0.41800000000E+01 0. -1.
         -5    1    3    3    0  502 -0.22287931462E+02 -0.35406280477E+02 -0.67795805926E+01  0.42588633449E+02  0.41800000000E+01 0. -1.
        -11    1    1    2    0    0  0.85836866754E+01  0.93100913541E+02  0.10247445338E+03  0.13871724253E+03  0.00000000000E+00 0. -1.
         11    1    1    2    0    0 -0.41546660263E+02  0.68582777835E+00  0.78451524526E+02  0.88776331526E+02  0.00000000000E+00 0.  1.
</event>
<event>
 7    1  0.2820496E-009  0.9674500E+02  0.7561462E-02  0.1287294E+00
         -1   -1    0    0    0  501 -0.00000000000E+00  0.00000000000E+00  0.12013308446E+03  0.12013308446E+03  0.00000000000E+00 0.  1.
          1   -1    0    0  501    0  0.00000000000E+00 -0.00000000000E+00 -0.13189530665E+03  0.13189530665E+03  0.00000000000E+00 0. -1.
         25    2    1    2    0    0  0.36780088058E+02 -0.25353808570E+02  0.40149352209E+02  0.13876264541E+03  0.12509001076E+03 0.  0.
          5    1    3    3  502    0  0.74198717274E+02 -0.12367349884E+02 -0.85824529877E+01  0.75825667736E+02  0.41800000000E+01 0.  1.
         -5    1    3    3    0  502 -0.37418629216E+02 -0.12986458686E+02  0.48731805197E+02  0.62936977678E+02  0.41800000000E+01 0.  1.
        -11    1    1    2    0    0 -0.33258348984E+02 -0.15939243281E+02 -0.60582484846E+02  0.70925416626E+02  0.00000000000E+00 0. -1.
         11    1    1    2    0    0 -0.35217390746E+01  0.41293051851E+02  0.86709104436E+01  0.42340329063E+02  0.00000000000E+00 0.  1.
</event>
<event>
 7    1  0.2820496E-009  0.1031730E+03  0.7561462E-02  0.1273762E+00
          1   -1    0    0  501    0  0.00000000000E+00  0.00000000000E+00  0.64003918434E+03  0.64003918434E+03  0.00000000000E+00 0. -1.
         -1   -1    0    0    0  501 -0.00000000000E+00 -0.00000000000E+00 -0.19338101639E+02  0.19338101639E+02  0.00000000000E+00 0.  1.
         25    2    1    2    0    0 -0.29398792307E+02  0.19368926539E+01  0.35857635539E+03  0.38089472843E+03  0.12504299642E+03 0.  0.
          5    1    3    3  502    0  0.35209451924E+02  0.26342693322E+02  0.60594539344E+02  0.74985422547E+02  0.41800000000E+01 0.  1.
         -5    1    3    3    0  502 -0.64608244230E+02 -0.24405800668E+02  0.29798181605E+03  0.30590930588E+03  0.41800000000E+01 0.  1.
        -11    1    1    2    0    0  0.12922804593E+02  0.43117066609E+02  0.10620418241E+03  0.11534907313E+03  0.00000000000E+00 0.  1.
         11    1    1    2    0    0  0.16475987714E+02 -0.45053959263E+02  0.15592054490E+03  0.16313348442E+03  0.00000000000E+00 0. -1.
</event>
<event>
 7    1  0.2820496E-009  0.1098648E+03  0.7561462E-02  0.1260820E+00
         -1   -1    0    0    0  501 -0.00000000000E+00  0.00000000000E+00  0.35142868415E+03  0.35142868415E+03  0.00000000000E+00 0.  1.
          1   -1    0    0  501    0  0.00000000000E+00 -0.00000000000E+00 -0.44309110387E+02  0.44309110387E+02  0.00000000000E+00 0. -1.
         25    2    1    2    0    0  0.24621487819E+02 -0.56019043021E+02  0.18976824929E+03  0.23537999756E+03  0.12508958379E+03 0.  0.
          5    1    3    3  502    0 -0.21798696817E+02 -0.74501161582E+02  0.66482601658E+02  0.10228888006E+03  0.41800000000E+01 0. -1.
         -5    1    3    3    0  502  0.46420184636E+02  0.18482118562E+02  0.12328564763E+03  0.13309111751E+03  0.41800000000E+01 0. -1.
        -11    1    1    2    0    0  0.17642039167E+02  0.44767151825E+02  0.10406091090E+03  0.11464734016E+03  0.00000000000E+00 0.  1.
         11    1    1    2    0    0 -0.42263526986E+02  0.11251891196E+02  0.13290413574E+02  0.45710456809E+02  0.00000000000E+00 0. -1.
</event>
<event>
 7    1  0.2820496E-009  0.1129784E+03  0.7561462E-02  0.1255152E+00
         -1   -1    0    0    0  501 -0.00000000000E+00  0.00000000000E+00  0.17723039025E+02  0.17723039025E+02  0.00000000000E+00 0.  1.
          1   -1    0    0  501    0  0.00000000000E+00 -0.00000000000E+00 -0.80248011980E+03  0.80248011980E+03  0.00000000000E+00 0. -1.
         25    2    1    2    0    0 -0.47799294531E+02 -0.92566946523E+01 -0.46901716030E+03  0.48784886866E+03  0.12509581546E+03 0.  0.
          5    1    3    3  502    0 -0.45004776830E+02 -0.63195110293E+02 -0.22995826022E+03  0.24272891411E+03  0.41800000000E+01 0. -1.
         -5    1    3    3    0  502 -0.27945177018E+01  0.53938415641E+02 -0.23905890008E+03  0.24511995455E+03  0.41800000000E+01 0. -1.
        -11    1    1    2    0    0  0.41576043167E+02 -0.31938109173E+02 -0.10302070698E+03  0.11559358222E+03  0.00000000000E+00 0.  1.
         11    1    1    2    0    0  0.62232513650E+01  0.41194803826E+02 -0.21271921349E+03  0.21676070794E+03  0.00000000000E+00 0. -1.
</event>
<event>
 7    1  0.2820496E-009  0.1840705E+03  0.7561462E-02  0.1163921E+00
         -1   -1    0    0    0  501 -0.00000000000E+00  0.00000000000E+00  0.26655629489E+03  0.26655629489E+03  0.00000000000E+00 0.  1.
          1   -1    0    0  501    0  0.00000000000E+00 -0.00000000000E+00 -0.19352036649E+03  0.19352036649E+03  0.00000000000E+00 0. -1.
         25    2    1    2    0    0 -0.15039649193E+03 -0.66027597654E+02  0.15281323603E+03  0.25686047396E+03  0.12508664814E+03 0.  0.
          5    1    3    3  502    0 -0.92743445633E+02  0.13423197832E+02  0.27757643794E+02  0.97823760595E+02  0.41800000000E+01 0.  1.
         -5    1    3    3    0  502 -0.57653046297E+02 -0.79450795486E+02  0.12505559223E+03  0.15903671337E+03  0.41800000000E+01 0.  1.
        -11    1    1    2    0    0  0.72178497170E+02 -0.23145612080E+01 -0.67098783361E+02  0.98576566058E+02  0.00000000000E+00 0. -1.
         11    1    1    2    0    0  0.78217994761E+02  0.68342158862E+02 -0.12678524266E+02  0.10463962137E+03  0.00000000000E+00 0.  1.
</event>
<event>
 7    1  0.2820496E-009  0.1139929E+03  0.7561462E-02  0.1253349E+00
         -3   -1    0    0    0  501 -0.00000000000E+00  0.00000000000E+00  0.20678338586E+03  0.20678338586E+03  0.00000000000E+00 0.  1.
          3   -1    0    0  501    0  0.00000000000E+00 -0.00000000000E+00 -0.15746950614E+03  0.15746950614E+03  0.00000000000E+00 0. -1.
         25    2    1    2    0    0 -0.85199747474E+02 -0.60005917300E+02 -0.73904212101E+02  0.17879927369E+03  0.12509052971E+03 0.  0.
          5    1    3    3  502    0 -0.13003848672E+01 -0.21553672834E+02 -0.83095896885E+02  0.85957270156E+02  0.41800000000E+01 0. -1.
         -5    1    3    3    0  502 -0.83899362607E+02 -0.38452244466E+02  0.91916847844E+01  0.92842003530E+02  0.41800000000E+01 0. -1.
        -11    1    1    2    0    0  0.70473714219E+02  0.67057104023E+02  0.13422007232E+03  0.16576557969E+03  0.00000000000E+00 0.  1.
         11    1    1    2    0    0  0.14726033255E+02 -0.70511867238E+01 -0.11001980508E+02  0.19688038621E+02  0.00000000000E+00 0. -1.
</event>
<event>
 7    1  0.2820496E-009  0.1094961E+03  0.7561462E-02  0.1261506E+00
          2   -1    0    0  501    0  0.00000000000E+00  0.00000000000E+00  0.10967584575E+04  0.10967584575E+04  0.00000000000E+00 0. -1.
         -2   -1    0    0    0  501 -0.00000000000E+00 -0.00000000000E+00 -0.24032211643E+02  0.24032211643E+02  0.00000000000E+00 0.  1.
         25    2    1    2    0    0  0.16412390007E+02  0.31043243000E+02  0.97859493038E+03  0.98718224471E+03  0.12509075516E+03 0.  0.
          5    1    3    3  502    0  0.65101948568E+02 -0.25389757404E+01  0.65090326888E+03  0.65416912794E+03  0.41800000000E+01 0.  1.
         -5    1    3    3    0  502 -0.48689558561E+02  0.33582218741E+02  0.32769166150E+03  0.33301311677E+03  0.41800000000E+01 0.  1.
        -11    1    1    2    0    0 -0.42643136788E+02 -0.47195251658E+02  0.57479628338E+02  0.85730604617E+02  0.00000000000E+00 0. -1.
         11    1    1    2    0    0  0.26230746781E+02  0.16152008658E+02  0.36651687153E+02  0.47877819828E+02  0.00000000000E+00 0.  1.
</event>
<event>
 7    1  0.2820496E-009  0.1325731E+03  0.7561462E-02  0.1223687E+00
         -2   -1    0    0    0  501 -0.00000000000E+00  0.00000000000E+00  0.19418912460E+03  0.19418912460E+03  0.00000000000E+00 0.  1.
          2   -1    0    0  501    0  0.00000000000E+00 -0.00000000000E+00 -0.10994909092E+03  0.10994909092E+03  0.00000000000E+00 0. -1.
         25    2    1    2    0    0 -0.82588164675E+02 -0.52168631102E+02  0.45064896331E+02  0.16498460343E+03  0.12508678376E+03 0.  0.
          5    1    3    3  502    0 -0.23921864024E+02  0.25005324152E+02  0.57418277917E+02  0.67170327178E+02  0.41800000000E+01 0. -1.
         -5    1    3    3    0  502 -0.58666300652E+02 -0.77173955254E+02 -0.12353381585E+02  0.97814276250E+02  0.41800000000E+01 0. -1.
        -11    1    1    2    0    0  0.72106050061E+02  0.77492610825E+02  0.27512941349E+02  0.10936795294E+03  0.00000000000E+00 0.  1.
         11    1    1    2    0    0  0.10482114614E+02 -0.25323979723E+02  0.11662195995E+02  0.29785659154E+02  0.00000000000E+00 0. -1.
</event>
<event>
 7    1  0.2820496E-009  0.4984150E+02  0.7561462E-02  0.1446198E+00
         -1   -1    0    0    0  501 -0.00000000000E+00  0.00000000000E+00  0.70413405079E+02  0.70413405079E+02  0.00000000000E+00 0.  1.
          1   -1    0    0  501    0  0.00000000000E+00 -0.00000000000E+00 -0.17359868125E+03  0.17359868125E+03  0.00000000000E+00 0. -1.
         25    2    1    2    0    0  0.35484943315E+02 -0.32649089994E+01 -0.69266932814E+02  0.14736330529E+03  0.12509274532E+03 0.  0.
          5    1    3    3  502    0  0.22361764115E+02 -0.15057600252E+02 -0.10435786627E+03  0.10786480646E+03  0.41800000000E+01 0. -1.
         -5    1    3    3    0  502  0.13123179200E+02  0.11792691253E+02  0.35090933455E+02  0.39498498833E+02  0.41800000000E+01 0. -1.
        -11    1    1    2    0    0 -0.15659750648E+01 -0.15451168624E+02 -0.51729494533E+02  0.54010475783E+02  0.00000000000E+00 0. -1.
         11    1    1    2    0    0 -0.33918968250E+02  0.18716077623E+02  0.17811151176E+02  0.42638305255E+02  0.00000000000E+00 0.  1.
</event>
<event>
 7    1  0.2820496E-009  0.1800940E+03  0.7561462E-02  0.1167712E+00
          2   -1    0    0  501    0  0.00000000000E+00  0.00000000000E+00  0.10387175023E+03  0.10387175023E+03  0.00000000000E+00 0. -1.
         -2   -1    0    0    0  501 -0.00000000000E+00 -0.00000000000E+00 -0.40789045325E+03  0.40789045325E+03  0.00000000000E+00 0.  1.
         25    2    1    2    0    0  0.16773595273E+03 -0.37986732462E+02 -0.12698842538E+03  0.24769482784E+03  0.12509326872E+03 0.  0.
          5    1    3    3  502    0 -0.73209045040E+01 -0.12195917219E+01  0.16349436031E+02  0.18435278823E+02  0.41800000000E+01 0.  1.
         -5    1    3    3    0  502  0.17505685724E+03 -0.36767140740E+02 -0.14333786141E+03  0.22925954902E+03  0.41800000000E+01 0.  1.
        -11    1    1    2    0    0 -0.65463835461E+02  0.67608637430E+01 -0.13306250025E+03  0.14844814585E+03  0.00000000000E+00 0.  1.
         11    1    1    2    0    0 -0.10227211727E+03  0.31225868719E+02 -0.43967777390E+02  0.11561922979E+03  0.00000000000E+00 0. -1.
</event>
<event>
 7    1  0.2820496E-009  0.1051377E+03  0.7561462E-02  0.1269849E+00
         -1   -1    0    0    0  501 -0.00000000000E+00  0.00000000000E+00  0.92713895131E+01  0.92713895131E+01  0.00000000000E+00 0.  1.
          1   -1    0    0  501    0  0.00000000000E+00 -0.00000000000E+00 -0.13453089083E+04  0.13453089083E+04  0.00000000000E+00 0. -1.
         25    2    1    2    0    0  0.28080429448E+02 -0.29322659465E+01 -0.78469415938E+03  0.79510250943E+03  0.12508384403E+03 0.  0.
          5    1    3    3  502    0 -0.23348694873E+02  0.41055163341E+02 -0.16401933997E+03  0.17073518757E+03  0.41800000000E+01 0.  1.
         -5    1    3    3    0  502  0.51429124322E+02 -0.43987429287E+02 -0.62067481941E+03  0.62436732187E+03  0.41800000000E+01 0.  1.
        -11    1    1    2    0    0 -0.52236732237E+02  0.28811589939E+02 -0.34666885910E+03  0.35176424176E+03  0.00000000000E+00 0.  1.
         11    1    1    2    0    0  0.24156302789E+02 -0.25879323992E+02 -0.20467450026E+03  0.20771354657E+03  0.00000000000E+00 0. -1.
</event>
<event>
 7    1  0.2956517E-009  0.8675979E+02  0.7561462E-02  0.1310894E+00
          1   -1    0    0  501    0  0.00000000000E+00  0.00000000000E+00  0.73466547417E+02  0.73466547417E+02  0.00000000000E+00 0. -1.
         -1   -1    0    0    0  501 -0.00000000000E+00 -0.00000000000E+00 -0.25306071250E+03  0.25306071250E+03  0.00000000000E+00 0.  1.
         25    2    1    2    0    0  0.43668425985E+01  0.11330739037E+02 -0.19638363976E+03  0.23315262437E+03  0.12508460067E+03 0.  0.
          5    1    3    3  502    0  0.50378734433E+02 -0.33953906879E+02 -0.90999501542E+02  0.10949550838E+03  0.41800000000E+01 0.  1.
         -5    1    3    3    0  502 -0.46011891834E+02  0.45284645916E+02 -0.10538413822E+03  0.12365711599E+03  0.41800000000E+01 0.  1.
        -11    1    1    2    0    0 -0.14885516310E+02 -0.25951954113E+02 -0.30528629932E+02  0.42744353588E+02  0.00000000000E+00 0.  1.
         11    1    1    2    0    0  0.10518673711E+02  0.14621215075E+02  0.47318104612E+02  0.50630281957E+02  0.00000000000E+00 0. -1.
</event>
<event>
 7    1  0.2820496E-009  0.9202832E+02  0.7561462E-02  0.1298013E+00
          3   -1    0    0  501    0  0.00000000000E+00  0.00000000000E+00  0.18531524587E+02  0.18531524587E+02  0.00000000000E+00 0. -1.
         -3   -1    0    0    0  501 -0.00000000000E+00 -0.00000000000E+00 -0.98828522351E+03  0.98828522351E+03  0.00000000000E+00 0.  1.
         25    2    1    2    0    0  0.43837952022E+02 -0.50200286625E+02 -0.70341870980E+03  0.71755693379E+03  0.12509291395E+03 0.  0.
          5    1    3    3  502    0  0.43596235008E+02 -0.26375600531E+02 -0.88824892457E+02  0.10248725740E+03  0.41800000000E+01 0.  1.
         -5    1    3    3    0  502  0.24171701364E+00 -0.23824686094E+02 -0.61459381735E+03  0.61506967639E+03  0.41800000000E+01 0.  1.
        -11    1    1    2    0    0  0.17382001190E+02  0.43878874295E+02 -0.15524374972E+03  0.16225939542E+03  0.00000000000E+00 0.  1.
         11    1    1    2    0    0 -0.61219953212E+02  0.63214123296E+01 -0.11109123940E+03  0.12700041888E+03  0.00000000000E+00 0. -1.
</event>
<event>
 7    1  0.2820496E-009  0.1175568E+03  0.7561462E-02  0.1247183E+00
          3   -1    0    0  501    0  0.00000000000E+00  0.00000000000E+00  0.11487587105E+03  0.11487587105E+03  0.00000000000E+00 0. -1.
         -3   -1    0    0    0  501 -0.00000000000E+00 -0.00000000000E+00 -0.19592892938E+03  0.19592892938E+03  0.00000000000E+00 0.  1.
         25    2    1    2    0    0 -0.73968829432E+02  0.66787522501E+02 -0.15361906828E+02  0.16066871262E+03  0.12508591505E+03 0.  0.
          5    1    3    3  502    0 -0.10432493246E+02 -0.22819374459E+02 -0.40574219657E+02  0.47888416833E+02  0.41800000000E+01 0.  1.
         -5    1    3    3    0  502 -0.63536336186E+02  0.89606896960E+02  0.25212312829E+02  0.11278029578E+03  0.41800000000E+01 0.  1.
        -11    1    1    2    0    0  0.64107458495E+02 -0.55842548898E+02 -0.22937982438E+01  0.85049503305E+02  0.00000000000E+00 0. -1.
         11    1    1    2    0    0  0.98613709368E+01 -0.10944973603E+02 -0.63397353250E+02  0.65086584509E+02  0.00000000000E+00 0.  1.
</event>
<event>
 7    1  0.2820496E-009  0.1560071E+03  0.7561462E-02  0.1193280E+00
          1   -1    0    0  501    0  0.00000000000E+00  0.00000000000E+00  0.46348002608E+03  0.46348002608E+03  0.00000000000E+00 0. -1.
         -1   -1    0    0    0  501 -0.00000000000E+00 -0.00000000000E+00 -0.83850582323E+02  0.83850582323E+02  0.00000000000E+00 0.  1.
         25    2    1    2    0    0  0.15299635429E+02  0.11514035256E+03  0.37659147577E+02  0.17480315908E+03  0.12508618387E+03 0.  0.
          5    1    3    3  502    0 -0.34291168030E+02  0.10929187012E+03  0.44875431976E+01  0.11470923033E+03  0.41800000000E+01 0. -1.
         -5    1    3    3    0  502  0.49590803458E+02  0.58484824316E+01  0.33171604379E+02  0.60093928741E+02  0.41800000000E+01 0. -1.
        -11    1    1    2    0    0 -0.49229524007E+02 -0.97074460707E+02  0.26533174101E+03  0.28678899865E+03  0.00000000000E+00 0. -1.
         11    1    1    2    0    0  0.33929888578E+02 -0.18065891849E+02  0.76638555168E+02  0.85738450683E+02  0.00000000000E+00 0.  1.
</event>
<event>
 7    1  0.2820496E-009  0.9731306E+02  0.7561462E-02  0.1286050E+00
         -2   -1    0    0    0  501 -0.00000000000E+00  0.00000000000E+00  0.17573145839E+03  0.17573145839E+03  0.00000000000E+00 0.  1.
          2   -1    0    0  501    0  0.00000000000E+00 -0.00000000000E+00 -0.11531521092E+03  0.11531521092E+03  0.00000000000E+00 0. -1.
         25    2    1    2    0    0 -0.27407964335E+02 -0.77349639719E+02 -0.69834802429E+01  0.14976811342E+03  0.12509018957E+03 0.  0.
          5    1    3    3  502    0  0.25424204349E+02 -0.24684932487E+02  0.45968445847E+02  0.58191979449E+02  0.41800000000E+01 0. -1.
         -5    1    3    3    0  502 -0.52832168684E+02 -0.52664707232E+02 -0.52951926090E+02  0.91576133966E+02  0.41800000000E+01 0. -1.
        -11    1    1    2    0    0  0.13347313080E+02  0.61969999936E+02  0.90291788526E+02  0.11032243078E+03  0.00000000000E+00 0.  1.
         11    1    1    2    0    0  0.14060651255E+02  0.15379639783E+02 -0.22892060815E+02  0.30956125112E+02  0.00000000000E+00 0. -1.
</event>
<event>
 7    1  0.2820496E-009  0.1201615E+03  0.7561462E-02  0.1242831E+00
         -2   -1    0    0    0  501 -0.00000000000E+00  0.00000000000E+00  0.78094106738E+01  0.78094106738E+01  0.00000000000E+00 0.  1.
          2   -1    0    0  501    0  0.00000000000E+00 -0.00000000000E+00 -0.22131213508E+04  0.22131213508E+04  0.00000000000E+00 0. -1.
         25    2    1    2    0    0  0.37511268103E+02 -0.37254967569E+02 -0.16585154696E+04  0.16640659753E+04  0.12508788764E+03 0.  0.
          5    1    3    3  502    0 -0.13750718929E+02  0.40025747549E+02 -0.46073842680E+03  0.46269699920E+03  0.41800000000E+01 0.  1.
         -5    1    3    3    0  502  0.51261987032E+02 -0.77280715118E+02 -0.11977770428E+04  0.12013689761E+04  0.41800000000E+01 0.  1.
        -11    1    1    2    0    0 -0.32371347370E+02  0.67195162971E+02 -0.36425712285E+03  0.37181493462E+03  0.00000000000E+00 0.  1.
         11    1    1    2    0    0 -0.51399207328E+01 -0.29940195402E+02 -0.18253934770E+03  0.18504985151E+03  0.00000000000E+00 0. -1.
</event>
<event>
 7    1  0.2820496E-009  0.9005737E+02  0.7561462E-02  0.1302713E+00
          1   -1    0    0  501    0  0.00000000000E+00  0.00000000000E+00  0.59124776640E+03  0.59124776640E+03  0.00000000000E+00 0. -1.
         -1   -1    0    0    0  501 -0.00000000000E+00 -0.00000000000E+00 -0.37826071749E+02  0.37826071749E+02  0.00000000000E+00 0.  1.
         25    2    1    2    0    0  0.87147966586E+01 -0.17075033971E+02  0.51278250359E+03  0.52816809960E+03  0.12509252970E+03 0.  0.
          5    1    3    3  502    0  0.60436109893E+02  0.47385115008E+01  0.36509879122E+03  0.37012102969E+03  0.41800000000E+01 0.  1.
         -5    1    3    3    0  502 -0.51721313234E+02 -0.21813545472E+02  0.14768371237E+03  0.15804706991E+03  0.41800000000E+01 0.  1.
        -11    1    1    2    0    0 -0.34098177934E+02  0.15971460335E+02 -0.14378088346E+02  0.40305120123E+02  0.00000000000E+00 0.  1.
         11    1    1    2    0    0  0.25383381275E+02  0.11035736361E+01  0.55017279409E+02  0.60600618423E+02  0.00000000000E+00 0. -1.
</event>
<event>
 7    1  0.2820496E-009  0.1409727E+03  0.7561462E-02  0.1212026E+00
          1   -1    0    0  501    0  0.00000000000E+00  0.00000000000E+00  0.10251394226E+03  0.10251394226E+03  0.00000000000E+00 0. -1.
         -1   -1    0    0    0  501 -0.00000000000E+00 -0.00000000000E+00 -0.23710533191E+03  0.23710533191E+03  0.00000000000E+00 0.  1.
         25    2    1    2    0    0 -0.10272124031E+03 -0.38725113495E+02 -0.94678183592E+02  0.19147547309E+03  0.12509041019E+03 0.  0.
          5    1    3    3  502    0 -0.72866428516E+02  0.18062236341E+02  0.21816915510E+01  0.75219631509E+02  0.41800000000E+01 0.  1.
         -5    1    3    3    0  502 -0.29854811793E+02 -0.56787349836E+02 -0.96859875143E+02  0.11625584158E+03  0.41800000000E+01 0.  1.
        -11    1    1    2    0    0 -0.12559642952E+02  0.22879000704E+02 -0.43022850437E+01  0.26451899004E+02  0.00000000000E+00 0.  1.
         11    1    1    2    0    0  0.11528088326E+03  0.15846112791E+02 -0.35610921017E+02  0.12169190208E+03  0.00000000000E+00 0. -1.
</event>
<event>
 7    1  0.2820496E-009  0.1374704E+03  0.7561462E-02  0.1216774E+00
          2   -1    0    0  501    0  0.00000000000E+00  0.00000000000E+00  0.12226132246E+04  0.12226132246E+04  0.00000000000E+00 0. -1.
         -2   -1    0    0    0  501 -0.00000000000E+00 -0.00000000000E+00 -0.19814567076E+02  0.19814567076E+02  0.00000000000E+00 0.  1.
         25    2    1    2    0    0 -0.11018936715E+03 -0.10263089256E+01  0.73224625103E+03  0.75098251277E+03  0.12508961748E+03 0.  0.
          5    1    3    3  502    0 -0.64117975932E+02 -0.38205675814E+02  0.61543807524E+03  0.61996151925E+03  0.41800000000E+01 0. -1.
         -5    1    3    3    0  502 -0.46071391222E+02  0.37179366888E+02  0.11680817579E+03  0.13102099352E+03  0.41800000000E+01 0. -1.
        -11    1    1    2    0    0 -0.92764874892E+01 -0.17631193905E+02  0.49017523975E+02  0.52911528756E+02  0.00000000000E+00 0.  1.
         11    1    1    2    0    0  0.11946585464E+03  0.18657502830E+02  0.42153488255E+03  0.43853375018E+03  0.00000000000E+00 0. -1.
</event>
<event>
 7    1  0.2820496E-009  0.9638596E+02  0.7561462E-02  0.1288085E+00
         -1   -1    0    0    0  501 -0.00000000000E+00  0.00000000000E+00  0.14661692440E+03  0.14661692440E+03  0.00000000000E+00 0.  1.
          1   -1    0    0  501    0  0.00000000000E+00 -0.00000000000E+00 -0.10782104483E+03  0.10782104483E+03  0.00000000000E+00 0. -1.
         25    2    1    2    0    0  0.17308262181E+02  0.40745720873E+02  0.64801315199E+02  0.14767123123E+03  0.12509113627E+03 0.  0.
          5    1    3    3  502    0  0.27069369669E+02  0.83773079205E+02  0.47255213071E+02  0.10000603550E+03  0.41800000000E+01 0.  1.
         -5    1    3    3    0  502 -0.97611074880E+01 -0.43027358332E+02  0.17546102128E+02  0.47665195733E+02  0.41800000000E+01 0.  1.
        -11    1    1    2    0    0  0.13436690398E+02 -0.15672434770E+02  0.31042511334E+02  0.37280120312E+02  0.00000000000E+00 0.  1.
         11    1    1    2    0    0 -0.30744952579E+02 -0.25073286103E+02 -0.57047946964E+02  0.69486617689E+02  0.00000000000E+00 0. -1.
</event>
<event>
 7    1  0.2820496E-009  0.1436198E+03  0.7561462E-02  0.1208540E+00
         -4   -1    0    0    0  501 -0.00000000000E+00  0.00000000000E+00  0.38853258779E+03  0.38853258779E+03  0.00000000000E+00 0.  1.
          4   -1    0    0  501    0  0.00000000000E+00 -0.00000000000E+00 -0.68622180201E+02  0.68622180201E+02  0.00000000000E+00 0. -1.
         25    2    1    2    0    0  0.47737099182E+02 -0.10679996594E+03  0.12869923046E+03  0.21423383473E+03  0.12509029003E+03 0.  0.
          5    1    3    3  502    0  0.22424830732E+02 -0.10942273465E+03  0.14548342376E+03  0.18346418419E+03  0.41800000000E+01 0. -1.
         -5    1    3    3    0  502  0.25312268450E+02  0.26227687024E+01 -0.16784193300E+02  0.30769650542E+02  0.41800000000E+01 0. -1.
        -11    1    1    2    0    0 -0.11450644523E+01  0.10291552836E+03  0.13651150144E+03  0.17096288245E+03  0.00000000000E+00 0.  1.
         11    1    1    2    0    0 -0.46592034730E+02  0.38844375831E+01  0.54699675681E+02  0.71958050802E+02  0.00000000000E+00 0. -1.
</event>
<event>
 7    1  0.2820496E-009  0.9515352E+02  0.7561462E-02  0.1290831E+00
         -2   -1    0    0    0  501 -0.00000000000E+00  0.00000000000E+00  0.83460790426E+02  0.83460790426E+02  0.00000000000E+00 0.  1.
          2   -1    0    0  501    0  0.00000000000E+00 -0.00000000000E+00 -0.16919720245E+03  0.16919720245E+03  0.00000000000E+00 0. -1.
         25    2    1    2    0    0 -0.49726772439E+01  0.57907262922E+02 -0.51024701463E+02  0.14706844056E+03  0.12509047698E+03 0.  0.
          5    1    3    3  502    0 -0.94290324090E+01  0.92957376981E+02 -0.12057038211E+02  0.94301777066E+02  0.41800000000E+01 0.  1.
         -5    1    3    3    0  502  0.44563551652E+01 -0.35050114059E+02 -0.38967663253E+02  0.52766663494E+02  0.41800000000E+01 0.  1.
        -11    1    1    2    0    0 -0.72731394703E+01 -0.26809192749E+02  0.24862979125E+02  0.37280009450E+02  0.00000000000E+00 0.  1.
         11    1    1    2    0    0  0.12245816714E+02 -0.31098070172E+02 -0.59574689683E+02  0.68309542863E+02  0.00000000000E+00 0. -1.
</event>
<event>
 7    1  0.2820496E-009  0.1026306E+03  0.7561462E-02  0.1274860E+00
          2   -1    0    0  501    0  0.00000000000E+00  0.00000000000E+00  0.70610397339E+03  0.70610397339E+03  0.00000000000E+00 0. -1.
         -2   -1    0    0    0  501 -0.00000000000E+00 -0.00000000000E+00 -0.21026828766E+02  0.21026828766E+02  0.00000000000E+00 0.  1.
         25    2    1    2    0    0 -0.32311133811E+02 -0.43764855257E+02  0.34634931823E+03  0.37224407302E+03  0.12509367586E+03 0.  0.
          5    1    3    3  502    0  0.13618005227E+02 -0.54114202145E+02  0.60095232665E+02  0.82113983762E+02  0.41800000000E+01 0. -1.
         -5    1    3    3    0  502 -0.45929139038E+02  0.10349346888E+02  0.28625408556E+03  0.29013008926E+03  0.41800000000E+01 0. -1.
        -11    1    1    2    0    0  0.60127995981E+02  0.14891824988E+02  0.24933863133E+03  0.25691807142E+03  0.00000000000E+00 0.  1.
         11    1    1    2    0    0 -0.27816862170E+02  0.28873030269E+02  0.89389195076E+02  0.97968657714E+02  0.00000000000E+00 0. -1.
</event>
<event>
 7    1  0.2820496E-009  0.6830609E+02  0.7561462E-02  0.1365950E+00
          2   -1    0    0  501    0  0.00000000000E+00  0.00000000000E+00  0.40740049201E+03  0.40740049201E+03  0.00000000000E+00 0.  1.
         -2   -1    0    0    0  501 -0.00000000000E+00 -0.00000000000E+00 -0.38389886784E+02  0.38389886784E+02  0.00000000000E+00 0. -1.
         25    2    1    2    0    0  0.26416842722E+02  0.11665704678E+02  0.13407265108E+03  0.18562687048E+03  0.12509165052E+03 0.  0.
          5    1    3    3  502    0  0.32631435035E+02 -0.10834323197E+02  0.15200181630E+03  0.15589810028E+03  0.41800000000E+01 0. -1.
         -5    1    3    3    0  502 -0.62145923129E+01  0.22500027876E+02 -0.17929165219E+02  0.29728770198E+02  0.41800000000E+01 0. -1.
        -11    1    1    2    0    0  0.20213716223E+02 -0.22647142104E+02  0.12843775198E+02  0.32961339936E+02  0.00000000000E+00 0. -1.
         11    1    1    2    0    0 -0.46630558945E+02  0.10981437426E+02  0.22209417894E+03  0.22720216838E+03  0.00000000000E+00 0.  1.
</event>
<event>
 7    1  0.2820496E-009  0.1045156E+03  0.7561462E-02  0.1271077E+00
         -4   -1    0    0    0  501 -0.00000000000E+00  0.00000000000E+00  0.47318375214E+03  0.47318375214E+03  0.00000000000E+00 0.  1.
          4   -1    0    0  501    0  0.00000000000E+00 -0.00000000000E+00 -0.45178850385E+02  0.45178850385E+02  0.00000000000E+00 0. -1.
         25    2    1    2    0    0 -0.80981869043E+02 -0.31976923812E+02  0.30812482437E+03  0.34375652621E+03  0.12508818948E+03 0.  0.
          5    1    3    3  502    0 -0.14260715728E+02 -0.15193170901E-01  0.24769421040E+03  0.24813960287E+03  0.41800000000E+01 0. -1.
         -5    1    3    3    0  502 -0.66721153315E+02 -0.31961730642E+02  0.60430613972E+02  0.95616923347E+02  0.41800000000E+01 0. -1.
        -11    1    1    2    0    0 -0.14709336867E+02  0.18187760258E+02  0.50356741219E+02  0.55524414454E+02  0.00000000000E+00 0.  1.
         11    1    1    2    0    0  0.95691205910E+02  0.13789163554E+02  0.69523336167E+02  0.11908166186E+03  0.00000000000E+00 0. -1.
</event>
<event>
 7    1  0.2820496E-009  0.1038712E+03  0.7561462E-02  0.1272360E+00
         -2   -1    0    0    0  501 -0.00000000000E+00  0.00000000000E+00  0.84954085847E+02  0.84954085847E+02  0.00000000000E+00 0.  1.
          2   -1    0    0  501    0  0.00000000000E+00 -0.00000000000E+00 -0.19529824346E+03  0.19529824346E+03  0.00000000000E+00 0. -1.
         25    2    1    2    0    0 -0.52584891808E+01 -0.42508409667E+02 -0.11668634840E+03  0.17634975742E+03  0.12509562918E+03 0.  0.
          5    1    3    3  502    0  0.19897121512E+02 -0.70494432356E+02 -0.11744802088E+03  0.13848057786E+03  0.41800000000E+01 0. -1.
         -5    1    3    3    0  502 -0.25155610693E+02  0.27986022689E+02  0.76167247938E+00  0.37869179556E+02  0.41800000000E+01 0. -1.
        -11    1    1    2    0    0 -0.36477400395E+02 -0.63924986990E+00  0.21018564370E+02  0.42104506032E+02  0.00000000000E+00 0.  1.
         11    1    1    2    0    0  0.41735889576E+02  0.43147659537E+02 -0.14676373590E+02  0.61798065860E+02  0.00000000000E+00 0. -1.
</event>
<event>
 7    1  0.2820496E-009  0.1431001E+03  0.7561462E-02  0.1209217E+00
          1   -1    0    0  501    0  0.00000000000E+00  0.00000000000E+00  0.91548614077E+02  0.91548614077E+02  0.00000000000E+00 0. -1.
         -1   -1    0    0    0  501 -0.00000000000E+00 -0.00000000000E+00 -0.30178538929E+03  0.30178538929E+03  0.00000000000E+00 0.  1.
         25    2    1    2    0    0 -0.11705011563E+03  0.32044937501E+02 -0.75649456351E+02  0.18999599035E+03  0.12509208014E+03 0.  0.
          5    1    3    3  502    0 -0.63110889639E+02  0.47109850899E+02 -0.10119686714E+03  0.12829887280E+03  0.41800000000E+01 0. -1.
         -5    1    3    3    0  502 -0.53939225995E+02 -0.15064913397E+02  0.25547410788E+02  0.61697117555E+02  0.41800000000E+01 0. -1.
        -11    1    1    2    0    0  0.12455576522E+03 -0.66929604350E+01 -0.12025580832E+03  0.17326394260E+03  0.00000000000E+00 0.  1.
         11    1    1    2    0    0 -0.75056495881E+01 -0.25351977066E+02 -0.14331510538E+02  0.30074070413E+02  0.00000000000E+00 0. -1.
</event>
<event>
 6    1  0.2820496E-009  0.3066611E+03  0.7561462E-02  0.1081957E+00
         -1   -1    0    0    0  501 -0.00000000000E+00  0.00000000000E+00  0.12380676896E+03  0.12380676896E+03  0.00000000000E+00 0.  1.
          1   -1    0    0  501    0  0.00000000000E+00 -0.00000000000E+00 -0.81999964223E+03  0.81999964223E+03  0.00000000000E+00 0. -1.
          5    1    1    2  502    0  0.66801001439E+02  0.17312358819E+03 -0.16338703289E+03  0.24727908423E+03  0.41800000000E+01 0. -1.
         -5    1    1    2    0  502 -0.33285460251E+02  0.12359377950E+03 -0.21978492864E+03  0.25437419573E+03  0.41800000000E+01 0. -1.
        -11    1    1    2    0    0 -0.36266138416E+02 -0.22746077265E+03 -0.18061765429E+03  0.29270526632E+03  0.00000000000E+00 0.  1.
         11    1    1    2    0    0  0.27505972273E+01 -0.69256595032E+02 -0.13240325746E+03  0.14944786491E+03  0.00000000000E+00 0. -1.
</event>
<event>
 7    1  0.2820496E-009  0.1062668E+03  0.7561462E-02  0.1267644E+00
         -2   -1    0    0    0  501 -0.00000000000E+00  0.00000000000E+00  0.20132078337E+03  0.20132078337E+03  0.00000000000E+00 0.  1.
          2   -1    0    0  501    0  0.00000000000E+00 -0.00000000000E+00 -0.91551505798E+02  0.91551505798E+02  0.00000000000E+00 0. -1.
         25    2    1    2    0    0  0.57387218155E+02  0.54858279213E+02  0.80465271615E+02  0.16859713985E+03  0.12509041540E+03 0.  0.
          5    1    3    3  502    0  0.27521717433E+01  0.50655279515E+02  0.98402408476E+02  0.11078825834E+03  0.41800000000E+01 0. -1.
         -5    1    3    3    0  502  0.54635046411E+02  0.42029996979E+01 -0.17937136862E+02  0.57808881512E+02  0.41800000000E+01 0. -1.
        -11    1    1    2    0    0  0.53458028765E+01  0.13124575078E+02 -0.15914785392E+02  0.21309914910E+02  0.00000000000E+00 0. -1.
         11    1    1    2    0    0 -0.62733021031E+02 -0.67982854291E+02  0.45218791350E+02  0.10296523441E+03  0.00000000000E+00 0.  1.
</event>
<event>
 7    1  0.2820496E-009  0.2367342E+03  0.7561462E-02  0.1121988E+00
         -1   -1    0    0    0  501 -0.00000000000E+00  0.00000000000E+00  0.12982071558E+04  0.12982071558E+04  0.00000000000E+00 0.  1.
          1   -1    0    0  501    0  0.00000000000E+00 -0.00000000000E+00 -0.44861412097E+02  0.44861412097E+02  0.00000000000E+00 0. -1.
         25    2    1    2    0    0  0.36788837351E+02 -0.21335610324E+03  0.64071680453E+03  0.68777893879E+03  0.12509036612E+03 0.  0.
          5    1    3    3  502    0  0.88994796524E+01 -0.21569542240E+03  0.50635187646E+03  0.55046653956E+03  0.41800000000E+01 0.  1.
         -5    1    3    3    0  502  0.27889357699E+02  0.23393191617E+01  0.13436492807E+03  0.13731239923E+03  0.41800000000E+01 0.  1.
        -11    1    1    2    0    0  0.22772090024E+02  0.80423233252E+02  0.17254050538E+03  0.19172034458E+03  0.00000000000E+00 0. -1.
         11    1    1    2    0    0 -0.59560927375E+02  0.13293286999E+03  0.44008843383E+03  0.46356928456E+03  0.00000000000E+00 0.  1.
</event>
<event>
 7    1  0.2820496E-009  0.1023117E+03  0.7561462E-02  0.1275508E+00
          2   -1    0    0  501    0  0.00000000000E+00  0.00000000000E+00  0.31707333089E+02  0.31707333089E+02  0.00000000000E+00 0.  1.
         -2   -1    0    0    0  501 -0.00000000000E+00 -0.00000000000E+00 -0.53190351452E+03  0.53190351452E+03  0.00000000000E+00 0. -1.
         25    2    1    2    0    0 -0.21718149205E+02  0.44864988606E+02 -0.16496552925E+03  0.21294517494E+03  0.12508987363E+03 0.  0.
          5    1    3    3  502    0  0.14082469151E+02  0.70315648730E+02 -0.44131238743E+02  0.84306850414E+02  0.41800000000E+01 0. -1.
         -5    1    3    3    0  502 -0.35800618356E+02 -0.25450660125E+02 -0.12083429051E+03  0.12863832453E+03  0.41800000000E+01 0. -1.
        -11    1    1    2    0    0  0.37763029395E+02  0.32923171211E+01 -0.61312373758E+02  0.72083929672E+02  0.00000000000E+00 0.  1.
         11    1    1    2    0    0 -0.16044880190E+02 -0.48157305727E+02 -0.27391827842E+03  0.27858174299E+03  0.00000000000E+00 0. -1.
</event>
<event>
 7    1  0.2820496E-009  0.1443134E+03  0.7561462E-02  0.1207640E+00
          1   -1    0    0  501    0  0.00000000000E+00  0.00000000000E+00  0.37549077325E+02  0.37549077325E+02  0.00000000000E+00 0. -1.
         -1   -1    0    0    0  501 -0.00000000000E+00 -0.00000000000E+00 -0.84308813550E+03  0.84308813550E+03  0.00000000000E+00 0.  1.
         25    2    1    2    0    0 -0.73339470273E+01  0.13858334900E+03 -0.49192176203E+03  0.52620773458E+03  0.12509367922E+03 0.  0.
          5    1    3    3  502    0 -0.41341081183E+01  0.50619051434E+02 -0.38171499891E+03  0.38510153468E+03  0.41800000000E+01 0.  1.
         -5    1    3    3    0  502 -0.31998389090E+01  0.87964297563E+02 -0.11020676311E+03  0.14110619990E+03  0.41800000000E+01 0.  1.
        -11    1    1    2    0    0 -0.22748635295E+02 -0.86077918078E+02 -0.25534117430E+03  0.27041823844E+03  0.00000000000E+00 0.  1.
         11    1    1    2    0    0  0.30082582322E+02 -0.52505430919E+02 -0.58276121846E+02  0.84011239799E+02  0.00000000000E+00 0. -1.
</event>
<event>
 7    1  0.2820496E-009  0.2312710E+03  0.7561462E-02  0.1125748E+00
          1   -1    0    0  501    0  0.00000000000E+00  0.00000000000E+00  0.42450392715E+03  0.42450392715E+03  0.00000000000E+00 0. -1.
         -1   -1    0    0    0  501 -0.00000000000E+00 -0.00000000000E+00 -0.14101147981E+03  0.14101147981E+03  0.00000000000E+00 0.  1.
         25    2    1    2    0    0  0.90101727459E+02  0.19923661763E+03  0.14701445122E+03  0.29167507637E+03  0.12509016833E+03 0.  0.
          5    1    3    3  502    0  0.66576720202E+02  0.30540584989E+02  0.12121717961E+02  0.74361249658E+02  0.41800000000E+01 0. -1.
         -5    1    3    3    0  502  0.23525007257E+02  0.16869603264E+03  0.13489273325E+03  0.21731382671E+03  0.41800000000E+01 0. -1.
        -11    1    1    2    0    0 -0.14735311180E+02 -0.39892653897E+02  0.76718895152E+02  0.87717399094E+02  0.00000000000E+00 0. -1.
         11    1    1    2    0    0 -0.75366416279E+02 -0.15934396373E+03  0.59759100971E+02  0.18612293150E+03  0.00000000000E+00 0.  1.
</event>
<event>
 7    1  0.2820496E-009  0.1885434E+03  0.7561462E-02  0.1159782E+00
         -2   -1    0    0    0  501 -0.00000000000E+00  0.00000000000E+00  0.77247978751E+03  0.77247978751E+03  0.00000000000E+00 0.  1.
          2   -1    0    0  501    0  0.00000000000E+00 -0.00000000000E+00 -0.52234870254E+02  0.52234870254E+02  0.00000000000E+00 0. -1.
         25    2    1    2    0    0 -0.14539010723E+03 -0.84258955306E+02  0.40823407571E+03  0.45884710349E+03  0.12509096282E+03 0.  0.
          5    1    3    3  502    0 -0.72489409649E+01 -0.69000942234E+02  0.15712653300E+03  0.17181355286E+03  0.41800000000E+01 0. -1.
         -5    1    3    3    0  502 -0.13814116627E+03 -0.15258013072E+02  0.25110754272E+03  0.28703355063E+03  0.41800000000E+01 0. -1.
        -11    1    1    2    0    0  0.79751576665E+02  0.53604311441E+02  0.87511921423E+02  0.12996950633E+03  0.00000000000E+00 0. -1.
         11    1    1    2    0    0  0.65638530569E+02  0.30654643865E+02  0.22449892012E+03  0.23589804794E+03  0.00000000000E+00 0.  1.
</event>
<event>
 7    1  0.2820496E-009  0.1064050E+03  0.7561462E-02  0.1267376E+00
          1   -1    0    0  501    0  0.00000000000E+00  0.00000000000E+00  0.24326537057E+03  0.24326537057E+03  0.00000000000E+00 0. -1.
         -1   -1    0    0    0  501 -0.00000000000E+00 -0.00000000000E+00 -0.52608030457E+02  0.52608030457E+02  0.00000000000E+00 0.  1.
         25    2    1    2    0    0  0.32868425301E+01 -0.33673300035E+02  0.10570370186E+03  0.16723592456E+03  0.12509951002E+03 0.  0.
          5    1    3    3  502    0  0.63937721049E+02 -0.13017954828E+02  0.52779728367E+02  0.84027801634E+02  0.41800000000E+01 0. -1.
         -5    1    3    3    0  502 -0.60650878519E+02 -0.20655345206E+02  0.52923973488E+02  0.83208122924E+02  0.41800000000E+01 0. -1.
        -11    1    1    2    0    0 -0.35866626639E+02 -0.68039197388E+00  0.57062865383E+01  0.36324090433E+02  0.00000000000E+00 0. -1.
         11    1    1    2    0    0  0.32579784109E+02  0.34353692009E+02  0.79247351723E+02  0.92313386041E+02  0.00000000000E+00 0.  1.
</event>
<event>
 7    1  0.2820496E-009  0.1658906E+03  0.7561462E-02  0.1182202E+00
         -2   -1    0    0    0  501 -0.00000000000E+00  0.00000000000E+00  0.44926051161E+02  0.44926051161E+02  0.00000000000E+00 0.  1.
          2   -1    0    0  501    0  0.00000000000E+00 -0.00000000000E+00 -0.70552244919E+03  0.70552244919E+03  0.00000000000E+00 0. -1.
         25    2    1    2    0    0 -0.12009584208E+03 -0.76545136547E+02 -0.41434465596E+03  0.45564350867E+03  0.12508934350E+03 0.  0.
          5    1    3    3  502    0 -0.28994011746E+02 -0.91849837728E+02 -0.23058887261E+03  0.24993148257E+03  0.41800000000E+01 0. -1.
         -5    1    3    3    0  502 -0.91101830331E+02  0.15304701181E+02 -0.18375578335E+03  0.20571202610E+03  0.41800000000E+01 0. -1.
        -11    1    1    2    0    0  0.49897310510E+02  0.38728017894E+02 -0.42833618446E+02  0.76317231575E+02  0.00000000000E+00 0.  1.
         11    1    1    2    0    0  0.70198531566E+02  0.37817118653E+02 -0.20341812362E+03  0.21848776010E+03  0.00000000000E+00 0. -1.
</event>
<event>
 7    1  0.2820496E-009  0.1474421E+03  0.7561462E-02  0.1203652E+00
         -2   -1    0    0    0  501 -0.00000000000E+00  0.00000000000E+00  0.38799502518E+03  0.38799502518E+03  0.00000000000E+00 0.  1.
          2   -1    0    0  501    0  0.00000000000E+00 -0.00000000000E+00 -0.96372672737E+02  0.96372672737E+02  0.00000000000E+00 0. -1.
         25    2    1    2    0    0  0.43817430763E+02  0.12385433784E+03  0.26625944815E+03  0.32218687683E+03  0.12510166117E+03 0.  0.
          5    1    3    3  502    0  0.71349905597E+02  0.11228527150E+03  0.14328062546E+03  0.19556482623E+03  0.41800000000E+01 0. -1.
         -5    1    3    3    0  502 -0.27532474834E+02  0.11569066337E+02  0.12297882269E+03  0.12662205060E+03  0.41800000000E+01 0. -1.
        -11    1    1    2    0    0 -0.15787225445E+02 -0.56699066329E+02  0.57815219666E+02  0.82502243818E+02  0.00000000000E+00 0.  1.
         11    1    1    2    0    0 -0.28030205318E+02 -0.67155271511E+02 -0.32452315382E+02  0.79678577269E+02  0.00000000000E+00 0. -1.
</event>
<event>
 7    1  0.2820496E-009  0.1899378E+03  0.7561462E-02  0.1158517E+00
          1   -1    0    0  501    0  0.00000000000E+00  0.00000000000E+00  0.11566515811E+03  0.11566515811E+03  0.00000000000E+00 0. -1.
         -1   -1    0    0    0  501 -0.00000000000E+00 -0.00000000000E+00 -0.33144022095E+03  0.33144022095E+03  0.00000000000E+00 0.  1.
         25    2    1    2    0    0  0.11704855687E+03 -0.11236185448E+03 -0.13188083105E+03  0.24364796432E+03  0.12508487483E+03 0.  0.
          5    1    3    3  502    0  0.10743295604E+03 -0.21891711332E+02 -0.47748133527E+02  0.11965969966E+03  0.41800000000E+01 0. -1.
         -5    1    3    3    0  502  0.96156008327E+01 -0.90470143143E+02 -0.84132697525E+02  0.12398826466E+03  0.41800000000E+01 0. -1.
        -11    1    1    2    0    0 -0.71710685518E+02  0.17312458168E+02 -0.91866877872E+01  0.74340694494E+02  0.00000000000E+00 0.  1.
         11    1    1    2    0    0 -0.45337871351E+02  0.95049396307E+02 -0.74707544002E+02  0.12911672025E+03  0.00000000000E+00 0. -1.
</event>
<event>
 7    1  0.2820496E-009  0.1337138E+03  0.7561462E-02  0.1222047E+00
         -1   -1    0    0    0  501 -0.00000000000E+00  0.00000000000E+00  0.16935529065E+02  0.16935529065E+02  0.00000000000E+00 0.  1.
          1   -1    0    0  501    0  0.00000000000E+00 -0.00000000000E+00 -0.13512639199E+04  0.13512639199E+04  0.00000000000E+00 0. -1.
         25    2    1    2    0    0  0.62361444644E+02 -0.78352647355E+02 -0.67273593506E+03  0.69155554298E+03  0.12508934239E+03 0.  0.
          5    1    3    3  502    0  0.90308447765E+02 -0.63800417620E+02 -0.62141167805E+03  0.63118622850E+03  0.41800000000E+01 0. -1.
         -5    1    3    3    0  502 -0.27947003121E+02 -0.14552229735E+02 -0.51324257012E+02  0.60369314486E+02  0.41800000000E+01 0. -1.
        -11    1    1    2    0    0 -0.82713788636E+01 -0.14983769123E+02 -0.21284873400E+02  0.27312540729E+02  0.00000000000E+00 0.  1.
         11    1    1    2    0    0 -0.54090065781E+02  0.93336416478E+02 -0.64030758238E+03  0.64933136526E+03  0.00000000000E+00 0. -1.
</event>
<event>
 7    1  0.2820496E-009  0.1339801E+03  0.7561462E-02  0.1221667E+00
          1   -1    0    0  501    0  0.00000000000E+00  0.00000000000E+00  0.14954043689E+03  0.14954043689E+03  0.00000000000E+00 0. -1.
         -1   -1    0    0    0  501 -0.00000000000E+00 -0.00000000000E+00 -0.15699335031E+03  0.15699335031E+03  0.00000000000E+00 0.  1.
         25    2    1    2    0    0 -0.69675717101E+02  0.81931196496E+02  0.17277996315E+02  0.16586845161E+03  0.12508552103E+03 0.  0.
          5    1    3    3  502    0 -0.20674155799E+02 -0.15345747094E+02 -0.36068831760E+02  0.44512309494E+02  0.41800000000E+01 0. -1.
         -5    1    3    3    0  502 -0.49001561301E+02  0.97276943590E+02  0.53346828076E+02  0.12135614212E+03  0.41800000000E+01 0. -1.
        -11    1    1    2    0    0  0.85240045834E+02 -0.80500510714E+02 -0.34523129565E+02  0.12222129157E+03  0.00000000000E+00 0.  1.
         11    1    1    2    0    0 -0.15564328733E+02 -0.14306857824E+01  0.97922198275E+01  0.18444044022E+02  0.00000000000E+00 0. -1.
</event>
<event>
 7    1  0.2820496E-009  0.9734759E+02  0.7561462E-02  0.1285975E+00
          2   -1    0    0  501    0  0.00000000000E+00  0.00000000000E+00  0.11614187944E+03  0.11614187944E+03  0.00000000000E+00 0. -1.
         -2   -1    0    0    0  501 -0.00000000000E+00 -0.00000000000E+00 -0.16306089389E+03  0.16306089389E+03  0.00000000000E+00 0.  1.
         25    2    1    2    0    0  0.88150435639E+01 -0.87618643691E+01  0.59695614106E+02  0.13916069997E+03  0.12509060242E+03 0.  0.
          5    1    3    3  502    0 -0.49423185333E+02  0.24146077189E+02  0.10836487781E+02  0.56219090703E+02  0.41800000000E+01 0. -1.
         -5    1    3    3    0  502  0.58238228897E+02 -0.32907941558E+02  0.48859126325E+02  0.82941609268E+02  0.41800000000E+01 0. -1.
        -11    1    1    2    0    0  0.31407557239E+02  0.73694867233E+01 -0.75760429282E+01  0.33138201713E+02  0.00000000000E+00 0. -1.
         11    1    1    2    0    0 -0.40222600803E+02  0.13923776458E+01 -0.99038585624E+02  0.10690387165E+03  0.00000000000E+00 0.  1.
</event>
<event>
 7    1  0.4900795E-009  0.1275192E+03  0.7561462E-02  0.1231184E+00
         -2   -1    0    0    0  501 -0.00000000000E+00  0.00000000000E+00  0.25934177452E+02  0.25934177452E+02  0.00000000000E+00 0.  1.
          2   -1    0    0  501    0  0.00000000000E+00 -0.00000000000E+00 -0.92913680738E+03  0.92913680738E+03  0.00000000000E+00 0. -1.
         25    2    1    2    0    0 -0.77605578967E+02 -0.79081140035E+02 -0.50289890315E+03  0.52993694874E+03  0.12509760293E+03 0.  0.
          5    1    3    3  502    0 -0.53769294015E+02 -0.43273921454E+02 -0.47143456602E+03  0.47647853225E+03  0.41800000000E+01 0.  1.
         -5    1    3    3    0  502 -0.23836284952E+02 -0.35807218581E+02 -0.31464337128E+02  0.53458416491E+02  0.41800000000E+01 0.  1.
        -11    1    1    2    0    0  0.11983777790E+01  0.64961940731E+02 -0.19992136202E+03  0.21021427364E+03  0.00000000000E+00 0.  1.
         11    1    1    2    0    0  0.76407201188E+02  0.14119199304E+02 -0.20038236477E+03  0.21491976245E+03  0.00000000000E+00 0. -1.
</event>
<event>
 7    1  0.2820496E-009  0.2130872E+03  0.7561462E-02  0.1139144E+00
         -1   -1    0    0    0  501 -0.00000000000E+00  0.00000000000E+00  0.74615386798E+02  0.74615386798E+02  0.00000000000E+00 0.  1.
          1   -1    0    0  501    0  0.00000000000E+00 -0.00000000000E+00 -0.65274440949E+03  0.65274440949E+03  0.00000000000E+00 0. -1.
         25    2    1    2    0    0 -0.17328750537E+03  0.71411073653E+02 -0.22186127273E+03  0.31622589154E+03  0.12509312205E+03 0.  0.
          5    1    3    3  502    0 -0.13753625962E+03 -0.83120591949E+01 -0.13405624619E+03  0.19228588762E+03  0.41800000000E+01 0.  1.
         -5    1    3    3    0  502 -0.35751245757E+02  0.79723132848E+02 -0.87805026540E+02  0.12394000391E+03  0.41800000000E+01 0.  1.
        -11    1    1    2    0    0  0.11609777970E+03 -0.93737254391E+01 -0.16386356607E+03  0.20104185998E+03  0.00000000000E+00 0.  1.
         11    1    1    2    0    0  0.57189725676E+02 -0.62037348214E+02 -0.19240418389E+03  0.21009204477E+03  0.00000000000E+00 0. -1.
</event>
<event>
 7    1  0.2820496E-009  0.9930747E+02  0.7561462E-02  0.1281759E+00
         -1   -1    0    0    0  501 -0.00000000000E+00  0.00000000000E+00  0.20179179244E+02  0.20179179244E+02  0.00000000000E+00 0.  1.
          1   -1    0    0  501    0  0.00000000000E+00 -0.00000000000E+00 -0.72214485465E+03  0.72214485465E+03  0.00000000000E+00 0. -1.
         25    2    1    2    0    0  0.52347667270E+02  0.65234794324E-01 -0.37735152247E+03  0.40097665893E+03  0.12509127457E+03 0.  0.
          5    1    3    3  502    0  0.44898963418E+02  0.38419029023E+02 -0.34508464212E+03  0.35013257679E+03  0.41800000000E+01 0. -1.
         -5    1    3    3    0  502  0.74487038513E+01 -0.38353794228E+02 -0.32266880355E+02  0.50844082140E+02  0.41800000000E+01 0. -1.
        -11    1    1    2    0    0 -0.22726242597E+02  0.42516905429E+02 -0.10271485215E+03  0.11346589885E+03  0.00000000000E+00 0.  1.
         11    1    1    2    0    0 -0.29621424673E+02 -0.42582140224E+02 -0.22189930078E+03  0.22788147610E+03  0.00000000000E+00 0. -1.
</event>
<event>
 7    1  0.2820496E-009  0.1071580E+03  0.7561462E-02  0.1265925E+00
          2   -1    0    0  501    0  0.00000000000E+00  0.00000000000E+00  0.65913588692E+03  0.65913588692E+03  0.00000000000E+00 0. -1.
         -2   -1    0    0    0  501 -0.00000000000E+00 -0.00000000000E+00 -0.24878711399E+02  0.24878711399E+02  0.00000000000E+00 0.  1.
         25    2    1    2    0    0  0.62847976840E+02 -0.22048809905E+02  0.37743389726E+03  0.40316254756E+03  0.12509066608E+03 0.  0.
          5    1    3    3  502    0  0.88976876818E+02 -0.74721501116E+01  0.15695961392E+03  0.18062809980E+03  0.41800000000E+01 0.  1.
         -5    1    3    3    0  502 -0.26128899977E+02 -0.14576659794E+02  0.22047428334E+03  0.22253444776E+03  0.41800000000E+01 0.  1.
        -11    1    1    2    0    0  0.81785798400E+01  0.22234441298E+02  0.13271771221E+02  0.27155100061E+02  0.00000000000E+00 0.  1.
         11    1    1    2    0    0 -0.71026556680E+02 -0.18563139212E+00  0.24355150704E+03  0.25369695070E+03  0.00000000000E+00 0. -1.
</event>
<event>
 7    1  0.2820496E-009  0.1616295E+03  0.7561462E-02  0.1186869E+00
          1   -1    0    0  501    0  0.00000000000E+00  0.00000000000E+00  0.89937361242E+02  0.89937361242E+02  0.00000000000E+00 0. -1.
         -1   -1    0    0    0  501 -0.00000000000E+00 -0.00000000000E+00 -0.39038980339E+03  0.39038980339E+03  0.00000000000E+00 0.  1.
         25    2    1    2    0    0  0.98227831076E+02  0.11614730134E+03 -0.15078997441E+03  0.24804052188E+03  0.12509029420E+03 0.  0.
          5    1    3    3  502    0  0.96583551809E+02  0.12634047815E+03 -0.83177749889E+02  0.17951687769E+03  0.41800000000E+01 0. -1.
         -5    1    3    3    0  502  0.16442792669E+01 -0.10193176809E+02 -0.67612224524E+02  0.68523644189E+02  0.41800000000E+01 0. -1.
        -11    1    1    2    0    0 -0.22290208180E+02 -0.16405119379E+02  0.98787725918E+01  0.29386586574E+02  0.00000000000E+00 0. -1.
         11    1    1    2    0    0 -0.75937622896E+02 -0.99742181960E+02 -0.15954124033E+03  0.20290005618E+03  0.00000000000E+00 0.  1.
</event>
<event>
 7    1  0.2820496E-009  0.1259865E+03  0.7561462E-02  0.1233536E+00
          1   -1    0    0  501    0  0.00000000000E+00  0.00000000000E+00  0.85258899772E+03  0.85258899772E+03  0.00000000000E+00 0. -1.
         -1   -1    0    0    0  501 -0.00000000000E+00 -0.00000000000E+00 -0.24621266404E+02  0.24621266404E+02  0.00000000000E+00 0.  1.
         25    2    1    2    0    0  0.42796779774E+01 -0.79132506117E+02  0.63793382988E+03  0.65489449118E+03  0.12508778561E+03 0.  0.
          5    1    3    3  502    0 -0.11461589522E+02  0.29951609791E+02  0.23202422208E+03  0.23426732379E+03  0.41800000000E+01 0.  1.
         -5    1    3    3    0  502  0.15741267500E+02 -0.10908411591E+03  0.40590960779E+03  0.42062716738E+03  0.41800000000E+01 0.  1.
        -11    1    1    2    0    0 -0.36740729100E+02  0.19873081990E+02  0.40298207534E+02  0.58041072467E+02  0.00000000000E+00 0. -1.
         11    1    1    2    0    0  0.32461051123E+02  0.59259424126E+02  0.14973569391E+03  0.16427470048E+03  0.00000000000E+00 0.  1.
</event>
<event>
 7    1  0.2820496E-009  0.1527900E+03  0.7561462E-02  0.1197086E+00
          1   -1    0    0  501    0  0.00000000000E+00  0.00000000000E+00  0.41768194557E+03  0.41768194557E+03  0.00000000000E+00 0. -1.
         -1   -1    0    0    0  501 -0.00000000000E+00 -0.00000000000E+00 -0.70623609182E+02  0.70623609182E+02  0.00000000000E+00 0.  1.
         25    2    1    2    0    0 -0.10604585848E+03  0.35019470636E+02  0.78353940337E+02  0.18509021008E+03  0.12508780307E+03 0.  0.
          5    1    3    3  502    0 -0.10764878825E+03  0.72555882908E+02  0.60685620199E+02  0.14336259852E+03  0.41800000000E+01 0.  1.
         -5    1    3    3    0  502  0.16029297633E+01 -0.37536412272E+02  0.17668320138E+02  0.41727611561E+02  0.41800000000E+01 0.  1.
        -11    1    1    2    0    0  0.31648243988E+02 -0.52654298182E+02  0.91396791865E+02  0.11012474757E+03  0.00000000000E+00 0.  1.
         11    1    1    2    0    0  0.74397614496E+02  0.17634827546E+02  0.17730760419E+03  0.19309059710E+03  0.00000000000E+00 0. -1.
</event>
<event>
 7    1  0.2820496E-009  0.7595585E+02  0.7561462E-02  0.1340936E+00
          1   -1    0    0  501    0  0.00000000000E+00  0.00000000000E+00  0.18143394378E+03  0.18143394378E+03  0.00000000000E+00 0. -1.
         -1   -1    0    0    0  501 -0.00000000000E+00 -0.00000000000E+00 -0.34891939433E+02  0.34891939433E+02  0.00000000000E+00 0.  1.
         25    2    1    2    0    0  0.33530670562E-01 -0.75672932744E+01  0.10849477375E+03  0.16576048084E+03  0.12509258982E+03 0.  0.
          5    1    3    3  502    0 -0.33771071958E+02 -0.53526215534E+02  0.79270717228E+02  0.10152270712E+03  0.41800000000E+01 0.  1.
         -5    1    3    3    0  502  0.33804602629E+02  0.45958922259E+02  0.29224056519E+02  0.64237773728E+02  0.41800000000E+01 0.  1.
        -11    1    1    2    0    0  0.15094879999E+02  0.52071505465E+01  0.10692918321E+02  0.19217396317E+02  0.00000000000E+00 0.  1.
         11    1    1    2    0    0 -0.15128410669E+02  0.23601427279E+01  0.27354312275E+02  0.31348006047E+02  0.00000000000E+00 0. -1.
</event>
<event>
 7    1  0.2820496E-009  0.2030075E+03  0.7561462E-02  0.1147226E+00
          2   -1    0    0  501    0  0.00000000000E+00  0.00000000000E+00  0.12219358960E+03  0.12219358960E+03  0.00000000000E+00 0. -1.
         -2   -1    0    0    0  501 -0.00000000000E+00 -0.00000000000E+00 -0.41966698866E+03  0.41966698866E+03  0.00000000000E+00 0.  1.
         25    2    1    2    0    0 -0.18877418925E+03  0.13340920083E+02 -0.83210323479E+02  0.24162919571E+03  0.12508811138E+03 0.  0.
          5    1    3    3  502    0 -0.56458749552E+02 -0.38785425471E+02 -0.71138456783E+02  0.98843573708E+02  0.41800000000E+01 0. -1.
         -5    1    3    3    0  502 -0.13231543970E+03  0.52126345555E+02 -0.12071866696E+02  0.14278562200E+03  0.41800000000E+01 0. -1.
        -11    1    1    2    0    0  0.52924473160E+02  0.17624053914E+02 -0.16233868673E+02  0.58096003544E+02  0.00000000000E+00 0. -1.
         11    1    1    2    0    0  0.13584971609E+03 -0.30964973997E+02 -0.19802920691E+03  0.24213537901E+03  0.00000000000E+00 0.  1.
</event>
<event>
 7    1  0.2820496E-009  0.9732097E+02  0.7561462E-02  0.1286033E+00
         -2   -1    0    0    0  501 -0.00000000000E+00  0.00000000000E+00  0.55606078553E+02  0.55606078553E+02  0.00000000000E+00 0.  1.
          2   -1    0    0  501    0  0.00000000000E+00 -0.00000000000E+00 -0.27601121856E+03  0.27601121856E+03  0.00000000000E+00 0. -1.
         25    2    1    2    0    0  0.50748805088E+02 -0.19059015211E+02 -0.16389404346E+03  0.21318610312E+03  0.12509344428E+03 0.  0.
          5    1    3    3  502    0 -0.37613196163E+02 -0.13419155133E+02 -0.21741868297E+02  0.45661882211E+02  0.41800000000E+01 0.  1.
         -5    1    3    3    0  502  0.88362001251E+02 -0.56398600786E+01 -0.14215217516E+03  0.16752422091E+03  0.41800000000E+01 0.  1.
        -11    1    1    2    0    0 -0.32002775659E+02  0.30232430233E+02 -0.76871022459E+02  0.88585165697E+02  0.00000000000E+00 0. -1.
         11    1    1    2    0    0 -0.18746029429E+02 -0.11173415022E+02  0.20359925905E+02  0.29846028303E+02  0.00000000000E+00 0.  1.
</event>
<event>
 6    1  0.2820496E-009  0.1851456E+03  0.7561462E-02  0.1162914E+00
         -3   -1    0    0    0  501 -0.00000000000E+00  0.00000000000E+00  0.55908232244E+03  0.55908232244E+03  0.00000000000E+00 0.  1.
          3   -1    0    0  501    0  0.00000000000E+00 -0.00000000000E+00 -0.82809570146E+02  0.82809570146E+02  0.00000000000E+00 0. -1.
          5    1    1    2  502    0 -0.78321710072E+01 -0.87119862400E+02  0.14658031215E+03  0.17074681150E+03  0.41800000000E+01 0.  1.
         -5    1    1    2    0  502  0.10746208272E+03 -0.39878704842E+02  0.26078704089E+03  0.28489605722E+03  0.41800000000E+01 0.  1.
        -11    1    1    2    0    0 -0.73352887280E+02  0.55909203205E+02  0.15478754216E+02  0.93520462507E+02  0.00000000000E+00 0.  1.
         11    1    1    2    0    0 -0.26277024435E+02  0.71089364037E+02  0.53426645039E+02  0.92728561363E+02  0.00000000000E+00 0. -1.
</event>
<event>
 7    1  0.2820496E-009  0.1333925E+03  0.7561462E-02  0.1222507E+00
         -4   -1    0    0    0  501 -0.00000000000E+00  0.00000000000E+00  0.96119307634E+02  0.96119307634E+02  0.00000000000E+00 0.  1.
          4   -1    0    0  501    0  0.00000000000E+00 -0.00000000000E+00 -0.26644052084E+03  0.26644052084E+03  0.00000000000E+00 0. -1.
         25    2    1    2    0    0 -0.95643637670E+01 -0.10292234253E+03 -0.11160956712E+03  0.19695139105E+03  0.12509464144E+03 0.  0.
          5    1    3    3  502    0  0.30284264462E+02  0.19938343183E+01  0.92155046852E+01  0.31992342457E+02  0.41800000000E+01 0.  1.
         -5    1    3    3    0  502 -0.39848628229E+02 -0.10491617685E+03 -0.12082507181E+03  0.16495904859E+03  0.41800000000E+01 0.  1.
        -11    1    1    2    0    0  0.38994653225E+02  0.51558297398E+02 -0.79861409438E+02  0.10274573338E+03  0.00000000000E+00 0. -1.
         11    1    1    2    0    0 -0.29430289458E+02  0.51364045129E+02  0.21149763354E+02  0.62862704042E+02  0.00000000000E+00 0.  1.
</event>
<event>
 7    1  0.2820496E-009  0.1209610E+03  0.7561462E-02  0.1241520E+00
         -3   -1    0    0    0  501 -0.00000000000E+00  0.00000000000E+00  0.23838048910E+02  0.23838048910E+02  0.00000000000E+00 0. -1.
          3   -1    0    0  501    0  0.00000000000E+00 -0.00000000000E+00 -0.82060593463E+03  0.82060593463E+03  0.00000000000E+00 0.  1.
         25    2    1    2    0    0  0.69118694939E+02  0.15258559938E+02 -0.59053312720E+03  0.60777181752E+03  0.12508792990E+03 0.  0.
          5    1    3    3  502    0  0.10204634960E+03 -0.41925626618E+01 -0.47915064040E+03  0.48993248886E+03  0.41800000000E+01 0.  1.
         -5    1    3    3    0  502 -0.32927654659E+02  0.19451122600E+02 -0.11138248680E+03  0.11783932866E+03  0.41800000000E+01 0.  1.
        -11    1    1    2    0    0 -0.41253276795E+01 -0.33480081443E+02 -0.13241617615E+03  0.13664544591E+03  0.00000000000E+00 0.  1.
         11    1    1    2    0    0 -0.64993367260E+02  0.18221521505E+02 -0.73818582374E+02  0.10002672012E+03  0.00000000000E+00 0. -1.
</event>
<event>
 7    1  0.2820496E-009  0.7950160E+02  0.7561462E-02  0.1330472E+00
         -1   -1    0    0    0  501 -0.00000000000E+00  0.00000000000E+00  0.47684004789E+02  0.47684004789E+02  0.00000000000E+00 0.  1.
          1   -1    0    0  501    0  0.00000000000E+00 -0.00000000000E+00 -0.61445186565E+03  0.61445186565E+03  0.00000000000E+00 0. -1.
         25    2    1    2    0    0  0.46964083878E+01 -0.26334137293E+02 -0.50606600644E+02  0.13756494127E+03  0.12509013550E+03 0.  0.
          5    1    3    3  502    0  0.24663815930E+02  0.73757289386E+01  0.34811306611E+02  0.43497179926E+02  0.41800000000E+01 0.  1.
         -5    1    3    3    0  502 -0.19967407543E+02 -0.33709866231E+02 -0.85417907254E+02  0.94067761348E+02  0.41800000000E+01 0.  1.
        -11    1    1    2    0    0  0.15518979782E+02 -0.29941580795E+02 -0.19280685545E+03  0.19573405555E+03  0.00000000000E+00 0. -1.
         11    1    1    2    0    0 -0.20215388170E+02  0.56275718088E+02 -0.32335440477E+03  0.32883687362E+03  0.00000000000E+00 0.  1.
</event>
<event>
 7    1  0.2820496E-009  0.1237920E+03  0.7561462E-02  0.1236969E+00
         -1   -1    0    0    0  501 -0.00000000000E+00  0.00000000000E+00  0.31246747977E+02  0.31246747977E+02  0.00000000000E+00 0.  1.
          1   -1    0    0  501    0  0.00000000000E+00 -0.00000000000E+00 -0.83766338872E+03  0.83766338872E+03  0.00000000000E+00 0. -1.
         25    2    1    2    0    0  0.10058558843E+03  0.63727604502E+02 -0.42597417818E+03  0.45965286561E+03  0.12509231876E+03 0.  0.
          5    1    3    3  502    0  0.63700840157E+02  0.54762902933E+02 -0.96653743590E+02  0.12812568487E+03  0.41800000000E+01 0.  1.
         -5    1    3    3    0  502  0.36884748273E+02  0.89647015689E+01 -0.32932043459E+03  0.33152718074E+03  0.41800000000E+01 0.  1.
        -11    1    1    2    0    0 -0.58689878932E+02 -0.58842247521E+02 -0.34277722308E+03  0.35270828832E+03  0.00000000000E+00 0. -1.
         11    1    1    2    0    0 -0.41895709498E+02 -0.48853569811E+01 -0.37665239482E+02  0.56548982771E+02  0.00000000000E+00 0.  1.
</event>
<event>
 7    1  0.2820496E-009  0.9126563E+02  0.7561462E-02  0.1299815E+00
          2   -1    0    0  501    0  0.00000000000E+00  0.00000000000E+00  0.16149363487E+03  0.16149363487E+03  0.00000000000E+00 0. -1.
         -2   -1    0    0    0  501 -0.00000000000E+00 -0.00000000000E+00 -0.92631937045E+02  0.92631937045E+02  0.00000000000E+00 0.  1.
         25    2    1    2    0    0  0.40592312815E+02  0.16122991040E+01  0.61056879069E+02  0.14500052701E+03  0.12508746933E+03 0.  0.
          5    1    3    3  502    0  0.52125525132E+02  0.23071865596E+02 -0.19769574316E+02  0.60478837795E+02  0.41800000000E+01 0. -1.
         -5    1    3    3    0  502 -0.11533212318E+02 -0.21459566492E+02  0.80826453385E+02  0.84521689212E+02  0.41800000000E+01 0. -1.
        -11    1    1    2    0    0  0.26048662438E+02 -0.18450588336E+02  0.22221458022E+02  0.38894089800E+02  0.00000000000E+00 0. -1.
         11    1    1    2    0    0 -0.66640975253E+02  0.16838289232E+02 -0.14416639270E+02  0.70230955104E+02  0.00000000000E+00 0.  1.
</event>
<event>
 7    1  0.2820496E-009  0.1015370E+03  0.7561462E-02  0.1277097E+00
          1   -1    0    0  501    0  0.00000000000E+00  0.00000000000E+00  0.56419801269E+03  0.56419801269E+03  0.00000000000E+00 0. -1.
         -1   -1    0    0    0  501 -0.00000000000E+00 -0.00000000000E+00 -0.29964858887E+02  0.29964858887E+02  0.00000000000E+00 0.  1.
         25    2    1    2    0    0 -0.26769515447E+02  0.46078343016E+02  0.40992942673E+03  0.43189097378E+03  0.12509139730E+03 0.  0.
          5    1    3    3  502    0 -0.20800921281E+01  0.74013896251E+02  0.36896182335E+03  0.37634117913E+03  0.41800000000E+01 0.  1.
         -5    1    3    3    0  502 -0.24689423319E+02 -0.27935553235E+02  0.40967603385E+02  0.55549794648E+02  0.41800000000E+01 0.  1.
        -11    1    1    2    0    0  0.29944792283E+01  0.20491498638E+02  0.17368518116E+01  0.20781844877E+02  0.00000000000E+00 0.  1.
         11    1    1    2    0    0  0.23775036218E+02 -0.66569841654E+02  0.12256687526E+03  0.14149005292E+03  0.00000000000E+00 0. -1.
</event>
<event>
 7    1  0.2820496E-009  0.1059457E+03  0.7561462E-02  0.1268268E+00
          1   -1    0    0  501    0  0.00000000000E+00  0.00000000000E+00  0.72456149181E+02  0.72456149181E+02  0.00000000000E+00 0. -1.
         -1   -1    0    0    0  501 -0.00000000000E+00 -0.00000000000E+00 -0.20202066706E+03  0.20202066706E+03  0.00000000000E+00 0.  1.
         25    2    1    2    0    0 -0.50710546022E+02  0.17301890325E+02 -0.62709429484E+02  0.14983615958E+03  0.12508991679E+03 0.  0.
          5    1    3    3  502    0  0.33316717862E+02  0.13478861178E+02  0.11105431062E+02  0.37848201896E+02  0.41800000000E+01 0. -1.
         -5    1    3    3    0  502 -0.84027263883E+02  0.38230291478E+01 -0.73814860546E+02  0.11198795768E+03  0.41800000000E+01 0. -1.
        -11    1    1    2    0    0 -0.11181242960E+02 -0.26646996546E+02  0.50203261017E+01  0.29330637450E+02  0.00000000000E+00 0. -1.
         11    1    1    2    0    0  0.61891788982E+02  0.93451062209E+01 -0.71875414494E+02  0.95310019213E+02  0.00000000000E+00 0.  1.
</event>
<event>
 7    1  0.2820496E-009  0.1494454E+03  0.7561462E-02  0.1201156E+00
          1   -1    0    0  501    0  0.00000000000E+00  0.00000000000E+00  0.47499317512E+03  0.47499317512E+03  0.00000000000E+00 0. -1.
         -1   -1    0    0    0  501 -0.00000000000E+00 -0.00000000000E+00 -0.51743530348E+02  0.51743530348E+02  0.00000000000E+00 0.  1.
         25    2    1    2    0    0  0.10025113739E+03 -0.30526178982E+02  0.15916133601E+03  0.22795117315E+03  0.12508904153E+03 0.  0.
          5    1    3    3  502    0  0.11470445382E+03  0.14517549951E+02  0.11275352315E+03  0.16155092190E+03  0.41800000000E+01 0. -1.
         -5    1    3    3    0  502 -0.14453316434E+02 -0.45043728933E+02  0.46407812859E+02  0.66400251253E+02  0.41800000000E+01 0. -1.
        -11    1    1    2    0    0 -0.14288698458E+02  0.46170836594E+02  0.61961059531E+02  0.78581715135E+02  0.00000000000E+00 0.  1.
         11    1    1    2    0    0 -0.85962438930E+02 -0.15644657612E+02  0.20212724923E+03  0.22020381718E+03  0.00000000000E+00 0. -1.
</event>
<event>
 7    1  0.2820496E-009  0.9240310E+02  0.7561462E-02  0.1297134E+00
         -1   -1    0    0    0  501 -0.00000000000E+00  0.00000000000E+00  0.55566497739E+02  0.55566497739E+02  0.00000000000E+00 0.  1.
          1   -1    0    0  501    0  0.00000000000E+00 -0.00000000000E+00 -0.25202144362E+03  0.25202144362E+03  0.00000000000E+00 0. -1.
         25    2    1    2    0    0  0.41403377264E+02  0.19139602929E+02 -0.12943846971E+03  0.18569239967E+03  0.12508711287E+03 0.  0.
          5    1    3    3  502    0  0.49042755037E+02  0.60589823117E+02 -0.11857872349E+03  0.14196726578E+03  0.41800000000E+01 0. -1.
         -5    1    3    3    0  502 -0.76393777723E+01 -0.41450220188E+02 -0.10859746218E+02  0.43725133897E+02  0.41800000000E+01 0. -1.
        -11    1    1    2    0    0 -0.19287861590E+02 -0.33046677622E+02  0.10842789773E+02  0.39770222487E+02  0.00000000000E+00 0.  1.
         11    1    1    2    0    0 -0.22115515674E+02  0.13907074694E+02 -0.77859265945E+02  0.82125319199E+02  0.00000000000E+00 0. -1.
</event>
<event>
 7    1  0.2820496E-009  0.9511853E+02  0.7561462E-02  0.1290909E+00
          1   -1    0    0  501    0  0.00000000000E+00  0.00000000000E+00  0.56563065940E+03  0.56563065940E+03  0.00000000000E+00 0. -1.
         -1   -1    0    0    0  501 -0.00000000000E+00 -0.00000000000E+00 -0.20670993486E+02  0.20670993486E+02  0.00000000000E+00 0.  1.
         25    2    1    2    0    0  0.43508086649E+01 -0.72831750840E+00  0.31615542468E+03  0.34003095534E+03  0.12508932029E+03 0.  0.
          5    1    3    3  502    0 -0.39403766037E+02 -0.28467625405E+02  0.54018429033E+02  0.72790971620E+02  0.41800000000E+01 0.  1.
         -5    1    3    3    0  502  0.43754574702E+02  0.27739307897E+02  0.26213699565E+03  0.26723998372E+03  0.41800000000E+01 0.  1.
        -11    1    1    2    0    0 -0.33254397434E+02  0.32514627886E+02  0.95664738410E+02  0.10637104000E+03  0.00000000000E+00 0.  1.
         11    1    1    2    0    0  0.28903588769E+02 -0.31786310377E+02  0.13313950282E+03  0.13989965755E+03  0.00000000000E+00 0. -1.
</event>
<event>
 7    1  0.2820496E-009  0.1429261E+03  0.7561462E-02  0.1209445E+00
          2   -1    0    0  501    0  0.00000000000E+00  0.00000000000E+00  0.16531338665E+03  0.16531338665E+03  0.00000000000E+00 0. -1.
         -2   -1    0    0    0  501 -0.00000000000E+00 -0.00000000000E+00 -0.18483511769E+03  0.18483511769E+03  0.00000000000E+00 0.  1.
         25    2    1    2    0    0  0.82128194029E+02 -0.67419293371E+02  0.72639873789E+02  0.17948355928E+03  0.12508954958E+03 0.  0.
          5    1    3    3  502    0 -0.19918086216E+02 -0.23369657233E+02  0.60014259194E+02  0.67542984420E+02  0.41800000000E+01 0. -1.
         -5    1    3    3    0  502  0.10204628024E+03 -0.44049636138E+02  0.12625614595E+02  0.11194057486E+03  0.41800000000E+01 0. -1.
        -11    1    1    2    0    0 -0.22869500844E+02  0.79873708999E+02 -0.52638944700E+02  0.98354877649E+02  0.00000000000E+00 0.  1.
         11    1    1    2    0    0 -0.59258693184E+02 -0.12454415627E+02 -0.39522660130E+02  0.72310067420E+02  0.00000000000E+00 0. -1.
</event>
<event>
 7    1  0.2820496E-009  0.1292610E+03  0.7561462E-02  0.1228556E+00
         -2   -1    0    0    0  501 -0.00000000000E+00  0.00000000000E+00  0.55754692809E+02  0.55754692809E+02  0.00000000000E+00 0.  1.
          2   -1    0    0  501    0  0.00000000000E+00 -0.00000000000E+00 -0.34003646921E+03  0.34003646921E+03  0.00000000000E+00 0. -1.
         25    2    1    2    0    0 -0.79123306197E+02  0.18310512449E+02 -0.19260653292E+03  0.24359840092E+03  0.12508849651E+03 0.  0.
          5    1    3    3  502    0 -0.91631474910E+02  0.57149417231E+02 -0.14241263974E+03  0.17877699920E+03  0.41800000000E+01 0. -1.
         -5    1    3    3    0  502  0.12508168712E+02 -0.38838904782E+02 -0.50193893175E+02  0.64821401723E+02  0.41800000000E+01 0. -1.
        -11    1    1    2    0    0  0.76674711178E+02 -0.40769324344E+02 -0.95719722687E+02  0.12924169007E+03  0.00000000000E+00 0. -1.
         11    1    1    2    0    0  0.24485950194E+01  0.22458811895E+02  0.40444792001E+01  0.22951071028E+02  0.00000000000E+00 0.  1.
</event>
<event>
 7    1  0.2820496E-009  0.1446355E+03  0.7561462E-02  0.1207224E+00
         -2   -1    0    0    0  501 -0.00000000000E+00  0.00000000000E+00  0.19787508887E+03  0.19787508887E+03  0.00000000000E+00 0.  1.
          2   -1    0    0  501    0  0.00000000000E+00 -0.00000000000E+00 -0.16188494030E+03  0.16188494030E+03  0.00000000000E+00 0. -1.
         25    2    1    2    0    0  0.58370412779E+02 -0.42867757988E+02 -0.75170401297E+02  0.16291935670E+03  0.12508947914E+03 0.  0.
          5    1    3    3  502    0 -0.26322664926E+02  0.22068076835E+02 -0.33834434425E+02  0.48395496246E+02  0.41800000000E+01 0. -1.
         -5    1    3    3    0  502  0.84693077705E+02 -0.64935834823E+02 -0.41335966872E+02  0.11452386045E+03  0.41800000000E+01 0. -1.
        -11    1    1    2    0    0 -0.97448192370E+02  0.47687056846E+02  0.11398966043E+03  0.15736533377E+03  0.00000000000E+00 0.  1.
         11    1    1    2    0    0  0.39077779591E+02 -0.48192988579E+01 -0.28291105599E+01  0.39475338704E+02  0.00000000000E+00 0. -1.
</event>
<event>
 7    1  0.2820496E-009  0.9840416E+02  0.7561462E-02  0.1283688E+00
          2   -1    0    0  501    0  0.00000000000E+00  0.00000000000E+00  0.11710243885E+03  0.11710243885E+03  0.00000000000E+00 0. -1.
         -2   -1    0    0    0  501 -0.00000000000E+00 -0.00000000000E+00 -0.16630663297E+03  0.16630663297E+03  0.00000000000E+00 0.  1.
         25    2    1    2    0    0 -0.54812192080E+02 -0.85668961265E+01 -0.96616180812E+02  0.16751041427E+03  0.12508910578E+03 0.  0.
          5    1    3    3  502    0  0.52002355605E+01  0.40754910292E+02  0.26635322086E+01  0.41383232916E+02  0.41800000000E+01 0. -1.
         -5    1    3    3    0  502 -0.60012427640E+02 -0.49321806418E+02 -0.99279713021E+02  0.12612718136E+03  0.41800000000E+01 0. -1.
        -11    1    1    2    0    0 -0.41052122642E+01 -0.14028805717E+02 -0.19208375208E+02  0.24137560683E+02  0.00000000000E+00 0.  1.
         11    1    1    2    0    0  0.58917404344E+02  0.22595701844E+02  0.66620361906E+02  0.91761096860E+02  0.00000000000E+00 0. -1.
</event>
<event>
 7    1  0.2820496E-009  0.9768819E+02  0.7561462E-02  0.1285234E+00
         -1   -1    0    0    0  501 -0.00000000000E+00  0.00000000000E+00  0.33826359533E+02  0.33826359533E+02  0.00000000000E+00 0.  1.
          1   -1    0    0  501    0  0.00000000000E+00 -0.00000000000E+00 -0.38311377639E+03  0.38311377639E+03  0.00000000000E+00 0. -1.
         25    2    1    2    0    0 -0.17602888843E+02  0.14375255183E+02 -0.21307353609E+03  0.24812157827E+03  0.12508987234E+03 0.  0.
          5    1    3    3  502    0  0.11764473308E+02 -0.35512297322E+02 -0.13039666746E+02  0.39837562703E+02  0.41800000000E+01 0.  1.
         -5    1    3    3    0  502 -0.29367362151E+02  0.49887552505E+02 -0.20003386934E+03  0.20828401556E+03  0.41800000000E+01 0.  1.
        -11    1    1    2    0    0 -0.34656738891E+02 -0.29257989913E+02 -0.64171934892E+02  0.78582165611E+02  0.00000000000E+00 0. -1.
         11    1    1    2    0    0  0.52259627734E+02  0.14882734730E+02 -0.72041945875E+02  0.90236392045E+02  0.00000000000E+00 0.  1.
</event>
<event>
 7    1  0.2820496E-009  0.1005512E+03  0.7561462E-02  0.1279141E+00
          1   -1    0    0  501    0  0.00000000000E+00  0.00000000000E+00  0.37717390370E+02  0.37717390370E+02  0.00000000000E+00 0. -1.
         -1   -1    0    0    0  501 -0.00000000000E+00 -0.00000000000E+00 -0.36802049494E+03  0.36802049494E+03  0.00000000000E+00 0.  1.
         25    2    1    2    0    0 -0.15102319923E+02 -0.37421175265E+02 -0.24962338310E+03  0.28211329408E+03  0.12509057871E+03 0.  0.
          5    1    3    3  502    0  0.77584679125E+00  0.34615819062E+02 -0.16979864007E+03  0.17334332244E+03  0.41800000000E+01 0.  1.
         -5    1    3    3    0  502 -0.15878166714E+02 -0.72036994327E+02 -0.79824743030E+02  0.10876997164E+03  0.41800000000E+01 0.  1.
        -11    1    1    2    0    0  0.49090643009E+02  0.30068934539E+02 -0.60071732395E+02  0.83202434389E+02  0.00000000000E+00 0.  1.
         11    1    1    2    0    0 -0.33988323086E+02  0.73522407258E+01 -0.20607989081E+02  0.40422156843E+02  0.00000000000E+00 0. -1.
</event>
<event>
 7    1  0.2820496E-009  0.1627530E+03  0.7561462E-02  0.1185623E+00
         -1   -1    0    0    0  501 -0.00000000000E+00  0.00000000000E+00  0.94772827050E+02  0.94772827050E+02  0.00000000000E+00 0.  1.
          1   -1    0    0  501    0  0.00000000000E+00 -0.00000000000E+00 -0.54908001241E+03  0.54908001241E+03  0.00000000000E+00 0. -1.
         25    2    1    2    0    0  0.14273496795E+03  0.70054185231E+02 -0.60515809292E+02  0.21116840657E+03  0.12509625420E+03 0.  0.
          5    1    3    3  502    0  0.11302667184E+03  0.75098516019E+02  0.82066663197E+01  0.13601337224E+03  0.41800000000E+01 0. -1.
         -5    1    3    3    0  502  0.29708296113E+02 -0.50443307881E+01 -0.68722475612E+02  0.75155034331E+02  0.41800000000E+01 0. -1.
        -11    1    1    2    0    0 -0.54328921603E+02 -0.32152496572E+02 -0.67110718642E+02  0.92137198324E+02  0.00000000000E+00 0.  1.
         11    1    1    2    0    0 -0.88406046350E+02 -0.37901688659E+02 -0.32668065742E+03  0.34054723456E+03  0.00000000000E+00 0. -1.
</event>
<event>
 7    1  0.2820496E-009  0.1113865E+03  0.7561462E-02  0.1258024E+00
         -2   -1    0    0    0  501 -0.00000000000E+00  0.00000000000E+00  0.44703736509E+02  0.44703736509E+02  0.00000000000E+00 0.  1.
          2   -1    0    0  501    0  0.00000000000E+00 -0.00000000000E+00 -0.40261961291E+03  0.40261961291E+03  0.00000000000E+00 0. -1.
         25    2    1    2    0    0  0.50427598883E+02 -0.62773764464E+02 -0.20561535574E+03  0.25378111891E+03  0.12507475191E+03 0.  0.
          5    1    3    3  502    0  0.34224196831E+02  0.12825547129E+02 -0.30396992209E+01  0.36912091233E+02  0.41800000000E+01 0.  1.
         -5    1    3    3    0  502  0.16203402052E+02 -0.75599311593E+02 -0.20257565652E+03  0.21686902768E+03  0.41800000000E+01 0.  1.
        -11    1    1    2    0    0 -0.12064072658E+02  0.68688907855E+02 -0.13303679279E+03  0.15020817603E+03  0.00000000000E+00 0. -1.
         11    1    1    2    0    0 -0.38363526225E+02 -0.59151433913E+01 -0.19263727872E+02  0.43334054476E+02  0.00000000000E+00 0.  1.
</event>
<event>
 7    1  0.2869759E-009  0.1696729E+03  0.7561462E-02  0.1178189E+00
         -2   -1    0    0    0  501 -0.00000000000E+00  0.00000000000E+00  0.43004781036E+02  0.43004781036E+02  0.00000000000E+00 0.  1.
          2   -1    0    0  501    0  0.00000000000E+00 -0.00000000000E+00 -0.11612347269E+04  0.11612347269E+04  0.00000000000E+00 0. -1.
         25    2    1    2    0    0  0.11111990721E+03  0.11871246091E+03 -0.86940069340E+03  0.89327776680E+03  0.12508925141E+03 0.  0.
          5    1    3    3  502    0  0.20090083192E+02  0.24368224827E+02 -0.30228688047E+02  0.43916600562E+02  0.41800000000E+01 0. -1.
         -5    1    3    3    0  502  0.91029824021E+02  0.94344236088E+02 -0.83917200535E+03  0.84936116624E+03  0.41800000000E+01 0. -1.
        -11    1    1    2    0    0 -0.21070601129E+02 -0.71714137499E+02 -0.57363399793E+02  0.94220206882E+02  0.00000000000E+00 0.  1.
         11    1    1    2    0    0 -0.90049306085E+02 -0.46998323416E+02 -0.19146585263E+03  0.21674153422E+03  0.00000000000E+00 0. -1.
</event>
<event>
 7    1  0.2820496E-009  0.1500535E+03  0.7561462E-02  0.1200407E+00
          1   -1    0    0  501    0  0.00000000000E+00  0.00000000000E+00  0.12272504722E+03  0.12272504722E+03  0.00000000000E+00 0. -1.
         -1   -1    0    0    0  501 -0.00000000000E+00 -0.00000000000E+00 -0.28728991909E+03  0.28728991909E+03  0.00000000000E+00 0.  1.
         25    2    1    2    0    0  0.63025931557E+02 -0.11246162638E+03  0.23555874930E+01  0.17964777379E+03  0.12509152001E+03 0.  0.
          5    1    3    3  502    0  0.75400538229E+02 -0.20587359884E+02 -0.26223969671E+02  0.82548467809E+02  0.41800000000E+01 0. -1.
         -5    1    3    3    0  502 -0.12374606672E+02 -0.91874266497E+02  0.28579557164E+02  0.97099305983E+02  0.41800000000E+01 0. -1.
        -11    1    1    2    0    0 -0.34857945185E+02  0.56546810375E+02 -0.15217994594E+03  0.16604624071E+03  0.00000000000E+00 0.  1.
         11    1    1    2    0    0 -0.28167986372E+02  0.55914816006E+02 -0.14740513426E+02  0.64320951807E+02  0.00000000000E+00 0. -1.
</event>
<event>
 7    1  0.2820496E-009  0.2187962E+03  0.7561462E-02  0.1134784E+00
         -1   -1    0    0    0  501 -0.00000000000E+00  0.00000000000E+00  0.22594320537E+03  0.22594320537E+03  0.00000000000E+00 0.  1.
          1   -1    0    0  501    0  0.00000000000E+00 -0.00000000000E+00 -0.26738011400E+03  0.26738011400E+03  0.00000000000E+00 0. -1.
         25    2    1    2    0    0 -0.18277085164E+03 -0.11092794144E+03  0.31808877938E+02  0.24973872718E+03  0.12508970676E+03 0.  0.
          5    1    3    3  502    0 -0.46824560968E+02 -0.65035209693E+02  0.63983326045E+02  0.10263262844E+03  0.41800000000E+01 0.  1.
         -5    1    3    3    0  502 -0.13594629067E+03 -0.45892731747E+02 -0.32174448107E+02  0.14710609873E+03  0.41800000000E+01 0.  1.
        -11    1    1    2    0    0  0.11274024211E+03  0.68881628170E+02 -0.90444609600E+02  0.16011017549E+03  0.00000000000E+00 0. -1.
         11    1    1    2    0    0  0.70030609526E+02  0.42046313269E+02  0.17198823025E+02  0.83474416701E+02  0.00000000000E+00 0.  1.
</event>
<event>
 7    1  0.2820496E-009  0.1281879E+03  0.7561462E-02  0.1230170E+00
         -3   -1    0    0    0  501 -0.00000000000E+00  0.00000000000E+00  0.27313716483E+03  0.27313716483E+03  0.00000000000E+00 0.  1.
          3   -1    0    0  501    0  0.00000000000E+00 -0.00000000000E+00 -0.10277279939E+03  0.10277279939E+03  0.00000000000E+00 0. -1.
         25    2    1    2    0    0  0.69517482558E+02 -0.58567415846E+02 -0.89383860780E+01  0.15488888672E+03  0.12509136623E+03 0.  0.
          5    1    3    3  502    0  0.52882290125E+02 -0.86166760493E+02  0.28686319357E+02  0.10517425798E+03  0.41800000000E+01 0. -1.
         -5    1    3    3    0  502  0.16635192433E+02  0.27599344647E+02 -0.37624705435E+02  0.49714628746E+02  0.41800000000E+01 0. -1.
        -11    1    1    2    0    0 -0.84397002598E+02  0.28383286400E+02  0.15748714360E+03  0.18091618334E+03  0.00000000000E+00 0.  1.
         11    1    1    2    0    0  0.14879520041E+02  0.30184129446E+02  0.21815607914E+02  0.40104894161E+02  0.00000000000E+00 0. -1.
</event>
<event>
 7    1  0.2820496E-009  0.1683607E+03  0.7561462E-02  0.1179568E+00
          2   -1    0    0  501    0  0.00000000000E+00  0.00000000000E+00  0.12792844255E+04  0.12792844255E+04  0.00000000000E+00 0. -1.
         -2   -1    0    0    0  501 -0.00000000000E+00 -0.00000000000E+00 -0.45602947347E+02  0.45602947347E+02  0.00000000000E+00 0.  1.
         25    2    1    2    0    0  0.78210549167E+02  0.14464858209E+03  0.10318662256E+04  0.10523476382E+04  0.12509013463E+03 0.  0.
          5    1    3    3  502    0  0.20630653052E+02  0.68870102317E+02  0.16206401744E+03  0.17734410898E+03  0.41800000000E+01 0. -1.
         -5    1    3    3    0  502  0.57579896116E+02  0.75778479775E+02  0.86980220819E+03  0.87500352925E+03  0.41800000000E+01 0. -1.
        -11    1    1    2    0    0 -0.67658382340E+02 -0.83889591829E+02  0.17448672752E+03  0.20508714830E+03  0.00000000000E+00 0. -1.
         11    1    1    2    0    0 -0.10552166827E+02 -0.60758990263E+02  0.27328525006E+02  0.67452586322E+02  0.00000000000E+00 0.  1.
</event>
<event>
 7    1  0.2820496E-009  0.1238680E+03  0.7561462E-02  0.1236849E+00
          2   -1    0    0  501    0  0.00000000000E+00  0.00000000000E+00  0.19799843238E+02  0.19799843238E+02  0.00000000000E+00 0.  1.
         -2   -1    0    0    0  501 -0.00000000000E+00 -0.00000000000E+00 -0.86504273984E+03  0.86504273984E+03  0.00000000000E+00 0. -1.
         25    2    1    2    0    0  0.55860555598E+02  0.29751167060E+02 -0.58453266960E+03  0.60110826973E+03  0.12508867454E+03 0.  0.
          5    1    3    3  502    0 -0.31865265101E+02  0.36240925387E+02 -0.14615742223E+03  0.15397488193E+03  0.41800000000E+01 0. -1.
         -5    1    3    3    0  502  0.87725820699E+02 -0.64897583279E+01 -0.43837524737E+03  0.44713338780E+03  0.41800000000E+01 0. -1.
        -11    1    1    2    0    0 -0.50839985757E+02  0.24719740017E+02 -0.14862517124E+03  0.15901324230E+03  0.00000000000E+00 0.  1.
         11    1    1    2    0    0 -0.50205698404E+01 -0.54470907077E+02 -0.11208505576E+03  0.12472107105E+03  0.00000000000E+00 0. -1.
</event>
<event>
 7    1  0.2820496E-009  0.1240682E+03  0.7561462E-02  0.1236533E+00
          3   -1    0    0  501    0  0.00000000000E+00  0.00000000000E+00  0.37265228415E+02  0.37265228415E+02  0.00000000000E+00 0. -1.
         -3   -1    0    0    0  501 -0.00000000000E+00 -0.00000000000E+00 -0.56119090279E+03  0.56119090279E+03  0.00000000000E+00 0.  1.
         25    2    1    2    0    0 -0.20319049971E+01  0.64366199683E+02 -0.14038763203E+03  0.19875575675E+03  0.12509207534E+03 0.  0.
          5    1    3    3  502    0  0.47361980659E+02  0.73781977642E+02 -0.70632909161E+02  0.11266506865E+03  0.41800000000E+01 0.  1.
         -5    1    3    3    0  502 -0.49393885656E+02 -0.94157779588E+01 -0.69754722872E+02  0.86090688101E+02  0.41800000000E+01 0.  1.
        -11    1    1    2    0    0  0.45466400387E+02 -0.29388607898E+02 -0.23182453479E+03  0.23806196414E+03  0.00000000000E+00 0. -1.
         11    1    1    2    0    0 -0.43434495390E+02 -0.34977591785E+02 -0.15171350755E+03  0.16163841031E+03  0.00000000000E+00 0.  1.
</event>
<event>
 7    1  0.2820496E-009  0.1151877E+03  0.7561462E-02  0.1251254E+00
         -2   -1    0    0    0  501 -0.00000000000E+00  0.00000000000E+00  0.21452742833E+02  0.21452742833E+02  0.00000000000E+00 0.  1.
          2   -1    0    0  501    0  0.00000000000E+00 -0.00000000000E+00 -0.71123371710E+03  0.71123371710E+03  0.00000000000E+00 0. -1.
         25    2    1    2    0    0  0.14112030835E+02  0.53934082191E+02 -0.31260809455E+03  0.34129195614E+03  0.12509334079E+03 0.  0.
          5    1    3    3  502    0 -0.50106557133E+02  0.34393914145E+02 -0.20958678996E+03  0.21826063164E+03  0.41800000000E+01 0. -1.
         -5    1    3    3    0  502  0.64218587968E+02  0.19540168045E+02 -0.10302130459E+03  0.12303132450E+03  0.41800000000E+01 0. -1.
        -11    1    1    2    0    0  0.77930319315E+01  0.21911292868E+02 -0.12528279444E+03  0.12742297550E+03  0.00000000000E+00 0.  1.
         11    1    1    2    0    0 -0.21905062767E+02 -0.75845375059E+02 -0.25189008528E+03  0.26397152830E+03  0.00000000000E+00 0. -1.
</event>
<event>
 7    1  0.2820496E-009  0.1138297E+03  0.7561462E-02  0.1253638E+00
         -1   -1    0    0    0  501 -0.00000000000E+00  0.00000000000E+00  0.28786920362E+02  0.28786920362E+02  0.00000000000E+00 0.  1.
          1   -1    0    0  501    0  0.00000000000E+00 -0.00000000000E+00 -0.68087855660E+03  0.68087855660E+03  0.00000000000E+00 0. -1.
         25    2    1    2    0    0 -0.78035737065E+02 -0.27636956974E+00 -0.25041496474E+03  0.29059338785E+03  0.12508880788E+03 0.  0.
          5    1    3    3  502    0 -0.98042479850E+02 -0.83845277041E+01 -0.10670259361E+03  0.14520862248E+03  0.41800000000E+01 0. -1.
         -5    1    3    3    0  502  0.20006742785E+02  0.81081581344E+01 -0.14371237113E+03  0.14538476537E+03  0.41800000000E+01 0. -1.
        -11    1    1    2    0    0  0.92376900384E+02  0.36516120356E+01 -0.38836195420E+03  0.39921401962E+03  0.00000000000E+00 0. -1.
         11    1    1    2    0    0 -0.14341163320E+02 -0.33752424659E+01 -0.13314717302E+02  0.19858069491E+02  0.00000000000E+00 0.  1.
</event>
<event>
 7    1  0.2820496E-009  0.8718850E+02  0.7561462E-02  0.1309807E+00
          2   -1    0    0  501    0  0.00000000000E+00  0.00000000000E+00  0.12424157881E+04  0.12424157881E+04  0.00000000000E+00 0. -1.
         -2   -1    0    0    0  501 -0.00000000000E+00 -0.00000000000E+00 -0.13301567462E+02  0.13301567462E+02  0.00000000000E+00 0.  1.
         25    2    1    2    0    0  0.35503457312E+02 -0.43202173994E+02  0.90285689695E+03  0.91319328989E+03  0.12507791571E+03 0.  0.
          5    1    3    3  502    0  0.50647313927E+02 -0.44852962454E+02  0.89066100281E+03  0.89323649331E+03  0.41800000000E+01 0.  1.
         -5    1    3    3    0  502 -0.15143856614E+02  0.16507884592E+01  0.12195894139E+02  0.19956796576E+02  0.41800000000E+01 0.  1.
        -11    1    1    2    0    0  0.13200980200E+02  0.39848855028E+02  0.69715936739E+02  0.81378799209E+02  0.00000000000E+00 0.  1.
         11    1    1    2    0    0 -0.48704437513E+02  0.33533189665E+01  0.25654138691E+03  0.26114526643E+03  0.00000000000E+00 0. -1.
</event>
<event>
 7    1  0.2820496E-009  0.1200094E+03  0.7561462E-02  0.1243082E+00
          1   -1    0    0  501    0  0.00000000000E+00  0.00000000000E+00  0.55607237150E+02  0.55607237150E+02  0.00000000000E+00 0. -1.
         -1   -1    0    0    0  501 -0.00000000000E+00 -0.00000000000E+00 -0.33086364741E+03  0.33086364741E+03  0.00000000000E+00 0.  1.
         25    2    1    2    0    0 -0.33210436610E+02  0.65305359943E+02 -0.10112975490E+03  0.17675659374E+03  0.12509173821E+03 0.  0.
          5    1    3    3  502    0  0.45838009229E+02  0.21418108449E+02 -0.56108047080E+02  0.75666662453E+02  0.41800000000E+01 0. -1.
         -5    1    3    3    0  502 -0.79048445839E+02  0.43887251493E+02 -0.45021707824E+02  0.10108993129E+03  0.41800000000E+01 0. -1.
        -11    1    1    2    0    0 -0.20381841409E+02 -0.15903333365E+02 -0.10882042599E+03  0.11184909737E+03  0.00000000000E+00 0. -1.
         11    1    1    2    0    0  0.53592278019E+02 -0.49402026578E+02 -0.65306229372E+02  0.97865193445E+02  0.00000000000E+00 0.  1.
</event>
<event>
 6    1  0.2820496E-009  0.2489409E+03  0.7561462E-02  0.1113976E+00
          2   -1    0    0  501    0  0.00000000000E+00  0.00000000000E+00  0.70497079096E+03  0.70497079096E+03  0.00000000000E+00 0. -1.
         -2   -1    0    0    0  501 -0.00000000000E+00 -0.00000000000E+00 -0.96600528578E+02  0.96600528578E+02  0.00000000000E+00 0.  1.
          5    1    1    2  502    0 -0.92354974332E+02 -0.11655958704E+03  0.25489096456E+03  0.29513125018E+03  0.41800000000E+01 0. -1.
         -5    1    1    2    0  502 -0.10984961599E+02 -0.96342232633E+02  0.45343406056E+02  0.10712605679E+03  0.41800000000E+01 0. -1.
        -11    1    1    2    0    0  0.10867932432E+03  0.13203239496E+03  0.23115944228E+03  0.28753858282E+03  0.00000000000E+00 0. -1.
         11    1    1    2    0    0 -0.53393883889E+01  0.80869424717E+02  0.76976449488E+02  0.11177542976E+03  0.00000000000E+00 0.  1.
</event>
<event>
 7    1  0.2820496E-009  0.4185622E+02  0.7561462E-02  0.1494980E+00
          3   -1    0    0  501    0  0.00000000000E+00  0.00000000000E+00  0.58377346224E+02  0.58377346224E+02  0.00000000000E+00 0. -1.
         -3   -1    0    0    0  501 -0.00000000000E+00 -0.00000000000E+00 -0.22735407351E+03  0.22735407351E+03  0.00000000000E+00 0.  1.
         25    2    1    2    0    0  0.92272200555E+01 -0.28939955440E+02 -0.12906360735E+03  0.18228506890E+03  0.12509104281E+03 0.  0.
          5    1    3    3  502    0  0.98358569474E+01 -0.38152205949E+02  0.11578770492E+02  0.41278023532E+02  0.41800000000E+01 0. -1.
         -5    1    3    3    0  502 -0.60863689198E+00  0.92122505091E+01 -0.14064237784E+03  0.14100704536E+03  0.41800000000E+01 0. -1.
        -11    1    1    2    0    0 -0.96754228839E+01  0.68314500538E+01  0.28865174551E+02  0.31200654155E+02  0.00000000000E+00 0. -1.
         11    1    1    2    0    0  0.44820282841E+00  0.22108505386E+02 -0.68778294486E+02  0.72245696679E+02  0.00000000000E+00 0.  1.
</event>
<event>
 7    1  0.2820496E-009  0.9650762E+02  0.7561462E-02  0.1287816E+00
         -1   -1    0    0    0  501 -0.00000000000E+00  0.00000000000E+00  0.28990011904E+02  0.28990011904E+02  0.00000000000E+00 0.  1.
          1   -1    0    0  501    0  0.00000000000E+00 -0.00000000000E+00 -0.60569185923E+03  0.60569185923E+03  0.00000000000E+00 0. -1.
         25    2    1    2    0    0 -0.44677069730E+02 -0.38029760260E+02 -0.43243124649E+03  0.45397033167E+03  0.12509986361E+03 0.  0.
          5    1    3    3  502    0  0.29206797091E+02 -0.28020300732E+02 -0.50726258085E+02  0.65029223499E+02  0.41800000000E+01 0.  1.
         -5    1    3    3    0  502 -0.73883866821E+02 -0.10009459527E+02 -0.38170498840E+03  0.38894110817E+03  0.41800000000E+01 0.  1.
        -11    1    1    2    0    0  0.28036156498E+02 -0.76268212924E+01 -0.12516972372E+03  0.12849768173E+03  0.00000000000E+00 0. -1.
         11    1    1    2    0    0  0.16640913231E+02  0.45656581552E+02 -0.19100877116E+02  0.52213857728E+02  0.00000000000E+00 0.  1.
</event>
<event>
 7    1  0.2820496E-009  0.1069730E+03  0.7561462E-02  0.1266280E+00
         -3   -1    0    0    0  501 -0.00000000000E+00  0.00000000000E+00  0.24665562117E+03  0.24665562117E+03  0.00000000000E+00 0.  1.
          3   -1    0    0  501    0  0.00000000000E+00 -0.00000000000E+00 -0.60347323487E+02  0.60347323487E+02  0.00000000000E+00 0. -1.
         25    2    1    2    0    0  0.19721028044E+02  0.48954291079E+02  0.12010222091E+03  0.18126466971E+03  0.12508755117E+03 0.  0.
          5    1    3    3  502    0 -0.23185464772E+02  0.60133097048E+02  0.13843613722E+02  0.66050535033E+02  0.41800000000E+01 0. -1.
         -5    1    3    3    0  502  0.42906492816E+02 -0.11178805968E+02  0.10625860719E+03  0.11521413468E+03  0.41800000000E+01 0. -1.
        -11    1    1    2    0    0  0.36389521454E+02 -0.22591672452E+02  0.39395201801E+02  0.58194182362E+02  0.00000000000E+00 0.  1.
         11    1    1    2    0    0 -0.56110549498E+02 -0.26362618627E+02  0.26810874970E+02  0.67544092580E+02  0.00000000000E+00 0. -1.
</event>
<event>
 7    1  0.2820496E-009  0.2440171E+03  0.7561462E-02  0.1117145E+00
         -2   -1    0    0    0  501 -0.00000000000E+00  0.00000000000E+00  0.67541350043E+02  0.67541350043E+02  0.00000000000E+00 0.  1.
          2   -1    0    0  501    0  0.00000000000E+00 -0.00000000000E+00 -0.10650778063E+04  0.10650778063E+04  0.00000000000E+00 0. -1.
         25    2    1    2    0    0  0.92094247753E+02 -0.20073918751E+03 -0.28861372690E+03  0.38434872770E+03  0.12509392174E+03 0.  0.
          5    1    3    3  502    0  0.11830929991E+03 -0.12626522294E+03 -0.17692147172E+03  0.24750490202E+03  0.41800000000E+01 0. -1.
         -5    1    3    3    0  502 -0.26215052158E+02 -0.74473964575E+02 -0.11169225519E+03  0.13684382568E+03  0.41800000000E+01 0. -1.
        -11    1    1    2    0    0  0.10361031557E+02  0.65012303848E+02 -0.26037229520E+03  0.26856597464E+03  0.00000000000E+00 0. -1.
         11    1    1    2    0    0 -0.10245527931E+03  0.13572688366E+03 -0.44855043411E+03  0.47970445396E+03  0.00000000000E+00 0.  1.
</event>
<event>
 7    1  0.2820496E-009  0.1812542E+03  0.7561462E-02  0.1166595E+00
          1   -1    0    0  501    0  0.00000000000E+00  0.00000000000E+00  0.12588380291E+04  0.12588380291E+04  0.00000000000E+00 0. -1.
         -1   -1    0    0    0  501 -0.00000000000E+00 -0.00000000000E+00 -0.28065313023E+02  0.28065313023E+02  0.00000000000E+00 0.  1.
         25    2    1    2    0    0  0.27886483609E+02  0.15132537554E+03  0.67575034694E+03  0.70424604987E+03  0.12508773765E+03 0.  0.
          5    1    3    3  502    0 -0.24141278834E+02 -0.67926302187E+01  0.43005243970E+02  0.49958628664E+02  0.41800000000E+01 0. -1.
         -5    1    3    3    0  502  0.52027762443E+02  0.15811800576E+03  0.63274510297E+03  0.65428742120E+03  0.41800000000E+01 0. -1.
        -11    1    1    2    0    0 -0.52541955391E+02 -0.11753269896E+03  0.33902441248E+03  0.36264603219E+03  0.00000000000E+00 0.  1.
         11    1    1    2    0    0  0.24655471782E+02 -0.33792676586E+02  0.21599795668E+03  0.22001126009E+03  0.00000000000E+00 0. -1.
</event>
<event>
 7    1  0.2820496E-009  0.1899382E+03  0.7561462E-02  0.1158517E+00
          1   -1    0    0  501    0  0.00000000000E+00  0.00000000000E+00  0.48097227885E+03  0.48097227885E+03  0.00000000000E+00 0. -1.
         -1   -1    0    0    0  501 -0.00000000000E+00 -0.00000000000E+00 -0.85815823159E+02  0.85815823159E+02  0.00000000000E+00 0.  1.
         25    2    1    2    0    0  0.13561264130E+03  0.10366016403E+03  0.19347900487E+03  0.28673656182E+03  0.12509001749E+03 0.  0.
          5    1    3    3  502    0  0.84744684225E+02  0.12725789550E+03  0.12113044999E+03  0.19510584764E+03  0.41800000000E+01 0. -1.
         -5    1    3    3    0  502  0.50867957071E+02 -0.23597731470E+02  0.72348554882E+02  0.91630714177E+02  0.41800000000E+01 0. -1.
        -11    1    1    2    0    0 -0.55465810751E+02 -0.41815994762E+02  0.15235327189E+03  0.16744119277E+03  0.00000000000E+00 0. -1.
         11    1    1    2    0    0 -0.80146830545E+02 -0.61844169267E+02  0.49324178935E+02  0.11261034742E+03  0.00000000000E+00 0.  1.
</event>
<event>
 7    1  0.2820496E-009  0.1365893E+03  0.7561462E-02  0.1217993E+00
         -3   -1    0    0    0  501 -0.00000000000E+00  0.00000000000E+00  0.23714551397E+03  0.23714551397E+03  0.00000000000E+00 0.  1.
          3   -1    0    0  501    0  0.00000000000E+00 -0.00000000000E+00 -0.10397031146E+03  0.10397031146E+03  0.00000000000E+00 0. -1.
         25    2    1    2    0    0 -0.23404532217E+02  0.10273058246E+03  0.10771426648E+03  0.19583771566E+03  0.12509477595E+03 0.  0.
          5    1    3    3  502    0 -0.30093353420E+02  0.12133596709E+03  0.50030409791E+02  0.13471652138E+03  0.41800000000E+01 0. -1.
         -5    1    3    3    0  502  0.66888212031E+01 -0.18605384634E+02  0.57683856692E+02  0.61121194273E+02  0.41800000000E+01 0. -1.
        -11    1    1    2    0    0 -0.26382101086E+02 -0.35218145753E+02  0.40793509267E+02  0.60003695272E+02  0.00000000000E+00 0.  1.
         11    1    1    2    0    0  0.49786633303E+02 -0.67512436704E+02 -0.15332573236E+02  0.85274414494E+02  0.00000000000E+00 0. -1.
</event>
<event>
 7    1  0.2820496E-009  0.1090562E+03  0.7561462E-02  0.1262328E+00
         -2   -1    0    0    0  501 -0.00000000000E+00  0.00000000000E+00  0.17487908840E+02  0.17487908840E+02  0.00000000000E+00 0.  1.
          2   -1    0    0  501    0  0.00000000000E+00 -0.00000000000E+00 -0.68540337788E+03  0.68540337788E+03  0.00000000000E+00 0. -1.
         25    2    1    2    0    0  0.95057883484E+01  0.11767310464E+02 -0.38237444701E+03  0.40259975399E+03  0.12509002591E+03 0.  0.
          5    1    3    3  502    0  0.57985605546E+02 -0.26651818684E+02 -0.19976393706E+03  0.20975164561E+03  0.41800000000E+01 0. -1.
         -5    1    3    3    0  502 -0.48479817197E+02  0.38419129148E+02 -0.18261050995E+03  0.19284810838E+03  0.41800000000E+01 0. -1.
        -11    1    1    2    0    0 -0.45137434140E+01  0.39949059437E+02 -0.10539104481E+03  0.11279881895E+03  0.00000000000E+00 0.  1.
         11    1    1    2    0    0 -0.49920449344E+01 -0.51716369901E+02 -0.18014997722E+03  0.18749271378E+03  0.00000000000E+00 0. -1.
</event>
<event>
 7    1  0.2820496E-009  0.1299942E+03  0.7561462E-02  0.1227464E+00
          2   -1    0    0  501    0  0.00000000000E+00  0.00000000000E+00  0.11792305565E+03  0.11792305565E+03  0.00000000000E+00 0. -1.
         -2   -1    0    0    0  501 -0.00000000000E+00 -0.00000000000E+00 -0.24817133629E+03  0.24817133629E+03  0.00000000000E+00 0.  1.
         25    2    1    2    0    0  0.11396320947E+03 -0.54061890035E+02 -0.10383317968E+03  0.20576296402E+03  0.12508703807E+03 0.  0.
          5    1    3    3  502    0  0.62195105355E+02 -0.33923206363E+02  0.16764815839E+02  0.72921509242E+02  0.41800000000E+01 0. -1.
         -5    1    3    3    0  502  0.51768104111E+02 -0.20138683672E+02 -0.12059799552E+03  0.13284145478E+03  0.41800000000E+01 0. -1.
        -11    1    1    2    0    0 -0.40522807235E+02  0.42933557386E+02 -0.55053132551E+02  0.80723203973E+02  0.00000000000E+00 0.  1.
         11    1    1    2    0    0 -0.73440402231E+02  0.11128332649E+02  0.28638031598E+02  0.79608223954E+02  0.00000000000E+00 0. -1.
</event>
<event>
 7    1  0.2820496E-009  0.9486719E+02  0.7561462E-02  0.1291475E+00
          1   -1    0    0  501    0  0.00000000000E+00  0.00000000000E+00  0.44370371511E+03  0.44370371511E+03  0.00000000000E+00 0. -1.
         -1   -1    0    0    0  501 -0.00000000000E+00 -0.00000000000E+00 -0.27931279594E+02  0.27931279594E+02  0.00000000000E+00 0.  1.
         25    2    1    2    0    0  0.18137625904E+02  0.78446293760E+00  0.27579476856E+03  0.30338011344E+03  0.12508856866E+03 0.  0.
          5    1    3    3  502    0 -0.13903235220E+02 -0.55903664353E+02  0.95105801289E+02  0.11127041600E+03  0.41800000000E+01 0. -1.
         -5    1    3    3    0  502  0.32040861124E+02  0.56688127290E+02  0.18068896728E+03  0.19210969744E+03  0.41800000000E+01 0. -1.
        -11    1    1    2    0    0 -0.73589821557E+01 -0.32451083648E+02  0.11055181346E+02  0.35063435127E+02  0.00000000000E+00 0.  1.
         11    1    1    2    0    0 -0.10778643748E+02  0.31666620711E+02  0.12892248561E+03  0.13319144613E+03  0.00000000000E+00 0. -1.
</event>
<event>
 7    1  0.2820496E-009  0.1130704E+03  0.7561462E-02  0.1254987E+00
          2   -1    0    0  501    0  0.00000000000E+00  0.00000000000E+00  0.61384696073E+03  0.61384696073E+03  0.00000000000E+00 0. -1.
         -2   -1    0    0    0  501 -0.00000000000E+00 -0.00000000000E+00 -0.23498367246E+02  0.23498367246E+02  0.00000000000E+00 0.  1.
         25    2    1    2    0    0 -0.53158970786E+02  0.37997735161E+02  0.27154906028E+03  0.30603331244E+03  0.12509113530E+03 0.  0.
          5    1    3    3  502    0 -0.81487807911E+02 -0.13016543818E+02  0.15954244651E+03  0.17966902317E+03  0.41800000000E+01 0. -1.
         -5    1    3    3    0  502  0.28328837125E+02  0.51014278979E+02  0.11200661377E+03  0.12636428926E+03  0.41800000000E+01 0. -1.
        -11    1    1    2    0    0  0.14533088427E+02 -0.43621988033E+02  0.11580778056E+03  0.12460148690E+03  0.00000000000E+00 0.  1.
         11    1    1    2    0    0  0.38625882359E+02  0.56242528727E+01  0.20299175264E+03  0.20671052863E+03  0.00000000000E+00 0. -1.
</event>
<event>
 7    1  0.2820496E-009  0.2437430E+03  0.7561462E-02  0.1117324E+00
          1   -1    0    0  501    0  0.00000000000E+00  0.00000000000E+00  0.10382060563E+03  0.10382060563E+03  0.00000000000E+00 0. -1.
         -1   -1    0    0    0  501 -0.00000000000E+00 -0.00000000000E+00 -0.59996781814E+03  0.59996781814E+03  0.00000000000E+00 0.  1.
         25    2    1    2    0    0  0.13019073047E+03  0.17846341963E+03 -0.31228137544E+03  0.40244995657E+03  0.12508993427E+03 0.  0.
          5    1    3    3  502    0 -0.21177453366E+02  0.56077666667E+01 -0.15779180682E+02  0.27320075422E+02  0.41800000000E+01 0. -1.
         -5    1    3    3    0  502  0.15136818384E+03  0.17285565297E+03 -0.29650219475E+03  0.37512988115E+03  0.41800000000E+01 0. -1.
        -11    1    1    2    0    0 -0.56053673311E+02 -0.18423193442E+02 -0.25432614094E+02  0.64251429618E+02  0.00000000000E+00 0.  1.
         11    1    1    2    0    0 -0.74137057158E+02 -0.16004022619E+03 -0.15843322298E+03  0.23708703758E+03  0.00000000000E+00 0. -1.
</event>
<event>
 7    1  0.2820496E-009  0.1362096E+03  0.7561462E-02  0.1218522E+00
         -2   -1    0    0    0  501 -0.00000000000E+00  0.00000000000E+00  0.23584444791E+02  0.23584444791E+02  0.00000000000E+00 0.  1.
          2   -1    0    0  501    0  0.00000000000E+00 -0.00000000000E+00 -0.10933595906E+04  0.10933595906E+04  0.00000000000E+00 0. -1.
         25    2    1    2    0    0 -0.47224507768E+02  0.10749281371E+03 -0.57665846604E+03  0.60163663309E+03  0.12508714035E+03 0.  0.
          5    1    3    3  502    0 -0.45897646784E+02 -0.85339850794E+00 -0.72232988978E+02  0.85687801734E+02  0.41800000000E+01 0.  1.
         -5    1    3    3    0  502 -0.13268609832E+01  0.10834621222E+03 -0.50442547707E+03  0.51594883135E+03  0.41800000000E+01 0.  1.
        -11    1    1    2    0    0  0.21245690370E+02 -0.35741053841E+02 -0.47172356360E+02  0.62881106014E+02  0.00000000000E+00 0.  1.
         11    1    1    2    0    0  0.25978817398E+02 -0.71751759867E+02 -0.44594432340E+03  0.45242629628E+03  0.00000000000E+00 0. -1.
</event>
<event>
 7    1  0.2820496E-009  0.9298806E+02  0.7561462E-02  0.1295773E+00
          2   -1    0    0  501    0  0.00000000000E+00  0.00000000000E+00  0.12538944709E+03  0.12538944709E+03  0.00000000000E+00 0.  1.
         -2   -1    0    0    0  501 -0.00000000000E+00 -0.00000000000E+00 -0.12176767029E+03  0.12176767029E+03  0.00000000000E+00 0. -1.
         25    2    1    2    0    0  0.19479251396E+02  0.42117831183E+01  0.58707886243E+02  0.13960540207E+03  0.12508346025E+03 0.  0.
          5    1    3    3  502    0 -0.36308379821E+02 -0.97891483310E+01 -0.19395739936E+02  0.42518149042E+02  0.41800000000E+01 0.  1.
         -5    1    3    3    0  502  0.55787631217E+02  0.14000931449E+02  0.78103626179E+02  0.97087253028E+02  0.41800000000E+01 0.  1.
        -11    1    1    2    0    0  0.25459711808E+02  0.25945250814E+02 -0.33011439517E+02  0.49103035590E+02  0.00000000000E+00 0. -1.
         11    1    1    2    0    0 -0.44938963204E+02 -0.30157033932E+02 -0.22074669921E+02  0.58448679725E+02  0.00000000000E+00 0.  1.
</event>
<event>
 7    1  0.2896417E-009  0.1474590E+03  0.7561462E-02  0.1203631E+00
          1   -1    0    0  501    0  0.00000000000E+00  0.00000000000E+00  0.98445237652E+03  0.98445237652E+03  0.00000000000E+00 0. -1.
         -1   -1    0    0    0  501 -0.00000000000E+00 -0.00000000000E+00 -0.39576946556E+02  0.39576946556E+02  0.00000000000E+00 0.  1.
         25    2    1    2    0    0 -0.13567818901E+03 -0.13113622400E+02  0.73063002992E+03  0.75369014689E+03  0.12509220131E+03 0.  0.
          5    1    3    3  502    0 -0.16050555050E+02  0.21141091459E+02  0.39160678382E+03  0.39252759342E+03  0.41800000000E+01 0.  1.
         -5    1    3    3    0  502 -0.11962763396E+03 -0.34254713858E+02  0.33902324611E+03  0.36116255347E+03  0.41800000000E+01 0. -1.
        -11    1    1    2    0    0  0.46003189440E+02  0.26162354722E+02  0.21065326580E+02  0.56960602412E+02  0.00000000000E+00 0.  1.
         11    1    1    2    0    0  0.89674999571E+02 -0.13048732322E+02  0.19318007346E+03  0.21337857377E+03  0.00000000000E+00 0. -1.
</event>
<event>
 7    1  0.2820496E-009  0.9921656E+02  0.7561462E-02  0.1281952E+00
          3   -1    0    0  501    0  0.00000000000E+00  0.00000000000E+00  0.52730636471E+03  0.52730636471E+03  0.00000000000E+00 0. -1.
         -3   -1    0    0    0  501 -0.00000000000E+00 -0.00000000000E+00 -0.33687609527E+02  0.33687609527E+02  0.00000000000E+00 0.  1.
         25    2    1    2    0    0 -0.32198436941E+02 -0.52191109724E+02  0.36005094434E+03  0.38606311030E+03  0.12508953328E+03 0.  0.
          5    1    3    3  502    0 -0.50176434175E+02 -0.51797361837E+02  0.36043001183E+03  0.36759747968E+03  0.41800000000E+01 0.  1.
         -5    1    3    3    0  502  0.17977997234E+02 -0.39374788723E+00 -0.37906748698E+00  0.18465630618E+02  0.41800000000E+01 0.  1.
        -11    1    1    2    0    0 -0.26495651580E+02 -0.36200033267E+01  0.13126868828E+02  0.29789908727E+02  0.00000000000E+00 0. -1.
         11    1    1    2    0    0  0.58694088521E+02  0.55811113050E+02  0.12044094202E+03  0.14514095522E+03  0.00000000000E+00 0.  1.
</event>
<event>
 7    1  0.2820496E-009  0.1199770E+03  0.7561462E-02  0.1243135E+00
         -1   -1    0    0    0  501 -0.00000000000E+00  0.00000000000E+00  0.28307800808E+03  0.28307800808E+03  0.00000000000E+00 0.  1.
          1   -1    0    0  501    0  0.00000000000E+00 -0.00000000000E+00 -0.94072826721E+02  0.94072826721E+02  0.00000000000E+00 0. -1.
         25    2    1    2    0    0 -0.11706816709E+03 -0.96699019972E+00  0.56817438565E+02  0.18050302220E+03  0.12508888393E+03 0.  0.
          5    1    3    3  502    0 -0.71252664675E+02 -0.17033001337E+02 -0.31325765077E+02  0.79786222592E+02  0.41800000000E+01 0. -1.
         -5    1    3    3    0  502 -0.45815502413E+02  0.16066011137E+02  0.88143203642E+02  0.10071679961E+03  0.41800000000E+01 0. -1.
        -11    1    1    2    0    0  0.14231893671E+02 -0.43169906828E+01  0.79689567513E+02  0.81065469693E+02  0.00000000000E+00 0.  1.
         11    1    1    2    0    0  0.10283627342E+03  0.52839808825E+01  0.52498175283E+02  0.11558234291E+03  0.00000000000E+00 0. -1.
</event>
<event>
 7    1  0.2820496E-009  0.7147357E+02  0.7561462E-02  0.1355153E+00
         -2   -1    0    0    0  501 -0.00000000000E+00  0.00000000000E+00  0.58139952210E+02  0.58139952210E+02  0.00000000000E+00 0.  1.
          2   -1    0    0  501    0  0.00000000000E+00 -0.00000000000E+00 -0.24430424993E+03  0.24430424993E+03  0.00000000000E+00 0. -1.
         25    2    1    2    0    0  0.71202341012E+01 -0.33770644970E+02 -0.10411587583E+03  0.16636644439E+03  0.12508606646E+03 0.  0.
          5    1    3    3  502    0 -0.60078804072E+01 -0.43321206518E+02  0.14734157751E+02  0.46339932734E+02  0.41800000000E+01 0. -1.
         -5    1    3    3    0  502  0.13128114508E+02  0.95505615484E+01 -0.11885003359E+03  0.12002651165E+03  0.41800000000E+01 0. -1.
        -11    1    1    2    0    0  0.33650105696E+02  0.10235934832E+02 -0.81756565149E+02  0.89001347856E+02  0.00000000000E+00 0. -1.
         11    1    1    2    0    0 -0.40770339797E+02  0.23534710138E+02 -0.29185673789E+00  0.47076409897E+02  0.00000000000E+00 0.  1.
</event>
<event>
 7    1  0.3001608E-009  0.8093988E+02  0.7561462E-02  0.1326405E+00
          1   -1    0    0  501    0  0.00000000000E+00  0.00000000000E+00  0.95490030382E+03  0.95490030382E+03  0.00000000000E+00 0. -1.
         -1   -1    0    0    0  501 -0.00000000000E+00 -0.00000000000E+00 -0.14507179785E+02  0.14507179785E+02  0.00000000000E+00 0.  1.
         25    2    1    2    0    0  0.31255811488E+02 -0.19968909980E+02  0.63550023467E+03  0.64875567429E+03  0.12509074123E+03 0.  0.
          5    1    3    3  502    0 -0.47495519568E+01 -0.25196676490E+02  0.58896717104E+03  0.58953984744E+03  0.41800000000E+01 0. -1.
         -5    1    3    3    0  502  0.36005363445E+02  0.52277665096E+01  0.46533063629E+02  0.59215826856E+02  0.41800000000E+01 0. -1.
        -11    1    1    2    0    0 -0.43093637974E+02 -0.26991713905E+02  0.15407802915E+03  0.16225182070E+03  0.00000000000E+00 0. -1.
         11    1    1    2    0    0  0.11837826486E+02  0.46960623885E+02  0.15081486022E+03  0.15839998862E+03  0.00000000000E+00 0.  1.
</event>
<event>
 7    1  0.2820496E-009  0.9434543E+02  0.7561462E-02  0.1292657E+00
          1   -1    0    0  501    0  0.00000000000E+00  0.00000000000E+00  0.12200912168E+03  0.12200912168E+03  0.00000000000E+00 0. -1.
         -1   -1    0    0    0  501 -0.00000000000E+00 -0.00000000000E+00 -0.27135165730E+03  0.27135165730E+03  0.00000000000E+00 0.  1.
         25    2    1    2    0    0  0.33289322396E+02 -0.41254921448E+02 -0.22613328192E+03  0.26381441459E+03  0.12510650114E+03 0.  0.
          5    1    3    3  502    0  0.56778373971E+01 -0.84067290124E+02 -0.15041600385E+03  0.17245867250E+03  0.41800000000E+01 0.  1.
         -5    1    3    3    0  502  0.27611484998E+02  0.42812368676E+02 -0.75717278067E+02  0.91355742093E+02  0.41800000000E+01 0.  1.
        -11    1    1    2    0    0 -0.14265020937E+02  0.21367950363E+02  0.93758534994E+02  0.97214932029E+02  0.00000000000E+00 0. -1.
         11    1    1    2    0    0 -0.19024301459E+02  0.19886971085E+02 -0.16967788695E+02  0.32331432355E+02  0.00000000000E+00 0.  1.
</event>
<event>
 7    1  0.2820496E-009  0.9577201E+02  0.7561462E-02  0.1289447E+00
         -2   -1    0    0    0  501 -0.00000000000E+00  0.00000000000E+00  0.54671439597E+03  0.54671439597E+03  0.00000000000E+00 0.  1.
          2   -1    0    0  501    0  0.00000000000E+00 -0.00000000000E+00 -0.23747247855E+02  0.23747247855E+02  0.00000000000E+00 0. -1.
         25    2    1    2    0    0 -0.12373963549E+02 -0.30869311428E+02  0.34416360214E+03  0.36769719138E+03  0.12508641071E+03 0.  0.
          5    1    3    3  502    0 -0.82570264099E+01  0.39069018332E+02  0.44548774468E+02  0.59971929977E+02  0.41800000000E+01 0. -1.
         -5    1    3    3    0  502 -0.41169371389E+01 -0.69938329761E+02  0.29961482768E+03  0.30772526140E+03  0.41800000000E+01 0. -1.
        -11    1    1    2    0    0 -0.15505478612E+02 -0.18728047809E+02  0.13213274634E+02  0.27672193052E+02  0.00000000000E+00 0. -1.
         11    1    1    2    0    0  0.27879442161E+02  0.49597359238E+02  0.16559027134E+03  0.17509225939E+03  0.00000000000E+00 0.  1.
</event>
<event>
 7    1  0.2820496E-009  0.1723502E+03  0.7561462E-02  0.1175419E+00
         -1   -1    0    0    0  501 -0.00000000000E+00  0.00000000000E+00  0.12700168787E+03  0.12700168787E+03  0.00000000000E+00 0.  1.
          1   -1    0    0  501    0  0.00000000000E+00 -0.00000000000E+00 -0.30331905705E+03  0.30331905705E+03  0.00000000000E+00 0. -1.
         25    2    1    2    0    0  0.15447391529E+03  0.17631048330E+02 -0.37001779712E+02  0.20295146979E+03  0.12508846077E+03 0.  0.
          5    1    3    3  502    0  0.65168451561E+02  0.60631147858E+02  0.15906483609E+02  0.90518240097E+02  0.41800000000E+01 0.  1.
         -5    1    3    3    0  502  0.89305463728E+02 -0.43000099528E+02 -0.52908263322E+02  0.11243322969E+03  0.41800000000E+01 0.  1.
        -11    1    1    2    0    0 -0.90253217834E+02 -0.18628541376E+02 -0.13439038777E+03  0.16295226972E+03  0.00000000000E+00 0. -1.
         11    1    1    2    0    0 -0.64220697456E+02  0.99749304670E+00 -0.49252017019E+01  0.64417005409E+02  0.00000000000E+00 0.  1.
</event>
<event>
 7    1  0.2820496E-009  0.1133210E+03  0.7561462E-02  0.1254541E+00
          1   -1    0    0  501    0  0.00000000000E+00  0.00000000000E+00  0.50560644469E+03  0.50560644469E+03  0.00000000000E+00 0. -1.
         -1   -1    0    0    0  501 -0.00000000000E+00 -0.00000000000E+00 -0.29534184724E+02  0.29534184724E+02  0.00000000000E+00 0.  1.
         25    2    1    2    0    0  0.37351009018E+02 -0.12506413874E+02  0.35254408123E+03  0.37614497465E+03  0.12508478914E+03 0.  0.
          5    1    3    3  502    0 -0.16317901959E+02  0.47489929455E+02  0.12710208441E+03  0.13672592872E+03  0.41800000000E+01 0.  1.
         -5    1    3    3    0  502  0.53668910976E+02 -0.59996343329E+02  0.22544199683E+03  0.23941904592E+03  0.41800000000E+01 0.  1.
        -11    1    1    2    0    0 -0.65868400633E+02  0.12933607924E+02  0.62885471034E+02  0.91981013710E+02  0.00000000000E+00 0.  1.
         11    1    1    2    0    0  0.28517391616E+02 -0.42719404953E+00  0.60642707702E+02  0.67014641062E+02  0.00000000000E+00 0. -1.
</event>
<event>
 7    1  0.2820496E-009  0.2686283E+03  0.7561462E-02  0.1102067E+00
         -1   -1    0    0    0  501 -0.00000000000E+00  0.00000000000E+00  0.87333626499E+02  0.87333626499E+02  0.00000000000E+00 0.  1.
          1   -1    0    0  501    0  0.00000000000E+00 -0.00000000000E+00 -0.96958302889E+03  0.96958302889E+03  0.00000000000E+00 0. -1.
         25    2    1    2    0    0  0.20177122296E+03 -0.16221484797E+03 -0.32125555966E+03  0.43113526352E+03  0.12508875855E+03 0.  0.
          5    1    3    3  502    0 -0.15796009207E+01 -0.39158675852E+02 -0.12258881645E+02  0.41275290584E+02  0.41800000000E+01 0.  1.
         -5    1    3    3    0  502  0.20335082388E+03 -0.12305617212E+03 -0.30899667802E+03  0.38985997294E+03  0.41800000000E+01 0.  1.
        -11    1    1    2    0    0 -0.10097328919E+02  0.16516292860E+02 -0.51457051021E+01  0.20030533246E+02  0.00000000000E+00 0.  1.
         11    1    1    2    0    0 -0.19167389405E+03  0.14569855511E+03 -0.55584813762E+03  0.60575085862E+03  0.00000000000E+00 0. -1.
</event>
<event>
 7    1  0.2820496E-009  0.9250500E+02  0.7561462E-02  0.1296896E+00
         -1   -1    0    0    0  501 -0.00000000000E+00  0.00000000000E+00  0.12577446250E+03  0.12577446250E+03  0.00000000000E+00 0.  1.
          1   -1    0    0  501    0  0.00000000000E+00 -0.00000000000E+00 -0.17976586772E+03  0.17976586772E+03  0.00000000000E+00 0. -1.
         25    2    1    2    0    0 -0.17875454712E+02 -0.65314793349E+02  0.45707916370E+02  0.14940794408E+03  0.12509183036E+03 0.  0.
          5    1    3    3  502    0 -0.31777441401E+02 -0.46770511695E+01  0.74120071175E+02  0.80888428966E+02  0.41800000000E+01 0. -1.
         -5    1    3    3    0  502  0.13901986690E+02 -0.60637742179E+02 -0.28412154804E+02  0.68519515112E+02  0.41800000000E+01 0. -1.
        -11    1    1    2    0    0 -0.20095298555E+02  0.82453911396E+01  0.12195536118E+02  0.24910612202E+02  0.00000000000E+00 0.  1.
         11    1    1    2    0    0  0.37970753266E+02  0.57069402209E+02 -0.11189485771E+03  0.13122177393E+03  0.00000000000E+00 0. -1.
</event>
<event>
 7    1  0.2820496E-009  0.1043084E+03  0.7561462E-02  0.1271488E+00
         -2   -1    0    0    0  501 -0.00000000000E+00  0.00000000000E+00  0.14519993783E+02  0.14519993783E+02  0.00000000000E+00 0.  1.
          2   -1    0    0  501    0  0.00000000000E+00 -0.00000000000E+00 -0.16257562275E+04  0.16257562275E+04  0.00000000000E+00 0. -1.
         25    2    1    2    0    0 -0.35325583144E+01  0.37156328869E+02 -0.14008743629E+04  0.14069431989E+04  0.12508841935E+03 0.  0.
          5    1    3    3  502    0 -0.39057405033E+02  0.68129181378E+02 -0.68331324807E+03  0.68782376641E+03  0.41800000000E+01 0.  1.
         -5    1    3    3    0  502  0.35524846719E+02 -0.30972852509E+02 -0.71756111483E+03  0.71911943253E+03  0.41800000000E+01 0.  1.
        -11    1    1    2    0    0  0.26732881560E+00  0.22705982874E+02 -0.11153182027E+02  0.25298746853E+02  0.00000000000E+00 0.  1.
         11    1    1    2    0    0  0.32652294988E+01 -0.59862311743E+02 -0.19920868876E+03  0.20803427546E+03  0.00000000000E+00 0. -1.
</event>
<event>
 7    1  0.2820496E-009  0.1465617E+03  0.7561462E-02  0.1204763E+00
         -2   -1    0    0    0  501 -0.00000000000E+00  0.00000000000E+00  0.37223582764E+03  0.37223582764E+03  0.00000000000E+00 0.  1.
          2   -1    0    0  501    0  0.00000000000E+00 -0.00000000000E+00 -0.71448073046E+02  0.71448073046E+02  0.00000000000E+00 0. -1.
         25    2    1    2    0    0 -0.93930028889E+02 -0.65101162368E+02  0.10375995205E+03  0.19868070938E+03  0.12508750921E+03 0.  0.
          5    1    3    3  502    0 -0.11541445258E+03 -0.25621475382E+02  0.49863363143E+02  0.12837750289E+03  0.41800000000E+01 0. -1.
         -5    1    3    3    0  502  0.21484423693E+02 -0.39479686987E+02  0.53896588904E+02  0.70303206481E+02  0.41800000000E+01 0. -1.
        -11    1    1    2    0    0  0.24532555179E+02 -0.10830994230E+02  0.10022225768E+03  0.10374804882E+03  0.00000000000E+00 0.  1.
         11    1    1    2    0    0  0.69397473710E+02  0.75932156599E+02  0.96805544873E+02  0.14125514249E+03  0.00000000000E+00 0. -1.
</event>
<event>
 7    1  0.2820496E-009  0.9409591E+02  0.7561462E-02  0.1293225E+00
         -2   -1    0    0    0  501 -0.00000000000E+00  0.00000000000E+00  0.51229466192E+02  0.51229466192E+02  0.00000000000E+00 0.  1.
          2   -1    0    0  501    0  0.00000000000E+00 -0.00000000000E+00 -0.28222414636E+03  0.28222414636E+03  0.00000000000E+00 0. -1.
         25    2    1    2    0    0 -0.33186437348E+02 -0.17997691927E+02 -0.89568391262E+02  0.15841392341E+03  0.12508883994E+03 0.  0.
          5    1    3    3  502    0 -0.56952956769E+02 -0.29666140966E+02 -0.10811582888E+03  0.12581821831E+03  0.41800000000E+01 0. -1.
         -5    1    3    3    0  502  0.23766519421E+02  0.11668449038E+02  0.18547437619E+02  0.32595705094E+02  0.41800000000E+01 0. -1.
        -11    1    1    2    0    0  0.63832754187E+02  0.59626313351E+01 -0.62558774633E+02  0.89575519888E+02  0.00000000000E+00 0.  1.
         11    1    1    2    0    0 -0.30646316839E+02  0.12035060592E+02 -0.78867514271E+02  0.85464169256E+02  0.00000000000E+00 0. -1.
</event>
<event>
 7    1  0.2820496E-009  0.1828870E+03  0.7561462E-02  0.1165038E+00
         -1   -1    0    0    0  501 -0.00000000000E+00  0.00000000000E+00  0.51460879315E+02  0.51460879315E+02  0.00000000000E+00 0.  1.
          1   -1    0    0  501    0  0.00000000000E+00 -0.00000000000E+00 -0.85584466434E+03  0.85584466434E+03  0.00000000000E+00 0. -1.
         25    2    1    2    0    0  0.12769485255E+03  0.11195084815E+03 -0.28720211214E+03  0.35633013546E+03  0.12508854642E+03 0.  0.
          5    1    3    3  502    0  0.13115061080E+03  0.83695024950E+02 -0.15003815749E+03  0.21618108385E+03  0.41800000000E+01 0. -1.
         -5    1    3    3    0  502 -0.34557582432E+01  0.28255823203E+02 -0.13716395465E+03  0.14014905160E+03  0.41800000000E+01 0. -1.
        -11    1    1    2    0    0 -0.51234795734E+02 -0.86949449005E+02 -0.36678824117E+03  0.38041927506E+03  0.00000000000E+00 0. -1.
         11    1    1    2    0    0 -0.76460056819E+02 -0.25001399148E+02 -0.15039343171E+03  0.17055613314E+03  0.00000000000E+00 0.  1.
</event>
<event>
 7    1  0.2820496E-009  0.1079543E+03  0.7561462E-02  0.1264406E+00
          1   -1    0    0  501    0  0.00000000000E+00  0.00000000000E+00  0.47740478913E+03  0.47740478913E+03  0.00000000000E+00 0. -1.
         -1   -1    0    0    0  501 -0.00000000000E+00 -0.00000000000E+00 -0.29499113104E+02  0.29499113104E+02  0.00000000000E+00 0.  1.
         25    2    1    2    0    0  0.43843124672E+02  0.12304012523E+02  0.28833974522E+03  0.31758578995E+03  0.12508923615E+03 0.  0.
          5    1    3    3  502    0 -0.28050822465E+02  0.45662340219E+02  0.11584973553E+03  0.12771269153E+03  0.41800000000E+01 0. -1.
         -5    1    3    3    0  502  0.71893947137E+02 -0.33358327695E+02  0.17249000969E+03  0.18987309842E+03  0.41800000000E+01 0. -1.
        -11    1    1    2    0    0 -0.26734882424E+02  0.28176884503E+02  0.21433582429E+02  0.44363151537E+02  0.00000000000E+00 0.  1.
         11    1    1    2    0    0 -0.17108242249E+02 -0.40480897027E+02  0.13813234838E+03  0.14495496075E+03  0.00000000000E+00 0. -1.
</event>
<event>
 7    1  0.2820496E-009  0.9511862E+02  0.7561462E-02  0.1290909E+00
          1   -1    0    0  501    0  0.00000000000E+00  0.00000000000E+00  0.59707979819E+03  0.59707979819E+03  0.00000000000E+00 0. -1.
         -1   -1    0    0    0  501 -0.00000000000E+00 -0.00000000000E+00 -0.22447709275E+02  0.22447709275E+02  0.00000000000E+00 0.  1.
         25    2    1    2    0    0 -0.13510116722E+02 -0.82285802956E+01  0.38633245096E+03  0.40638764316E+03  0.12509165065E+03 0.  0.
          5    1    3    3  502    0 -0.27494562992E+02 -0.50159783948E+02  0.89819788797E+02  0.10656932851E+03  0.41800000000E+01 0. -1.
         -5    1    3    3    0  502  0.13984446270E+02  0.41931203652E+02  0.29651266216E+03  0.29981831465E+03  0.41800000000E+01 0. -1.
        -11    1    1    2    0    0 -0.22985274450E+02 -0.28562844876E+02  0.32662411532E+02  0.49101854099E+02  0.00000000000E+00 0.  1.
         11    1    1    2    0    0  0.36495391172E+02  0.36791425171E+02  0.15563722643E+03  0.16403801021E+03  0.00000000000E+00 0. -1.
</event>
<event>
 7    1  0.2820496E-009  0.1724252E+03  0.7561462E-02  0.1175342E+00
         -1   -1    0    0    0  501 -0.00000000000E+00  0.00000000000E+00  0.40177001256E+03  0.40177001256E+03  0.00000000000E+00 0.  1.
          1   -1    0    0  501    0  0.00000000000E+00 -0.00000000000E+00 -0.12256854376E+03  0.12256854376E+03  0.00000000000E+00 0. -1.
         25    2    1    2    0    0  0.14736063172E+02 -0.15742676050E+03  0.27521580722E+03  0.34116316074E+03  0.12509286642E+03 0.  0.
          5    1    3    3  502    0 -0.31775542118E+02 -0.35371132611E+02  0.15991232423E+03  0.16688386962E+03  0.41800000000E+01 0.  1.
         -5    1    3    3    0  502  0.46511605290E+02 -0.12205562789E+03  0.11530348299E+03  0.17427929112E+03  0.41800000000E+01 0.  1.
        -11    1    1    2    0    0  0.19427824340E+02  0.67385992211E+02 -0.36082128868E+02  0.78868449512E+02  0.00000000000E+00 0. -1.
         11    1    1    2    0    0 -0.34163887512E+02  0.90040768288E+02  0.40067790452E+02  0.10430694606E+03  0.00000000000E+00 0.  1.
</event>
<event>
 7    1  0.2820496E-009  0.1059246E+03  0.7561462E-02  0.1268309E+00
         -2   -1    0    0    0  501 -0.00000000000E+00  0.00000000000E+00  0.86378999912E+03  0.86378999912E+03  0.00000000000E+00 0.  1.
          2   -1    0    0  501    0  0.00000000000E+00 -0.00000000000E+00 -0.16863174985E+02  0.16863174985E+02  0.00000000000E+00 0. -1.
         25    2    1    2    0    0 -0.29563581414E+02  0.36861103624E+02  0.54750952639E+03  0.56360111304E+03  0.12508711694E+03 0.  0.
          5    1    3    3  502    0 -0.23172047977E+02  0.71531097426E+02  0.19071411764E+03  0.20504387037E+03  0.41800000000E+01 0.  1.
         -5    1    3    3    0  502 -0.63915334366E+01 -0.34669993801E+02  0.35679540874E+03  0.35855724267E+03  0.41800000000E+01 0.  1.
        -11    1    1    2    0    0  0.46107239773E+02 -0.58066567601E+02  0.25032519555E+03  0.26107529059E+03  0.00000000000E+00 0.  1.
         11    1    1    2    0    0 -0.16543658359E+02  0.21205463977E+02  0.49092102197E+02  0.55976770472E+02  0.00000000000E+00 0. -1.
</event>
<event>
 7    1  0.2820496E-009  0.1096873E+03  0.7561462E-02  0.1261150E+00
          2   -1    0    0  501    0  0.00000000000E+00  0.00000000000E+00  0.14159207440E+03  0.14159207440E+03  0.00000000000E+00 0. -1.
         -2   -1    0    0    0  501 -0.00000000000E+00 -0.00000000000E+00 -0.71315947766E+03  0.71315947766E+03  0.00000000000E+00 0.  1.
         25    2    1    2    0    0  0.13326598466E+01 -0.75322871428E+02 -0.67974307614E+03  0.69525072575E+03  0.12509041194E+03 0.  0.
          5    1    3    3  502    0 -0.40988300361E+02 -0.37770802479E+02 -0.55961598667E+03  0.56240039049E+03  0.41800000000E+01 0.  1.
         -5    1    3    3    0  502  0.42320960208E+02 -0.37552068949E+02 -0.12012708947E+03  0.13285033526E+03  0.41800000000E+01 0.  1.
        -11    1    1    2    0    0 -0.26953160714E+02  0.76489946718E+02  0.48372870484E+02  0.94430500477E+02  0.00000000000E+00 0.  1.
         11    1    1    2    0    0  0.25620500867E+02 -0.11670752895E+01  0.59802802392E+02  0.65070325828E+02  0.00000000000E+00 0. -1.
</event>
<event>
 7    1  0.2820496E-009  0.1040532E+03  0.7561462E-02  0.1271996E+00
          2   -1    0    0  501    0  0.00000000000E+00  0.00000000000E+00  0.35829874848E+03  0.35829874848E+03  0.00000000000E+00 0.  1.
         -2   -1    0    0    0  501 -0.00000000000E+00 -0.00000000000E+00 -0.32817306412E+02  0.32817306412E+02  0.00000000000E+00 0. -1.
         25    2    1    2    0    0  0.55231029561E+01 -0.21677900099E+02  0.20357590301E+03  0.23998279801E+03  0.12509260184E+03 0.  0.
          5    1    3    3  502    0  0.49977876079E+02  0.23954207269E+02  0.13649545493E+03  0.14737731766E+03  0.41800000000E+01 0.  1.
         -5    1    3    3    0  502 -0.44454773122E+02 -0.45632107368E+02  0.67080448074E+02  0.92605480345E+02  0.41800000000E+01 0.  1.
        -11    1    1    2    0    0  0.25230106398E+02 -0.23202937210E+02  0.56175829971E+02  0.65807738428E+02  0.00000000000E+00 0. -1.
         11    1    1    2    0    0 -0.30753209354E+02  0.44880837309E+02  0.65729709084E+02  0.85325518454E+02  0.00000000000E+00 0.  1.
</event>
<event>
 7    1  0.2820496E-009  0.1134490E+03  0.7561462E-02  0.1254313E+00
          3   -1    0    0  501    0  0.00000000000E+00  0.00000000000E+00  0.12867984497E+03  0.12867984497E+03  0.00000000000E+00 0. -1.
         -3   -1    0    0    0  501 -0.00000000000E+00 -0.00000000000E+00 -0.21285004509E+03  0.21285004509E+03  0.00000000000E+00 0.  1.
         25    2    1    2    0    0  0.26549088233E+02  0.85755867589E+02  0.45676252697E+02  0.16060338967E+03  0.12509278876E+03 0.  0.
          5    1    3    3  502    0  0.37751290266E+02  0.77705483071E+02  0.83441935829E+02  0.12018041051E+03  0.41800000000E+01 0.  1.
         -5    1    3    3    0  502 -0.11202202033E+02  0.80503845186E+01 -0.37765683132E+02  0.40422979154E+02  0.41800000000E+01 0.  1.
        -11    1    1    2    0    0  0.32455302262E+02 -0.22517539764E+02 -0.40370784114E+02  0.56481735560E+02  0.00000000000E+00 0. -1.
         11    1    1    2    0    0 -0.59004390495E+02 -0.63238327826E+02 -0.89475668710E+02  0.12444476484E+03  0.00000000000E+00 0.  1.
</event>
<event>
 7    1  0.2820496E-009  0.1624047E+03  0.7561462E-02  0.1186008E+00
          1   -1    0    0  501    0  0.00000000000E+00  0.00000000000E+00  0.30920185930E+03  0.30920185930E+03  0.00000000000E+00 0. -1.
         -1   -1    0    0    0  501 -0.00000000000E+00 -0.00000000000E+00 -0.11755712003E+03  0.11755712003E+03  0.00000000000E+00 0.  1.
         25    2    1    2    0    0 -0.99868531648E+02  0.77585008752E+02  0.17566801306E+02  0.17874455344E+03  0.12509142928E+03 0.  0.
          5    1    3    3  502    0  0.12419149147E+01  0.67402694521E+02 -0.19806196157E+02  0.70387665024E+02  0.41800000000E+01 0.  1.
         -5    1    3    3    0  502 -0.10111044656E+03  0.10182314231E+02  0.37372997463E+02  0.10835688841E+03  0.41800000000E+01 0.  1.
        -11    1    1    2    0    0  0.46580100489E+02 -0.89552435522E+02  0.50423363137E+02  0.11283554413E+03  0.00000000000E+00 0.  1.
         11    1    1    2    0    0  0.53288431158E+02  0.11967426770E+02  0.12365457483E+03  0.13517888176E+03  0.00000000000E+00 0. -1.
</event>
<event>
 7    1  0.2820496E-009  0.1149328E+03  0.7561462E-02  0.1251698E+00
         -1   -1    0    0    0  501 -0.00000000000E+00  0.00000000000E+00  0.25663937781E+02  0.25663937781E+02  0.00000000000E+00 0.  1.
          1   -1    0    0  501    0  0.00000000000E+00 -0.00000000000E+00 -0.65584783382E+03  0.65584783382E+03  0.00000000000E+00 0. -1.
         25    2    1    2    0    0  0.76048870574E+02 -0.28399065217E+01 -0.33575321500E+03  0.36629267190E+03  0.12509438166E+03 0.  0.
          5    1    3    3  502    0  0.99976938040E+02  0.29400647770E+02 -0.26578232144E+03  0.28551269852E+03  0.41800000000E+01 0.  1.
         -5    1    3    3    0  502 -0.23928067465E+02 -0.32240554292E+02 -0.69970893561E+02  0.80779973381E+02  0.41800000000E+01 0.  1.
        -11    1    1    2    0    0 -0.59729337064E+01 -0.12154264986E+02 -0.14713502413E+01  0.13622296648E+02  0.00000000000E+00 0.  1.
         11    1    1    2    0    0 -0.70075936868E+02  0.14994171508E+02 -0.29295933080E+03  0.30159680305E+03  0.00000000000E+00 0. -1.
</event>
<event>
 7    1  0.2820496E-009  0.1267270E+03  0.7561462E-02  0.1232395E+00
          1   -1    0    0  501    0  0.00000000000E+00  0.00000000000E+00  0.36227322341E+02  0.36227322341E+02  0.00000000000E+00 0. -1.
         -1   -1    0    0    0  501 -0.00000000000E+00 -0.00000000000E+00 -0.53841947671E+03  0.53841947671E+03  0.00000000000E+00 0.  1.
         25    2    1    2    0    0 -0.52841929306E+02  0.34707761227E+02 -0.15442918858E+03  0.20854832481E+03  0.12508849392E+03 0.  0.
          5    1    3    3  502    0 -0.53039453778E+02 -0.38653787557E+02 -0.84857368823E+02  0.10735708823E+03  0.41800000000E+01 0. -1.
         -5    1    3    3    0  502  0.19752447181E+00  0.73361548784E+02 -0.69571819759E+02  0.10119123658E+03  0.41800000000E+01 0. -1.
        -11    1    1    2    0    0  0.90910043388E+01 -0.61987878617E+02 -0.20139945960E+03  0.21091914513E+03  0.00000000000E+00 0. -1.
         11    1    1    2    0    0  0.43750924967E+02  0.27280117390E+02 -0.14636350619E+03  0.15517932912E+03  0.00000000000E+00 0.  1.
</event>
<event>
 7    1  0.2820496E-009  0.1748773E+03  0.7561462E-02  0.1172855E+00
         -1   -1    0    0    0  501 -0.00000000000E+00  0.00000000000E+00  0.75125386570E+02  0.75125386570E+02  0.00000000000E+00 0.  1.
          1   -1    0    0  501    0  0.00000000000E+00 -0.00000000000E+00 -0.55676557749E+03  0.55676557749E+03  0.00000000000E+00 0. -1.
         25    2    1    2    0    0  0.78564450833E+02 -0.13422265840E+03 -0.13376657483E+03  0.24026653267E+03  0.12508563153E+03 0.  0.
          5    1    3    3  502    0 -0.11584322849E+02 -0.67129636067E+01 -0.70243714557E+02  0.71630386366E+02  0.41800000000E+01 0.  1.
         -5    1    3    3    0  502  0.90148773682E+02 -0.12750969479E+03 -0.63522860276E+02  0.16863614630E+03  0.41800000000E+01 0.  1.
        -11    1    1    2    0    0 -0.37507808039E+02  0.13326847234E+03 -0.25754264623E+03  0.29239619698E+03  0.00000000000E+00 0.  1.
         11    1    1    2    0    0 -0.41056642793E+02  0.95418605460E+00 -0.90330969856E+02  0.99228234408E+02  0.00000000000E+00 0. -1.
</event>
<event>
 7    1  0.2820496E-009  0.9932234E+02  0.7561462E-02  0.1281727E+00
         -1   -1    0    0    0  501 -0.00000000000E+00  0.00000000000E+00  0.88878494061E+02  0.88878494061E+02  0.00000000000E+00 0.  1.
          1   -1    0    0  501    0  0.00000000000E+00 -0.00000000000E+00 -0.15373160115E+03  0.15373160115E+03  0.00000000000E+00 0. -1.
         25    2    1    2    0    0 -0.29697000678E+02 -0.21717613154E+02 -0.14020152062E+02  0.13117467387E+03  0.12512659122E+03 0.  0.
          5    1    3    3  502    0  0.10783868243E+01 -0.54296639072E+02  0.34906293309E+02  0.64693196282E+02  0.41800000000E+01 0.  1.
         -5    1    3    3    0  502 -0.30775387502E+02  0.32579025918E+02 -0.48926445371E+02  0.66481477588E+02  0.41800000000E+01 0.  1.
        -11    1    1    2    0    0 -0.30037404956E+02 -0.98395296010E+01 -0.16119704022E+02  0.35481078013E+02  0.00000000000E+00 0.  1.
         11    1    1    2    0    0  0.59734405633E+02  0.31557142755E+02 -0.34713251008E+02  0.75954343331E+02  0.00000000000E+00 0. -1.
</event>
<event>
 7    1  0.2820496E-009  0.9190118E+02  0.7561462E-02  0.1298312E+00
         -1   -1    0    0    0  501 -0.00000000000E+00  0.00000000000E+00  0.49147871452E+02  0.49147871452E+02  0.00000000000E+00 0.  1.
          1   -1    0    0  501    0  0.00000000000E+00 -0.00000000000E+00 -0.57849848979E+03  0.57849848979E+03  0.00000000000E+00 0. -1.
         25    2    1    2    0    0 -0.38570209264E+01 -0.47822304188E+02 -0.45759784162E+03  0.47680761763E+03  0.12509144730E+03 0.  0.
          5    1    3    3  502    0  0.60152036022E+02 -0.28660619482E+02 -0.24356385647E+03  0.25254806102E+03  0.41800000000E+01 0. -1.
         -5    1    3    3    0  502 -0.64009056948E+02 -0.19161684706E+02 -0.21403398515E+03  0.22425955661E+03  0.41800000000E+01 0. -1.
        -11    1    1    2    0    0  0.91281965684E+01  0.23577707096E+02 -0.10576145817E+03  0.10874152049E+03  0.00000000000E+00 0. -1.
         11    1    1    2    0    0 -0.52711756421E+01  0.24244597092E+02  0.34008681448E+02  0.42097223123E+02  0.00000000000E+00 0.  1.
</event>
<event>
 7    1  0.2820496E-009  0.1670833E+03  0.7561462E-02  0.1180924E+00
          2   -1    0    0  501    0  0.00000000000E+00  0.00000000000E+00  0.11868414727E+04  0.11868414727E+04  0.00000000000E+00 0. -1.
         -2   -1    0    0    0  501 -0.00000000000E+00 -0.00000000000E+00 -0.38530506057E+02  0.38530506057E+02  0.00000000000E+00 0.  1.
         25    2    1    2    0    0  0.13635010571E+03  0.38882722461E+02  0.92364312855E+03  0.94279773976E+03  0.12509089392E+03 0.  0.
          5    1    3    3  502    0  0.15340165639E+03  0.54015135918E+02  0.73836157186E+03  0.75607207745E+03  0.41800000000E+01 0. -1.
         -5    1    3    3    0  502 -0.17051550674E+02 -0.15132413457E+02  0.18528155669E+03  0.18672566232E+03  0.41800000000E+01 0. -1.
        -11    1    1    2    0    0 -0.10855627067E+03 -0.11298314586E+02  0.87382860678E+02  0.13981373379E+03  0.00000000000E+00 0.  1.
         11    1    1    2    0    0 -0.27793835042E+02 -0.27584407875E+02  0.13728497739E+03  0.14276050519E+03  0.00000000000E+00 0. -1.
</event>
<event>
 7    1  0.2820496E-009  0.1329150E+03  0.7561462E-02  0.1223193E+00
          1   -1    0    0  501    0  0.00000000000E+00  0.00000000000E+00  0.36202385135E+03  0.36202385135E+03  0.00000000000E+00 0. -1.
         -1   -1    0    0    0  501 -0.00000000000E+00 -0.00000000000E+00 -0.60608268268E+02  0.60608268268E+02  0.00000000000E+00 0.  1.
         25    2    1    2    0    0  0.95237044076E+02 -0.13667198959E+01  0.20870543376E+03  0.26129403841E+03  0.12507859105E+03 0.  0.
          5    1    3    3  502    0  0.97661872639E+02 -0.31961650118E+02  0.83968301749E+02  0.13276873331E+03  0.41800000000E+01 0.  1.
         -5    1    3    3    0  502 -0.24248285628E+01  0.30594930222E+02  0.12473713201E+03  0.12852530510E+03  0.41800000000E+01 0.  1.
        -11    1    1    2    0    0 -0.11358135846E+03  0.27587469347E+01  0.80946912899E+02  0.13950175046E+03  0.00000000000E+00 0. -1.
         11    1    1    2    0    0  0.18344314381E+02 -0.13920270388E+01  0.11763236421E+02  0.21836330747E+02  0.00000000000E+00 0.  1.
</event>
<event>
 7    1  0.2820496E-009  0.2662739E+03  0.7561462E-02  0.1103431E+00
         -1   -1    0    0    0  501 -0.00000000000E+00  0.00000000000E+00  0.20755799053E+03  0.20755799053E+03  0.00000000000E+00 0.  1.
          1   -1    0    0  501    0  0.00000000000E+00 -0.00000000000E+00 -0.40456437020E+03  0.40456437020E+03  0.00000000000E+00 0. -1.
         25    2    1    2    0    0  0.25419003496E+03 -0.36717273422E+02 -0.19087797278E+02  0.28630883024E+03  0.12509064804E+03 0.  0.
          5    1    3    3  502    0  0.32109740091E+02  0.26696056630E+02  0.28150931557E+02  0.50533772824E+02  0.41800000000E+01 0. -1.
         -5    1    3    3    0  502  0.22208029487E+03 -0.63413330051E+02 -0.47238728835E+02  0.23577505742E+03  0.41800000000E+01 0. -1.
        -11    1    1    2    0    0 -0.99855714557E+02  0.33139292269E+02 -0.24202048426E+02  0.10795886054E+03  0.00000000000E+00 0.  1.
         11    1    1    2    0    0 -0.15433432041E+03  0.35779811523E+01 -0.15371653396E+03  0.21785466994E+03  0.00000000000E+00 0. -1.
</event>
<event>
 6    1  0.2820496E-009  0.1336724E+03  0.7561462E-02  0.1222106E+00
          2   -1    0    0  501    0  0.00000000000E+00  0.00000000000E+00  0.41521263614E+03  0.41521263614E+03  0.00000000000E+00 0.  1.
         -2   -1    0    0    0  501 -0.00000000000E+00 -0.00000000000E+00 -0.51624743555E+02  0.51624743555E+02  0.00000000000E+00 0. -1.
          5    1    1    2  502    0 -0.10266757243E+03  0.43192150697E+02  0.16742459957E+03  0.20113344141E+03  0.41800000000E+01 0. -1.
         -5    1    1    2    0  502  0.17221205718E+02 -0.33594596138E+02  0.91603075509E+02  0.99165329923E+02  0.41800000000E+01 0. -1.
        -11    1    1    2    0    0 -0.13682654831E+02 -0.12777695743E+02 -0.43664102749E+01  0.19223685662E+02  0.00000000000E+00 0.  1.
         11    1    1    2    0    0  0.99129021548E+02  0.31801411840E+01  0.10892662778E+03  0.14731492270E+03  0.00000000000E+00 0. -1.
</event>
<event>
 7    1  0.3029639E-009  0.1559019E+03  0.7561462E-02  0.1193403E+00
          1   -1    0    0  501    0  0.00000000000E+00  0.00000000000E+00  0.25852886854E+03  0.25852886854E+03  0.00000000000E+00 0. -1.
         -1   -1    0    0    0  501 -0.00000000000E+00 -0.00000000000E+00 -0.11109648508E+03  0.11109648508E+03  0.00000000000E+00 0.  1.
         25    2    1    2    0    0 -0.83579665704E+02  0.78888355268E+02  0.14407729226E+03  0.22274410560E+03  0.12509091622E+03 0.  0.
          5    1    3    3  502    0  0.29787110398E+02  0.65499796992E+01  0.49471848581E+02  0.58267575734E+02  0.41800000000E+01 0.  1.
         -5    1    3    3    0  502 -0.11336677610E+03  0.72338375568E+02  0.94605443677E+02  0.16447652987E+03  0.41800000000E+01 0.  1.
        -11    1    1    2    0    0  0.95894412970E+02 -0.36951715864E+02  0.71078891401E+01  0.10301305661E+03  0.00000000000E+00 0. -1.
         11    1    1    2    0    0 -0.12314747265E+02 -0.41936639404E+02 -0.37527979406E+01  0.43868191404E+02  0.00000000000E+00 0.  1.
</event>
<event>
 7    1  0.2820496E-009  0.2302484E+03  0.7561462E-02  0.1126465E+00
         -1   -1    0    0    0  501 -0.00000000000E+00  0.00000000000E+00  0.22481823288E+03  0.22481823288E+03  0.00000000000E+00 0.  1.
          1   -1    0    0  501    0  0.00000000000E+00 -0.00000000000E+00 -0.32338100390E+03  0.32338100390E+03  0.00000000000E+00 0. -1.
         25    2    1    2    0    0  0.13888545235E+03  0.16539104834E+03 -0.16016944155E+03  0.29655534497E+03  0.12508978727E+03 0.  0.
          5    1    3    3  502    0  0.23584503052E+01  0.20331301933E+01 -0.61754371076E+02  0.61973951409E+02  0.41800000000E+01 0. -1.
         -5    1    3    3    0  502  0.13652700204E+03  0.16335791815E+03 -0.98415070472E+02  0.23458139356E+03  0.41800000000E+01 0. -1.
        -11    1    1    2    0    0 -0.48806519724E+02 -0.14072855337E+03  0.23587030635E+02  0.15080765934E+03  0.00000000000E+00 0. -1.
         11    1    1    2    0    0 -0.90078932621E+02 -0.24662494969E+02  0.38019639892E+02  0.10083623246E+03  0.00000000000E+00 0.  1.
</event>
<event>
 7    1  0.2820496E-009  0.1613975E+03  0.7561462E-02  0.1187128E+00
         -2   -1    0    0    0  501 -0.00000000000E+00  0.00000000000E+00  0.12399622696E+03  0.12399622696E+03  0.00000000000E+00 0.  1.
          2   -1    0    0  501    0  0.00000000000E+00 -0.00000000000E+00 -0.22419782892E+03  0.22419782892E+03  0.00000000000E+00 0. -1.
         25    2    1    2    0    0  0.11056770369E+03 -0.30381476397E+02 -0.65529620591E+02  0.18193953373E+03  0.12513836962E+03 0.  0.
          5    1    3    3  502    0  0.24277511880E+02  0.47424762636E+02 -0.22048338091E+02  0.57810961822E+02  0.41800000000E+01 0.  1.
         -5    1    3    3    0  502  0.86290191814E+02 -0.77806239033E+02 -0.43481282500E+02  0.12412857191E+03  0.41800000000E+01 0.  1.
        -11    1    1    2    0    0 -0.80187287635E+02  0.67717275315E+02 -0.49284573553E+02  0.11595085021E+03  0.00000000000E+00 0.  1.
         11    1    1    2    0    0 -0.30380416060E+02 -0.37335798918E+02  0.14612592188E+02  0.50303671946E+02  0.00000000000E+00 0. -1.
</event>
<event>
 7    1  0.2820496E-009  0.1360264E+03  0.7561462E-02  0.1218778E+00
         -1   -1    0    0    0  501 -0.00000000000E+00  0.00000000000E+00  0.58785205005E+02  0.58785205005E+02  0.00000000000E+00 0.  1.
          1   -1    0    0  501    0  0.00000000000E+00 -0.00000000000E+00 -0.52601465850E+03  0.52601465850E+03  0.00000000000E+00 0. -1.
         25    2    1    2    0    0 -0.97748799494E+02  0.27591367408E+02 -0.40247628672E+03  0.43353180140E+03  0.12508617065E+03 0.  0.
          5    1    3    3  502    0  0.30140478946E+02  0.15624535961E+01 -0.70849270466E+02  0.77123156431E+02  0.41800000000E+01 0. -1.
         -5    1    3    3    0  502 -0.12788927844E+03  0.26028913812E+02 -0.33162701626E+03  0.35640864497E+03  0.41800000000E+01 0. -1.
        -11    1    1    2    0    0  0.80210946813E+02 -0.23194996332E+01 -0.83044377277E+02  0.11547962879E+03  0.00000000000E+00 0. -1.
         11    1    1    2    0    0  0.17537852682E+02 -0.25271867775E+02  0.18291210510E+02  0.35788433319E+02  0.00000000000E+00 0.  1.
</event>
<event>
 7    1  0.2820496E-009  0.1034182E+03  0.7561462E-02  0.1273268E+00
          1   -1    0    0  501    0  0.00000000000E+00  0.00000000000E+00  0.45498488405E+02  0.45498488405E+02  0.00000000000E+00 0. -1.
         -1   -1    0    0    0  501 -0.00000000000E+00 -0.00000000000E+00 -0.32864353086E+03  0.32864353086E+03  0.00000000000E+00 0.  1.
         25    2    1    2    0    0  0.22480967153E+02 -0.49465909810E+02 -0.17122597430E+03  0.21890058986E+03  0.12508742482E+03 0.  0.
          5    1    3    3  502    0 -0.36423638056E+02 -0.11806277849E+02 -0.54041305012E+01  0.38894043661E+02  0.41800000000E+01 0.  1.
         -5    1    3    3    0  502  0.58904605209E+02 -0.37659631962E+02 -0.16582184380E+03  0.18000654620E+03  0.41800000000E+01 0.  1.
        -11    1    1    2    0    0  0.31063199077E+02  0.14117595403E+02 -0.72002737747E+02  0.79678247219E+02  0.00000000000E+00 0.  1.
         11    1    1    2    0    0 -0.53544166230E+02  0.35348314407E+02 -0.39916330411E+02  0.75563182187E+02  0.00000000000E+00 0. -1.
</event>
<event>
 7    1  0.2820496E-009  0.1891497E+03  0.7561462E-02  0.1159231E+00
          2   -1    0    0  501    0  0.00000000000E+00  0.00000000000E+00  0.94201592068E+03  0.94201592068E+03  0.00000000000E+00 0. -1.
         -2   -1    0    0    0  501 -0.00000000000E+00 -0.00000000000E+00 -0.41045353128E+02  0.41045353128E+02  0.00000000000E+00 0.  1.
         25    2    1    2    0    0  0.15581181750E+03  0.45017231791E+02  0.41252457545E+03  0.46057287906E+03  0.12508788089E+03 0.  0.
          5    1    3    3  502    0  0.81051822179E+02  0.80511781213E+02  0.17520600389E+03  0.20920363523E+03  0.41800000000E+01 0.  1.
         -5    1    3    3    0  502  0.74759995316E+02 -0.35494549422E+02  0.23731857156E+03  0.25136924383E+03  0.41800000000E+01 0.  1.
        -11    1    1    2    0    0 -0.42982671250E+02  0.23624581988E+02  0.86959345519E+02  0.99837661606E+02  0.00000000000E+00 0.  1.
         11    1    1    2    0    0 -0.11282914625E+03 -0.68641813779E+02  0.40148664658E+03  0.42265073314E+03  0.00000000000E+00 0. -1.
</event>
<event>
 7    1  0.2820496E-009  0.1687618E+03  0.7561462E-02  0.1179145E+00
         -2   -1    0    0    0  501 -0.00000000000E+00  0.00000000000E+00  0.53044610593E+02  0.53044610593E+02  0.00000000000E+00 0. -1.
          2   -1    0    0  501    0  0.00000000000E+00 -0.00000000000E+00 -0.94258606795E+03  0.94258606795E+03  0.00000000000E+00 0.  1.
         25    2    1    2    0    0 -0.47123429496E+02 -0.15685575034E+03 -0.22397140822E+03  0.30436019691E+03  0.12509034231E+03 0.  0.
          5    1    3    3  502    0 -0.51426160079E+02 -0.80285050810E+02 -0.20366460547E+03  0.22491572476E+03  0.41800000000E+01 0. -1.
         -5    1    3    3    0  502  0.43027305828E+01 -0.76570699529E+02 -0.20306802752E+02  0.79444472148E+02  0.41800000000E+01 0. -1.
        -11    1    1    2    0    0  0.14253465673E+02  0.86020472712E+02 -0.50780811285E+03  0.51523951953E+03  0.00000000000E+00 0.  1.
         11    1    1    2    0    0  0.32869963822E+02  0.70835277627E+02 -0.15776193628E+03  0.17603096210E+03  0.00000000000E+00 0. -1.
</event>
<event>
 6    1  0.2820496E-009  0.7226803E+02  0.7561462E-02  0.1352546E+00
          2   -1    0    0  501    0  0.00000000000E+00  0.00000000000E+00  0.17438845395E+03  0.17438845395E+03  0.00000000000E+00 0. -1.
         -2   -1    0    0    0  501 -0.00000000000E+00 -0.00000000000E+00 -0.82039610732E+02  0.82039610732E+02  0.00000000000E+00 0.  1.
          5    1    1    2  502    0 -0.33609621243E+01  0.47731425310E+01 -0.51322239810E+02  0.51822038315E+02  0.41800000000E+01 0.  1.
         -5    1    1    2    0  502 -0.34513844458E+02  0.15994416267E+02  0.72716098313E+02  0.82171346374E+02  0.41800000000E+01 0.  1.
        -11    1    1    2    0    0 -0.28918333481E+02  0.70700466777E+00  0.14370471979E+02  0.32299850338E+02  0.00000000000E+00 0.  1.
         11    1    1    2    0    0  0.66793140063E+02 -0.21474563466E+02  0.56584512734E+02  0.90134829655E+02  0.00000000000E+00 0. -1.
</event>
<event>
 7    1  0.2820496E-009  0.1153954E+03  0.7561462E-02  0.1250893E+00
         -1   -1    0    0    0  501 -0.00000000000E+00  0.00000000000E+00  0.17317858867E+03  0.17317858867E+03  0.00000000000E+00 0.  1.
          1   -1    0    0  501    0  0.00000000000E+00 -0.00000000000E+00 -0.11863504327E+03  0.11863504327E+03  0.00000000000E+00 0. -1.
         25    2    1    2    0    0  0.89975735764E+02  0.41869694216E+01  0.36245871471E+01  0.15418854609E+03  0.12509119223E+03 0.  0.
          5    1    3    3  502    0  0.81701269161E+02 -0.41231928012E+02 -0.30579300633E+02  0.96580201373E+02  0.41800000000E+01 0. -1.
         -5    1    3    3    0  502  0.82744666028E+01  0.45418897434E+02  0.34203887780E+02  0.57608344716E+02  0.41800000000E+01 0. -1.
        -11    1    1    2    0    0 -0.38393982706E+02 -0.12917267049E+02  0.70873452132E+02  0.81633325996E+02  0.00000000000E+00 0.  1.
         11    1    1    2    0    0 -0.51581753058E+02  0.87302976272E+01 -0.19954493885E+02  0.55991759852E+02  0.00000000000E+00 0. -1.
</event>
<event>
 7    1  0.2820496E-009  0.9369989E+02  0.7561462E-02  0.1294131E+00
          3   -1    0    0  501    0  0.00000000000E+00  0.00000000000E+00  0.18516523642E+03  0.18516523642E+03  0.00000000000E+00 0. -1.
         -3   -1    0    0    0  501 -0.00000000000E+00 -0.00000000000E+00 -0.10861413418E+03  0.10861413418E+03  0.00000000000E+00 0.  1.
         25    2    1    2    0    0  0.42004108766E+02  0.41679353455E+02 -0.27865409518E+02  0.14115979737E+03  0.12509234065E+03 0.  0.
          5    1    3    3  502    0  0.70019055606E+02  0.15730965391E+02  0.24737933116E+02  0.76023477656E+02  0.41800000000E+01 0.  1.
         -5    1    3    3    0  502 -0.28014946840E+02  0.25948388064E+02 -0.52603342634E+02  0.65136319713E+02  0.41800000000E+01 0.  1.
        -11    1    1    2    0    0 -0.11020381135E+02 -0.44635095064E+02  0.11158063774E+03  0.12068131268E+03  0.00000000000E+00 0. -1.
         11    1    1    2    0    0 -0.30983727631E+02  0.29557416095E+01 -0.71641259829E+01  0.31938260558E+02  0.00000000000E+00 0.  1.
</event>
<event>
 7    1  0.2820496E-009  0.1301443E+03  0.7561462E-02  0.1227242E+00
          1   -1    0    0  501    0  0.00000000000E+00  0.00000000000E+00  0.57870846858E+03  0.57870846858E+03  0.00000000000E+00 0. -1.
         -1   -1    0    0    0  501 -0.00000000000E+00 -0.00000000000E+00 -0.41483873441E+02  0.41483873441E+02  0.00000000000E+00 0.  1.
         25    2    1    2    0    0 -0.51752726224E+02  0.70361892639E+02  0.15491257386E+03  0.21742778747E+03  0.12509115323E+03 0.  0.
          5    1    3    3  502    0  0.14612679531E+01  0.90155483283E+02  0.12169207081E+03  0.15151428635E+03  0.41800000000E+01 0.  1.
         -5    1    3    3    0  502 -0.53213994177E+02 -0.19793590644E+02  0.33220503054E+02  0.65913501121E+02  0.41800000000E+01 0.  1.
        -11    1    1    2    0    0  0.70137249478E+02 -0.54765613745E+02  0.35652737843E+03  0.36746466196E+03  0.00000000000E+00 0. -1.
         11    1    1    2    0    0 -0.18384523254E+02 -0.15596278894E+02  0.25784642835E+02  0.35299892588E+02  0.00000000000E+00 0.  1.
</event>
<event>
 7    1  0.2820496E-009  0.8145062E+02  0.7561462E-02  0.1324984E+00
          1   -1    0    0  501    0  0.00000000000E+00  0.00000000000E+00  0.31997660912E+02  0.31997660912E+02  0.00000000000E+00 0. -1.
         -1   -1    0    0    0  501 -0.00000000000E+00 -0.00000000000E+00 -0.49068810157E+03  0.49068810157E+03  0.00000000000E+00 0.  1.
         25    2    1    2    0    0 -0.59249063243E+02  0.14493202644E+02 -0.22509029956E+03  0.26463987394E+03  0.12509242784E+03 0.  0.
          5    1    3    3  502    0 -0.18772463976E+02  0.59501358056E+01 -0.22203825851E+03  0.22294903041E+03  0.41800000000E+01 0. -1.
         -5    1    3    3    0  502 -0.40476599267E+02  0.85430668383E+01 -0.30520410521E+01  0.41690843525E+02  0.41800000000E+01 0. -1.
        -11    1    1    2    0    0  0.79655043347E+02 -0.13223560684E+02 -0.21755584420E+03  0.23205674701E+03  0.00000000000E+00 0. -1.
         11    1    1    2    0    0 -0.20405980103E+02 -0.12696419596E+01 -0.16044296891E+02  0.25989141529E+02  0.00000000000E+00 0.  1.
</event>
<event>
 7    1  0.2820496E-009  0.1090713E+03  0.7561462E-02  0.1262299E+00
         -1   -1    0    0    0  501 -0.00000000000E+00  0.00000000000E+00  0.21355482098E+02  0.21355482098E+02  0.00000000000E+00 0.  1.
          1   -1    0    0  501    0  0.00000000000E+00 -0.00000000000E+00 -0.12246631395E+04  0.12246631395E+04  0.00000000000E+00 0. -1.
         25    2    1    2    0    0  0.76049874071E+02 -0.22924763008E+02 -0.99357414666E+03  0.10045628559E+04  0.12509124040E+03 0.  0.
          5    1    3    3  502    0  0.10405553866E+03 -0.32035260538E+02 -0.89474190793E+03  0.90135141163E+03  0.41800000000E+01 0. -1.
         -5    1    3    3    0  502 -0.28005664591E+02  0.91104975300E+01 -0.98832238732E+02  0.10321144426E+03  0.41800000000E+01 0. -1.
        -11    1    1    2    0    0 -0.37332619814E+02  0.11967933480E+02 -0.19453065630E+03  0.19844176016E+03  0.00000000000E+00 0. -1.
         11    1    1    2    0    0 -0.38717254256E+02  0.10956829528E+02 -0.15202854453E+02  0.43014005556E+02  0.00000000000E+00 0.  1.
</event>
<event>
 7    1  0.2820496E-009  0.8173330E+02  0.7561462E-02  0.1324203E+00
         -1   -1    0    0    0  501 -0.00000000000E+00  0.00000000000E+00  0.55617011642E+02  0.55617011642E+02  0.00000000000E+00 0.  1.
          1   -1    0    0  501    0  0.00000000000E+00 -0.00000000000E+00 -0.33230680645E+03  0.33230680645E+03  0.00000000000E+00 0. -1.
         25    2    1    2    0    0  0.67149414029E+02  0.32163199782E+02 -0.19690994865E+03  0.24487628498E+03  0.12508937542E+03 0.  0.
          5    1    3    3  502    0  0.54359869642E+02  0.83372291199E+00 -0.10695289884E+02  0.55565746167E+02  0.41800000000E+01 0.  1.
         -5    1    3    3    0  502  0.12789544387E+02  0.31329476870E+02 -0.18621465876E+03  0.18931053881E+03  0.41800000000E+01 0.  1.
        -11    1    1    2    0    0 -0.16951235773E+02 -0.45490441012E+01 -0.83796402211E+02  0.85614690445E+02  0.00000000000E+00 0. -1.
         11    1    1    2    0    0 -0.50198178257E+02 -0.27614155681E+02  0.40165560520E+01  0.57432842667E+02  0.00000000000E+00 0.  1.
</event>
<event>
 7    1  0.2820496E-009  0.2763578E+03  0.7561462E-02  0.1097695E+00
         -2   -1    0    0    0  501 -0.00000000000E+00  0.00000000000E+00  0.75548976150E+02  0.75548976150E+02  0.00000000000E+00 0.  1.
          2   -1    0    0  501    0  0.00000000000E+00 -0.00000000000E+00 -0.11357002501E+04  0.11357002501E+04  0.00000000000E+00 0. -1.
         25    2    1    2    0    0  0.24670178203E+03  0.60122785273E+02 -0.34115506391E+03  0.44328654617E+03  0.12505864949E+03 0.  0.
          5    1    3    3  502    0  0.14554181961E+03 -0.28466224639E+02 -0.17151556099E+03  0.22677699897E+03  0.41800000000E+01 0.  1.
         -5    1    3    3    0  502  0.10115996242E+03  0.88589009912E+02 -0.16963950292E+03  0.21650954719E+03  0.41800000000E+01 0.  1.
        -11    1    1    2    0    0 -0.89694840201E+02 -0.68097071107E+02 -0.29682853768E+03  0.31747370952E+03  0.00000000000E+00 0. -1.
         11    1    1    2    0    0 -0.15700694183E+03  0.79742858344E+01 -0.42216767232E+03  0.45048897053E+03  0.00000000000E+00 0.  1.
</event>
<event>
 7    1  0.2820496E-009  0.3219587E+03  0.7561462E-02  0.1074751E+00
         -1   -1    0    0    0  501 -0.00000000000E+00  0.00000000000E+00  0.52956918322E+02  0.52956918322E+02  0.00000000000E+00 0.  1.
          1   -1    0    0  501    0  0.00000000000E+00 -0.00000000000E+00 -0.28623683347E+04  0.28623683347E+04  0.00000000000E+00 0. -1.
         25    2    1    2    0    0  0.25855186608E+02  0.31725395651E+03 -0.21588152725E+04  0.21857373798E+04  0.12508376804E+03 0.  0.
          5    1    3    3  502    0  0.11019464143E+01  0.32657790749E+02 -0.60354412605E+03  0.60444249526E+03  0.41800000000E+01 0. -1.
         -5    1    3    3    0  502  0.24753240193E+02  0.28459616576E+03 -0.15552711465E+04  0.15812948845E+04  0.41800000000E+01 0. -1.
        -11    1    1    2    0    0 -0.47965384319E+02 -0.18150619609E+03 -0.31205349415E+03  0.36417380537E+03  0.00000000000E+00 0.  1.
         11    1    1    2    0    0  0.22110197711E+02 -0.13574776042E+03 -0.33854264971E+03  0.36541406784E+03  0.00000000000E+00 0. -1.
</event>
<event>
 7    1  0.2820496E-009  0.1162820E+03  0.7561462E-02  0.1249360E+00
          1   -1    0    0  501    0  0.00000000000E+00  0.00000000000E+00  0.33229377828E+02  0.33229377828E+02  0.00000000000E+00 0. -1.
         -1   -1    0    0    0  501 -0.00000000000E+00 -0.00000000000E+00 -0.43606043624E+03  0.43606043624E+03  0.00000000000E+00 0.  1.
         25    2    1    2    0    0  0.25587324819E+02 -0.37682456149E+02 -0.18673869876E+03  0.22933291591E+03  0.12509023148E+03 0.  0.
          5    1    3    3  502    0  0.12400980683E+02  0.44847984993E+02 -0.45801074962E+02  0.65424284080E+02  0.41800000000E+01 0.  1.
         -5    1    3    3    0  502  0.13186344136E+02 -0.82530441142E+02 -0.14093762379E+03  0.16390863183E+03  0.41800000000E+01 0.  1.
        -11    1    1    2    0    0  0.33515323519E+02  0.24748805436E+02 -0.65052598738E+02  0.77250377887E+02  0.00000000000E+00 0. -1.
         11    1    1    2    0    0 -0.59102648338E+02  0.12933650713E+02 -0.15103976092E+03  0.16270652027E+03  0.00000000000E+00 0.  1.
</event>
<event>
 7    1  0.2820496E-009  0.1024078E+03  0.7561462E-02  0.1275313E+00
          2   -1    0    0  501    0  0.00000000000E+00  0.00000000000E+00  0.45269625341E+03  0.45269625341E+03  0.00000000000E+00 0. -1.
         -2   -1    0    0    0  501 -0.00000000000E+00 -0.00000000000E+00 -0.42590303537E+02  0.42590303537E+02  0.00000000000E+00 0.  1.
         25    2    1    2    0    0 -0.48594318759E+02 -0.18730820612E+02  0.34729807550E+03  0.37279503024E+03  0.12509168583E+03 0.  0.
          5    1    3    3  502    0  0.24557755164E+02  0.19034321587E+01  0.23966835235E+03  0.24096700585E+03  0.41800000000E+01 0.  1.
         -5    1    3    3    0  502 -0.73152073923E+02 -0.20634252770E+02  0.10762972316E+03  0.13182802439E+03  0.41800000000E+01 0.  1.
        -11    1    1    2    0    0 -0.71747728863E+01  0.42489922887E+02  0.16238888980E+02  0.46049673487E+02  0.00000000000E+00 0.  1.
         11    1    1    2    0    0  0.55769091645E+02 -0.23759102276E+02  0.46568985387E+02  0.76441853221E+02  0.00000000000E+00 0. -1.
</event>
<event>
 7    1  0.2820496E-009  0.1091068E+03  0.7561462E-02  0.1262233E+00
          3   -1    0    0  501    0  0.00000000000E+00  0.00000000000E+00  0.11834307714E+03  0.11834307714E+03  0.00000000000E+00 0. -1.
         -3   -1    0    0    0  501 -0.00000000000E+00 -0.00000000000E+00 -0.13386157051E+03  0.13386157051E+03  0.00000000000E+00 0.  1.
         25    2    1    2    0    0  0.38486729935E+02 -0.38561677662E+02 -0.39456936559E+02  0.14203078763E+03  0.12509062086E+03 0.  0.
          5    1    3    3  502    0  0.76457353393E+02  0.23879016811E+01 -0.61074355604E+01  0.76851819311E+02  0.41800000000E+01 0.  1.
         -5    1    3    3    0  502 -0.37970623459E+02 -0.40949579343E+02 -0.33349500998E+02  0.65178968319E+02  0.41800000000E+01 0.  1.
        -11    1    1    2    0    0 -0.27668758345E+02 -0.14647087596E+02  0.42505014517E+02  0.52789900762E+02  0.00000000000E+00 0. -1.
         11    1    1    2    0    0 -0.10817971589E+02  0.53208765259E+02 -0.18566571324E+02  0.57383959260E+02  0.00000000000E+00 0.  1.
</event>
<event>
 7    1  0.2820496E-009  0.1213682E+03  0.7561462E-02  0.1240857E+00
          2   -1    0    0  501    0  0.00000000000E+00  0.00000000000E+00  0.67768976734E+03  0.67768976734E+03  0.00000000000E+00 0.  1.
         -2   -1    0    0    0  501 -0.00000000000E+00 -0.00000000000E+00 -0.10838185354E+03  0.10838185354E+03  0.00000000000E+00 0. -1.
         25    2    1    2    0    0  0.46999464991E+02 -0.73034525049E+02  0.63092791220E+03  0.64904550899E+03  0.12508817206E+03 0.  0.
          5    1    3    3  502    0 -0.14091435550E+02 -0.69380661575E+02  0.17217353320E+03  0.18620806290E+03  0.41800000000E+01 0. -1.
         -5    1    3    3    0  502  0.61090900541E+02 -0.36538634747E+01  0.45875437900E+03  0.46283744609E+03  0.41800000000E+01 0. -1.
        -11    1    1    2    0    0 -0.11866916659E+02 -0.12964010645E+02  0.95474852943E+01  0.20001093932E+02  0.00000000000E+00 0.  1.
         11    1    1    2    0    0 -0.35132548332E+02  0.85998535695E+02 -0.71167483692E+02  0.11702501796E+03  0.00000000000E+00 0. -1.
</event>
<event>
 7    1  0.2820496E-009  0.1166928E+03  0.7561462E-02  0.1248655E+00
         -2   -1    0    0    0  501 -0.00000000000E+00  0.00000000000E+00  0.42835527390E+02  0.42835527390E+02  0.00000000000E+00 0.  1.
          2   -1    0    0  501    0  0.00000000000E+00 -0.00000000000E+00 -0.51112216039E+03  0.51112216039E+03  0.00000000000E+00 0. -1.
         25    2    1    2    0    0  0.73617521641E+02  0.70751457610E+02 -0.24200441080E+03  0.29092765567E+03  0.12508979870E+03 0.  0.
          5    1    3    3  502    0  0.18445480364E+02  0.39298831168E+02 -0.31360616659E+01  0.43725749391E+02  0.41800000000E+01 0. -1.
         -5    1    3    3    0  502  0.55172041277E+02  0.31452626442E+02 -0.23886834914E+03  0.24720190628E+03  0.41800000000E+01 0. -1.
        -11    1    1    2    0    0 -0.19976381976E+02  0.14999557384E+02 -0.89447043151E+02  0.92869887945E+02  0.00000000000E+00 0. -1.
         11    1    1    2    0    0 -0.53641139665E+02 -0.85751014994E+02 -0.13683517905E+03  0.17016014417E+03  0.00000000000E+00 0.  1.
</event>
<event>
 7    1  0.2820496E-009  0.1894577E+03  0.7561462E-02  0.1158951E+00
         -1   -1    0    0    0  501 -0.00000000000E+00  0.00000000000E+00  0.12025933361E+03  0.12025933361E+03  0.00000000000E+00 0.  1.
          1   -1    0    0  501    0  0.00000000000E+00 -0.00000000000E+00 -0.36770481068E+03  0.36770481068E+03  0.00000000000E+00 0. -1.
         25    2    1    2    0    0  0.45187509664E+02  0.16130099069E+03 -0.20233517840E+03  0.29094181950E+03  0.12509075621E+03 0.  0.
          5    1    3    3  502    0  0.61484185044E+02  0.16133491390E+03 -0.12863450449E+03  0.21534522887E+03  0.41800000000E+01 0.  1.
         -5    1    3    3    0  502 -0.16296675380E+02 -0.33923211325E-01 -0.73700673912E+02  0.75596590626E+02  0.41800000000E+01 0.  1.
        -11    1    1    2    0    0 -0.70715603352E+00 -0.14011873394E+03 -0.19419873084E+02  0.14145985699E+03  0.00000000000E+00 0.  1.
         11    1    1    2    0    0 -0.44480353630E+02 -0.21182256753E+02 -0.25690425590E+02  0.55562467793E+02  0.00000000000E+00 0. -1.
</event>
<event>
 7    1  0.2820496E-009  0.1053565E+03  0.7561462E-02  0.1269419E+00
          3   -1    0    0  501    0  0.00000000000E+00  0.00000000000E+00  0.23324105875E+02  0.23324105875E+02  0.00000000000E+00 0. -1.
         -3   -1    0    0    0  501 -0.00000000000E+00 -0.00000000000E+00 -0.11986878897E+04  0.11986878897E+04  0.00000000000E+00 0.  1.
         25    2    1    2    0    0  0.24121511592E+00 -0.78613657210E+02 -0.98845979673E+03  0.99943935676E+03  0.12508434273E+03 0.  0.
          5    1    3    3  502    0  0.26866964925E+02 -0.73699980872E+01 -0.46240655593E+02  0.54146295401E+02  0.41800000000E+01 0.  1.
         -5    1    3    3    0  502 -0.26625749809E+02 -0.71243659123E+02 -0.94221914114E+03  0.94529306135E+03  0.41800000000E+01 0.  1.
        -11    1    1    2    0    0 -0.67310855185E+01  0.91602989279E+02 -0.18667779204E+03  0.20805050637E+03  0.00000000000E+00 0.  1.
         11    1    1    2    0    0  0.64898704026E+01 -0.12989332069E+02 -0.22619500333E+00  0.14522132406E+02  0.00000000000E+00 0. -1.
</event>
<event>
 7    1  0.2820496E-009  0.1452456E+03  0.7561462E-02  0.1206440E+00
          2   -1    0    0  501    0  0.00000000000E+00  0.00000000000E+00  0.45946321268E+03  0.45946321268E+03  0.00000000000E+00 0. -1.
         -2   -1    0    0    0  501 -0.00000000000E+00 -0.00000000000E+00 -0.76826417815E+02  0.76826417815E+02  0.00000000000E+00 0.  1.
         25    2    1    2    0    0 -0.73258036883E+02  0.73759677868E+02  0.40639542019E+02  0.16764949411E+03  0.12509016930E+03 0.  0.
          5    1    3    3  502    0 -0.21288368414E+02 -0.35476585313E+02  0.91350855508E+01  0.42575872548E+02  0.41800000000E+01 0. -1.
         -5    1    3    3    0  502 -0.51969668468E+02  0.10923626318E+03  0.31504456468E+02  0.12507362157E+03  0.41800000000E+01 0. -1.
        -11    1    1    2    0    0 -0.11116475534E+02 -0.31693639614E+02  0.39800917397E+02  0.52078554568E+02  0.00000000000E+00 0.  1.
         11    1    1    2    0    0  0.84374512417E+02 -0.42066038254E+02  0.30219633545E+03  0.31656158181E+03  0.00000000000E+00 0. -1.
</event>
<event>
 7    1  0.2820496E-009  0.8083219E+02  0.7561462E-02  0.1326706E+00
         -2   -1    0    0    0  501 -0.00000000000E+00  0.00000000000E+00  0.47648483452E+03  0.47648483452E+03  0.00000000000E+00 0.  1.
          2   -1    0    0  501    0  0.00000000000E+00 -0.00000000000E+00 -0.47674299076E+02  0.47674299076E+02  0.00000000000E+00 0. -1.
         25    2    1    2    0    0 -0.25321915192E+02 -0.67336067952E+02  0.10023769034E+03  0.17569872618E+03  0.12508837827E+03 0.  0.
          5    1    3    3  502    0  0.16801134405E+01  0.67242183106E+01  0.96322325731E+02  0.96661785248E+02  0.41800000000E+01 0.  1.
         -5    1    3    3    0  502 -0.27002028633E+02 -0.74060286263E+02  0.39153646109E+01  0.79036940931E+02  0.41800000000E+01 0.  1.
        -11    1    1    2    0    0 -0.29737008537E+01  0.13366866998E+02 -0.58822643755E+00  0.13706277410E+02  0.00000000000E+00 0. -1.
         11    1    1    2    0    0  0.28295616046E+02  0.53969200954E+02  0.32916107155E+03  0.33475413001E+03  0.00000000000E+00 0.  1.
</event>
<event>
 7    1  0.2820496E-009  0.1419375E+03  0.7561462E-02  0.1210745E+00
          1   -1    0    0  501    0  0.00000000000E+00  0.00000000000E+00  0.34203264837E+03  0.34203264837E+03  0.00000000000E+00 0. -1.
         -1   -1    0    0    0  501 -0.00000000000E+00 -0.00000000000E+00 -0.82177235399E+02  0.82177235399E+02  0.00000000000E+00 0.  1.
         25    2    1    2    0    0 -0.12604007474E+03 -0.14692204950E+02  0.14715003553E+03  0.23109240030E+03  0.12509437714E+03 0.  0.
          5    1    3    3  502    0 -0.12759257043E+03 -0.19176921771E+01  0.56808736654E+02  0.13974350265E+03  0.41800000000E+01 0.  1.
         -5    1    3    3    0  502  0.15524956886E+01 -0.12774512773E+02  0.90341298875E+02  0.91348897650E+02  0.41800000000E+01 0.  1.
        -11    1    1    2    0    0  0.57786358340E+02  0.39555555520E+02  0.95574229946E+02  0.11848349511E+03  0.00000000000E+00 0. -1.
         11    1    1    2    0    0  0.68253716401E+02 -0.24863350569E+02  0.17131147491E+02  0.74633988360E+02  0.00000000000E+00 0.  1.
</event>
<event>
 7    1  0.2820496E-009  0.1283019E+03  0.7561462E-02  0.1229997E+00
         -2   -1    0    0    0  501 -0.00000000000E+00  0.00000000000E+00  0.25183145893E+03  0.25183145893E+03  0.00000000000E+00 0. -1.
          2   -1    0    0  501    0  0.00000000000E+00 -0.00000000000E+00 -0.80702115270E+02  0.80702115270E+02  0.00000000000E+00 0.  1.
         25    2    1    2    0    0 -0.24518867200E+02  0.78643325098E+02  0.14320947837E+03  0.20722629755E+03  0.12509131173E+03 0.  0.
          5    1    3    3  502    0  0.36678714764E+02  0.59868969331E+02  0.11983483026E+03  0.13895136037E+03  0.41800000000E+01 0. -1.
         -5    1    3    3    0  502 -0.61197581964E+02  0.18774355767E+02  0.23374648112E+02  0.68274937181E+02  0.41800000000E+01 0. -1.
        -11    1    1    2    0    0  0.23626077068E+02  0.15315598831E+02  0.51235092067E+01  0.28618340828E+02  0.00000000000E+00 0.  1.
         11    1    1    2    0    0  0.89279013191E+00 -0.93958923928E+02  0.22796356085E+02  0.96688935824E+02  0.00000000000E+00 0. -1.
</event>
<event>
 7    1  0.2820496E-009  0.1446614E+03  0.7561462E-02  0.1207191E+00
         -1   -1    0    0    0  501 -0.00000000000E+00  0.00000000000E+00  0.23009045812E+03  0.23009045812E+03  0.00000000000E+00 0.  1.
          1   -1    0    0  501    0  0.00000000000E+00 -0.00000000000E+00 -0.97841503507E+02  0.97841503507E+02  0.00000000000E+00 0. -1.
         25    2    1    2    0    0  0.10197522700E+03 -0.41754147283E+00  0.98916523224E+02  0.18929032841E+03  0.12508888281E+03 0.  0.
          5    1    3    3  502    0  0.19692043236E+02  0.53771833903E+02  0.13865921623E+02  0.59067104809E+02  0.41800000000E+01 0. -1.
         -5    1    3    3    0  502  0.82283183761E+02 -0.54189375376E+02  0.85050601601E+02  0.13022322361E+03  0.41800000000E+01 0. -1.
        -11    1    1    2    0    0  0.10615162161E+02 -0.16317283674E+02  0.11896178859E+02  0.22813471582E+02  0.00000000000E+00 0.  1.
         11    1    1    2    0    0 -0.11259038916E+03  0.16734825146E+02  0.21436252527E+02  0.11582816163E+03  0.00000000000E+00 0. -1.
</event>
<event>
 7    1  0.2820496E-009  0.6013592E+02  0.7561462E-02  0.1397262E+00
         -1   -1    0    0    0  501 -0.00000000000E+00  0.00000000000E+00  0.96665770165E+02  0.96665770165E+02  0.00000000000E+00 0.  1.
          1   -1    0    0  501    0  0.00000000000E+00 -0.00000000000E+00 -0.14975137044E+03  0.14975137044E+03  0.00000000000E+00 0. -1.
         25    2    1    2    0    0  0.77477247240E+01 -0.11069706150E+02 -0.81036997995E+02  0.14965708809E+03  0.12509070044E+03 0.  0.
          5    1    3    3  502    0  0.35390647192E+02 -0.26967597097E+02  0.15969801585E+02  0.47457941006E+02  0.41800000000E+01 0. -1.
         -5    1    3    3    0  502 -0.27642922468E+02  0.15897890947E+02 -0.97006799580E+02  0.10219914708E+03  0.41800000000E+01 0. -1.
        -11    1    1    2    0    0  0.86385497757E+00  0.26091163479E+02  0.57140692038E+02  0.62821602524E+02  0.00000000000E+00 0.  1.
         11    1    1    2    0    0 -0.86115797016E+01 -0.15021457329E+02 -0.29189294313E+02  0.33938449990E+02  0.00000000000E+00 0. -1.
</event>
<event>
 7    1  0.2820496E-009  0.8689726E+02  0.7561462E-02  0.1310544E+00
         -2   -1    0    0    0  501 -0.00000000000E+00  0.00000000000E+00  0.97479789356E+02  0.97479789356E+02  0.00000000000E+00 0.  1.
          2   -1    0    0  501    0  0.00000000000E+00 -0.00000000000E+00 -0.17150646807E+03  0.17150646807E+03  0.00000000000E+00 0. -1.
         25    2    1    2    0    0  0.10321931055E+02 -0.51890241214E+02 -0.97021880862E+02  0.16691101981E+03  0.12508758441E+03 0.  0.
          5    1    3    3  502    0  0.39892643960E+02  0.17840028734E+02 -0.76708321775E+02  0.88381721509E+02  0.41800000000E+01 0. -1.
         -5    1    3    3    0  502 -0.29570712905E+02 -0.69730269948E+02 -0.20313559087E+02  0.78529298300E+02  0.41800000000E+01 0. -1.
        -11    1    1    2    0    0 -0.12377528935E+02  0.37198724376E+02  0.54568086706E+02  0.67190954781E+02  0.00000000000E+00 0.  1.
         11    1    1    2    0    0  0.20555978807E+01  0.14691516838E+02 -0.31572884554E+02  0.34884282832E+02  0.00000000000E+00 0. -1.
</event>
<event>
 7    1  0.2820496E-009  0.1538884E+03  0.7561462E-02  0.1195775E+00
         -2   -1    0    0    0  501 -0.00000000000E+00  0.00000000000E+00  0.54125863915E+03  0.54125863915E+03  0.00000000000E+00 0.  1.
          2   -1    0    0  501    0  0.00000000000E+00 -0.00000000000E+00 -0.85392395042E+02  0.85392395042E+02  0.00000000000E+00 0. -1.
         25    2    1    2    0    0 -0.12187688447E+03  0.51321028961E+01  0.33341325454E+02  0.17787422163E+03  0.12508909340E+03 0.  0.
          5    1    3    3  502    0 -0.91792556714E+02 -0.55182201027E+02  0.19677074652E+02  0.10897526529E+03  0.41800000000E+01 0. -1.
         -5    1    3    3    0  502 -0.30084327756E+02  0.60314303923E+02  0.13664250802E+02  0.68898956336E+02  0.41800000000E+01 0. -1.
        -11    1    1    2    0    0  0.66655875999E+02  0.23729533464E+02  0.32813137854E+03  0.33567290350E+03  0.00000000000E+00 0.  1.
         11    1    1    2    0    0  0.55221008471E+02 -0.28861636360E+02  0.94393540113E+02  0.11310390906E+03  0.00000000000E+00 0. -1.
</event>
<event>
 7    1  0.2820496E-009  0.9225209E+02  0.7561462E-02  0.1297488E+00
         -1   -1    0    0    0  501 -0.00000000000E+00  0.00000000000E+00  0.61746104480E+02  0.61746104480E+02  0.00000000000E+00 0.  1.
          1   -1    0    0  501    0  0.00000000000E+00 -0.00000000000E+00 -0.23853486458E+03  0.23853486458E+03  0.00000000000E+00 0. -1.
         25    2    1    2    0    0  0.30371697371E+02 -0.53169519490E+01 -0.15603568133E+03  0.20235102290E+03  0.12509233646E+03 0.  0.
          5    1    3    3  502    0 -0.10321063666E+02  0.53683370215E+02 -0.86441156730E+02  0.10236197814E+03  0.41800000000E+01 0. -1.
         -5    1    3    3    0  502  0.40692761037E+02 -0.59000322164E+02 -0.69594524598E+02  0.99989044752E+02  0.41800000000E+01 0. -1.
        -11    1    1    2    0    0 -0.12533737959E+02  0.27023209721E+02  0.28500543635E+02  0.41226562291E+02  0.00000000000E+00 0.  1.
         11    1    1    2    0    0 -0.17837959412E+02 -0.21706257772E+02 -0.49253622405E+02  0.56703383871E+02  0.00000000000E+00 0. -1.
</event>
<event>
 7    1  0.2820496E-009  0.9434076E+02  0.7561462E-02  0.1292668E+00
          4   -1    0    0  501    0  0.00000000000E+00  0.00000000000E+00  0.28246825389E+03  0.28246825389E+03  0.00000000000E+00 0.  1.
         -4   -1    0    0    0  501 -0.00000000000E+00 -0.00000000000E+00 -0.68351231317E+02  0.68351231317E+02  0.00000000000E+00 0. -1.
         25    2    1    2    0    0  0.77249391735E+02  0.30702696047E+02  0.15235144885E+03  0.21393528909E+03  0.12508884795E+03 0.  0.
          5    1    3    3  502    0  0.24827651333E+02  0.19173252030E+02 -0.17216149003E+02  0.36026296654E+02  0.41800000000E+01 0.  1.
         -5    1    3    3    0  502  0.52421740402E+02  0.11529444017E+02  0.16956759786E+03  0.17790899243E+03  0.41800000000E+01 0.  1.
        -11    1    1    2    0    0  0.41272868751E-01 -0.25748610013E+02  0.53021404298E+02  0.58942870093E+02  0.00000000000E+00 0.  1.
         11    1    1    2    0    0 -0.77290664603E+02 -0.49540860337E+01  0.87441694171E+01  0.77941326022E+02  0.00000000000E+00 0. -1.
</event>
<event>
 7    1  0.3411993E-009  0.8681878E+02  0.7561462E-02  0.1310744E+00
          1   -1    0    0  501    0  0.00000000000E+00  0.00000000000E+00  0.31229762793E+02  0.31229762793E+02  0.00000000000E+00 0. -1.
         -1   -1    0    0    0  501 -0.00000000000E+00 -0.00000000000E+00 -0.50930626113E+03  0.50930626113E+03  0.00000000000E+00 0.  1.
         25    2    1    2    0    0  0.27087936395E+02 -0.66530770288E+00 -0.39085973670E+03  0.41128349075E+03  0.12509427267E+03 0.  0.
          5    1    3    3  502    0  0.39713300406E+01  0.60291654867E+02 -0.15119464316E+03  0.16287463777E+03  0.41800000000E+01 0. -1.
         -5    1    3    3    0  502  0.23116606355E+02 -0.60956962570E+02 -0.23966509354E+03  0.24840885298E+03  0.41800000000E+01 0. -1.
        -11    1    1    2    0    0 -0.36852293714E+02 -0.37209564025E+01 -0.10340873490E+03  0.10984217551E+03  0.00000000000E+00 0.  1.
         11    1    1    2    0    0  0.97643573181E+01  0.43862641054E+01  0.16191973259E+02  0.19410357664E+02  0.00000000000E+00 0. -1.
</event>
<event>
 7    1  0.2820496E-009  0.9982089E+02  0.7561462E-02  0.1280673E+00
         -2   -1    0    0    0  501 -0.00000000000E+00  0.00000000000E+00  0.84448448906E+02  0.84448448906E+02  0.00000000000E+00 0.  1.
          2   -1    0    0  501    0  0.00000000000E+00 -0.00000000000E+00 -0.18325164742E+03  0.18325164742E+03  0.00000000000E+00 0. -1.
         25    2    1    2    0    0 -0.87405624221E+01  0.13584436028E+02 -0.12351409856E+03  0.17653602088E+03  0.12509316445E+03 0.  0.
          5    1    3    3  502    0 -0.17480942364E+02 -0.52045655714E+02 -0.80287657819E+02  0.97354578848E+02  0.41800000000E+01 0. -1.
         -5    1    3    3    0  502  0.87403799415E+01  0.65630091743E+02 -0.43226440738E+02  0.79181442034E+02  0.41800000000E+01 0. -1.
        -11    1    1    2    0    0  0.13523609291E+02  0.30778518502E+02 -0.95037610361E+01  0.34936037029E+02  0.00000000000E+00 0.  1.
         11    1    1    2    0    0 -0.47830468690E+01 -0.44362954531E+02  0.34214661074E+02  0.56228038419E+02  0.00000000000E+00 0. -1.
</event>
<event>
 7    1  0.2820496E-009  0.9715217E+02  0.7561462E-02  0.1286401E+00
          2   -1    0    0  501    0  0.00000000000E+00  0.00000000000E+00  0.12270255789E+04  0.12270255789E+04  0.00000000000E+00 0.  1.
         -2   -1    0    0    0  501 -0.00000000000E+00 -0.00000000000E+00 -0.48427647811E+02  0.48427647811E+02  0.00000000000E+00 0. -1.
         25    2    1    2    0    0  0.50436963340E+02  0.58924683025E+01  0.11501892984E+04  0.11580853845E+04  0.12509087566E+03 0.  0.
          5    1    3    3  502    0 -0.67442775222E+01  0.43410987587E+02  0.80229783994E+03  0.80351060696E+03  0.41800000000E+01 0. -1.
         -5    1    3    3    0  502  0.57181240862E+02 -0.37518519284E+02  0.34789145848E+03  0.35457477755E+03  0.41800000000E+01 0. -1.
        -11    1    1    2    0    0 -0.58200678457E+02  0.14376960561E+02 -0.20903627277E+02  0.63489980321E+02  0.00000000000E+00 0. -1.
         11    1    1    2    0    0  0.77637151168E+01 -0.20269428863E+02  0.49312259914E+02  0.53877861842E+02  0.00000000000E+00 0.  1.
</event>
<event>
 7    1  0.2820496E-009  0.1188162E+03  0.7561462E-02  0.1245063E+00
          2   -1    0    0  501    0  0.00000000000E+00  0.00000000000E+00  0.18654675430E+03  0.18654675430E+03  0.00000000000E+00 0.  1.
         -2   -1    0    0    0  501 -0.00000000000E+00 -0.00000000000E+00 -0.85355165462E+02  0.85355165462E+02  0.00000000000E+00 0. -1.
         25    2    1    2    0    0 -0.44341843951E+02  0.38390050234E+02  0.82931947793E+02  0.16113532930E+03  0.12508753455E+03 0.  0.
          5    1    3    3  502    0 -0.79134269489E+02  0.50253888888E+02  0.81211996726E+02  0.12409893943E+03  0.41800000000E+01 0. -1.
         -5    1    3    3    0  502  0.34792425538E+02 -0.11863838655E+02  0.17199510672E+01  0.37036389864E+02  0.41800000000E+01 0. -1.
        -11    1    1    2    0    0  0.54075326699E+02  0.12073228519E+02  0.21115438252E+02  0.59293891229E+02  0.00000000000E+00 0.  1.
         11    1    1    2    0    0 -0.97334827474E+01 -0.50463278753E+02 -0.28557972092E+01  0.51472699236E+02  0.00000000000E+00 0. -1.
</event>
<event>
 7    1  0.2820496E-009  0.8111841E+02  0.7561462E-02  0.1325907E+00
          2   -1    0    0  501    0  0.00000000000E+00  0.00000000000E+00  0.34296601403E+03  0.34296601403E+03  0.00000000000E+00 0. -1.
         -2   -1    0    0    0  501 -0.00000000000E+00 -0.00000000000E+00 -0.57827813527E+02  0.57827813527E+02  0.00000000000E+00 0.  1.
         25    2    1    2    0    0  0.38705515850E+02  0.14424346040E+02  0.26828421820E+03  0.29887662065E+03  0.12507851102E+03 0.  0.
          5    1    3    3  502    0 -0.36577275370E+02 -0.12286339824E+02  0.35008956250E+02  0.52268065178E+02  0.41800000000E+01 0.  1.
         -5    1    3    3    0  502  0.75282791220E+02  0.26710685864E+02  0.23327526195E+03  0.24660855547E+03  0.41800000000E+01 0.  1.
        -11    1    1    2    0    0 -0.24686552796E+02 -0.21113087364E+01 -0.37221156768E+02  0.44713510539E+02  0.00000000000E+00 0.  1.
         11    1    1    2    0    0 -0.14018963053E+02 -0.12313037304E+02  0.54075139074E+02  0.57203696372E+02  0.00000000000E+00 0. -1.
</event>
<event>
 7    1  0.2820496E-009  0.1137100E+03  0.7561462E-02  0.1253850E+00
         -1   -1    0    0    0  501 -0.00000000000E+00  0.00000000000E+00  0.55231673225E+02  0.55231673225E+02  0.00000000000E+00 0.  1.
          1   -1    0    0  501    0  0.00000000000E+00 -0.00000000000E+00 -0.30491744615E+03  0.30491744615E+03  0.00000000000E+00 0. -1.
         25    2    1    2    0    0 -0.35674454173E+02  0.52733151681E+02 -0.98090913456E+02  0.17123869794E+03  0.12508961749E+03 0.  0.
          5    1    3    3  502    0  0.21699172149E+02  0.54528452095E+02 -0.15649935818E+01  0.58856841274E+02  0.41800000000E+01 0.  1.
         -5    1    3    3    0  502 -0.57373626322E+02 -0.17953004140E+01 -0.96525919874E+02  0.11238185667E+03  0.41800000000E+01 0.  1.
        -11    1    1    2    0    0 -0.24461023733E+02 -0.43892530652E+02 -0.85050541141E+02  0.98785072139E+02  0.00000000000E+00 0.  1.
         11    1    1    2    0    0  0.60135477907E+02 -0.88406210290E+01 -0.66544318329E+02  0.90125349293E+02  0.00000000000E+00 0. -1.
</event>
<event>
 7    1  0.2820496E-009  0.6247675E+02  0.7561462E-02  0.1387722E+00
         -3   -1    0    0    0  501 -0.00000000000E+00  0.00000000000E+00  0.47190019293E+03  0.47190019293E+03  0.00000000000E+00 0.  1.
          3   -1    0    0  501    0  0.00000000000E+00 -0.00000000000E+00 -0.25086701260E+02  0.25086701260E+02  0.00000000000E+00 0. -1.
         25    2    1    2    0    0 -0.21443566310E+02  0.23441810233E+02  0.25777027721E+03  0.28827465947E+03  0.12508964176E+03 0.  0.
          5    1    3    3  502    0 -0.17268408158E+02  0.35600272508E+02  0.26824107933E+03  0.27117582186E+03  0.41800000000E+01 0. -1.
         -5    1    3    3    0  502 -0.41751581525E+01 -0.12158462275E+02 -0.10470802118E+02  0.17098837606E+02  0.41800000000E+01 0. -1.
        -11    1    1    2    0    0  0.29949919582E+02 -0.41795788003E+02  0.17878190658E+03  0.18602917970E+03  0.00000000000E+00 0.  1.
         11    1    1    2    0    0 -0.85063532723E+01  0.18353977769E+02  0.10261307878E+02  0.22683055026E+02  0.00000000000E+00 0. -1.
</event>
<event>
 7    1  0.2820496E-009  0.1302720E+03  0.7561462E-02  0.1227053E+00
         -2   -1    0    0    0  501 -0.00000000000E+00  0.00000000000E+00  0.93380654752E+02  0.93380654752E+02  0.00000000000E+00 0.  1.
          2   -1    0    0  501    0  0.00000000000E+00 -0.00000000000E+00 -0.20161274574E+03  0.20161274574E+03  0.00000000000E+00 0. -1.
         25    2    1    2    0    0  0.47956652801E+02  0.68727111081E+02 -0.57452044216E+02  0.16114654707E+03  0.12507683999E+03 0.  0.
          5    1    3    3  502    0 -0.45078267441E+01  0.91206946001E+02 -0.47633601820E+02  0.10307987157E+03  0.41800000000E+01 0.  1.
         -5    1    3    3    0  502  0.52464479545E+02 -0.22479834919E+02 -0.98184423966E+01  0.58066675495E+02  0.41800000000E+01 0.  1.
        -11    1    1    2    0    0  0.19508643435E+02 -0.24115519806E+02 -0.42397066818E+02  0.52532435114E+02  0.00000000000E+00 0. -1.
         11    1    1    2    0    0 -0.67465296236E+02 -0.44611591275E+02 -0.83829799517E+01  0.81314418310E+02  0.00000000000E+00 0.  1.
</event>
<event>
 7    1  0.2820496E-009  0.1363212E+03  0.7561462E-02  0.1218367E+00
          4   -1    0    0  501    0  0.00000000000E+00  0.00000000000E+00  0.28258097336E+02  0.28258097336E+02  0.00000000000E+00 0. -1.
         -4   -1    0    0    0  501 -0.00000000000E+00 -0.00000000000E+00 -0.84489653521E+03  0.84489653521E+03  0.00000000000E+00 0.  1.
         25    2    1    2    0    0  0.20260567170E+02  0.10835303922E+03 -0.49808990424E+03  0.52525420385E+03  0.12509018454E+03 0.  0.
          5    1    3    3  502    0 -0.32768858600E+02  0.23062533616E+02 -0.41923321133E+02  0.58143923204E+02  0.41800000000E+01 0.  1.
         -5    1    3    3    0  502  0.53029425770E+02  0.85290505607E+02 -0.45616658310E+03  0.46711028064E+03  0.41800000000E+01 0.  1.
        -11    1    1    2    0    0  0.26522780296E+02 -0.53702416806E+02 -0.88476351683E+02  0.10684321341E+03  0.00000000000E+00 0. -1.
         11    1    1    2    0    0 -0.46783347466E+02 -0.54650622417E+02 -0.23007218195E+03  0.24105721528E+03  0.00000000000E+00 0.  1.
</event>
<event>
 7    1  0.2820496E-009  0.1907828E+03  0.7561462E-02  0.1157757E+00
         -3   -1    0    0    0  501 -0.00000000000E+00  0.00000000000E+00  0.11528646540E+04  0.11528646540E+04  0.00000000000E+00 0.  1.
          3   -1    0    0  501    0  0.00000000000E+00 -0.00000000000E+00 -0.47410625028E+02  0.47410625028E+02  0.00000000000E+00 0. -1.
         25    2    1    2    0    0 -0.14081613455E+03  0.11924157190E+03  0.33896365951E+03  0.40569774375E+03  0.12508621266E+03 0.  0.
          5    1    3    3  502    0 -0.12724694498E+03  0.11360730744E+03  0.18771057933E+03  0.25367526348E+03  0.41800000000E+01 0. -1.
         -5    1    3    3    0  502 -0.13569189563E+02  0.56342644599E+01  0.15125308019E+03  0.15202248027E+03  0.41800000000E+01 0. -1.
        -11    1    1    2    0    0  0.43059932860E+02 -0.78936141844E+02  0.21505809788E+03  0.23309881546E+03  0.00000000000E+00 0. -1.
         11    1    1    2    0    0  0.97756201687E+02 -0.40305430059E+02  0.55143227158E+03  0.56147871981E+03  0.00000000000E+00 0.  1.
</event>
<event>
 7    1  0.2820496E-009  0.9204183E+02  0.7561462E-02  0.1297981E+00
          4   -1    0    0  501    0  0.00000000000E+00  0.00000000000E+00  0.98869836460E+02  0.98869836460E+02  0.00000000000E+00 0. -1.
         -4   -1    0    0    0  501 -0.00000000000E+00 -0.00000000000E+00 -0.29119662616E+03  0.29119662616E+03  0.00000000000E+00 0.  1.
         25    2    1    2    0    0 -0.36017982463E+02  0.45922628216E+02  0.29905041667E+02  0.14123871871E+03  0.12509149173E+03 0.  0.
          5    1    3    3  502    0  0.28543194645E+02  0.44539211161E+02 -0.22823303412E+02  0.57765308534E+02  0.41800000000E+01 0. -1.
         -5    1    3    3    0  502 -0.64561177107E+02  0.13834170548E+01  0.52728345079E+02  0.83473410179E+02  0.41800000000E+01 0. -1.
        -11    1    1    2    0    0  0.19019280156E+02 -0.18967539986E+01  0.24255539670E+01  0.19266914788E+02  0.00000000000E+00 0. -1.
         11    1    1    2    0    0  0.16998702307E+02 -0.44025874218E+02 -0.22465738534E+03  0.22956082912E+03  0.00000000000E+00 0.  1.
</event>
<event>
 7    1  0.2820496E-009  0.1645811E+03  0.7561462E-02  0.1183620E+00
         -2   -1    0    0    0  501 -0.00000000000E+00  0.00000000000E+00  0.74926796442E+02  0.74926796442E+02  0.00000000000E+00 0.  1.
          2   -1    0    0  501    0  0.00000000000E+00 -0.00000000000E+00 -0.40366386162E+03  0.40366386162E+03  0.00000000000E+00 0. -1.
         25    2    1    2    0    0 -0.21177163900E+02 -0.12183781593E+03 -0.24543860886E+03  0.30196405755E+03  0.12509698505E+03 0.  0.
          5    1    3    3  502    0  0.29678249694E+02 -0.11874604661E+03 -0.14953336234E+03  0.19328507688E+03  0.41800000000E+01 0.  1.
         -5    1    3    3    0  502 -0.50855413594E+02 -0.30917693208E+01 -0.95905246521E+02  0.10867898067E+03  0.41800000000E+01 0.  1.
        -11    1    1    2    0    0  0.30010543350E+02  0.13578543651E+03 -0.71770894194E+02  0.15649082636E+03  0.00000000000E+00 0.  1.
         11    1    1    2    0    0 -0.88333794499E+01 -0.13947620580E+02 -0.11527562126E+02  0.20135774157E+02  0.00000000000E+00 0. -1.
</event>
<event>
 7    1  0.2820496E-009  0.3007669E+03  0.7561462E-02  0.1084858E+00
          2   -1    0    0  501    0  0.00000000000E+00  0.00000000000E+00  0.34477284801E+04  0.34477284801E+04  0.00000000000E+00 0. -1.
         -2   -1    0    0    0  501 -0.00000000000E+00 -0.00000000000E+00 -0.61775048501E+02  0.61775048501E+02  0.00000000000E+00 0.  1.
         25    2    1    2    0    0  0.26554918205E+03  0.10218289278E+03  0.30232731040E+04  0.30392080894E+04  0.12509131719E+03 0.  0.
          5    1    3    3  502    0  0.17081253136E+03  0.12666411409E+03  0.20208661897E+04  0.20320281366E+04  0.41800000000E+01 0.  1.
         -5    1    3    3    0  502  0.94736650690E+02 -0.24481221306E+02  0.10024069142E+04  0.10071799528E+04  0.41800000000E+01 0.  1.
        -11    1    1    2    0    0 -0.14201721706E+03 -0.22208401654E+02  0.23495101812E+03  0.27543435509E+03  0.00000000000E+00 0. -1.
         11    1    1    2    0    0 -0.12353196499E+03 -0.79974491126E+02  0.12772930950E+03  0.19486108413E+03  0.00000000000E+00 0.  1.
</event>
<event>
 7    1  0.2820496E-009  0.2069702E+03  0.7561462E-02  0.1143988E+00
         -1   -1    0    0    0  501 -0.00000000000E+00  0.00000000000E+00  0.12394370430E+03  0.12394370430E+03  0.00000000000E+00 0.  1.
          1   -1    0    0  501    0  0.00000000000E+00 -0.00000000000E+00 -0.43992238522E+03  0.43992238522E+03  0.00000000000E+00 0. -1.
         25    2    1    2    0    0 -0.15824559976E+03 -0.12390105649E+03 -0.10827438659E+03  0.26030352544E+03  0.12506574640E+03 0.  0.
          5    1    3    3  502    0 -0.82812060902E+02 -0.30950169058E+02  0.13457005170E+02  0.89522699823E+02  0.41800000000E+01 0. -1.
         -5    1    3    3    0  502 -0.75433538858E+02 -0.92950887431E+02 -0.12173139176E+03  0.17078082562E+03  0.41800000000E+01 0. -1.
        -11    1    1    2    0    0  0.10059993790E+02 -0.30625170119E+01  0.76086268028E+01  0.12979741420E+02  0.00000000000E+00 0.  1.
         11    1    1    2    0    0  0.14818560597E+03  0.12696357350E+03 -0.21531292113E+03  0.29058282265E+03  0.00000000000E+00 0. -1.
</event>
<event>
 7    1  0.2820496E-009  0.2517341E+03  0.7561462E-02  0.1112214E+00
         -3   -1    0    0    0  501 -0.00000000000E+00  0.00000000000E+00  0.75946155664E+02  0.75946155664E+02  0.00000000000E+00 0.  1.
          3   -1    0    0  501    0  0.00000000000E+00 -0.00000000000E+00 -0.96065197749E+03  0.96065197749E+03  0.00000000000E+00 0. -1.
         25    2    1    2    0    0 -0.17448654158E+03 -0.14973233240E+03 -0.28056749838E+03  0.38369075708E+03  0.12504059889E+03 0.  0.
          5    1    3    3  502    0 -0.16430493169E+02 -0.82516416223E+02 -0.56906676990E+02  0.10166003314E+03  0.41800000000E+01 0. -1.
         -5    1    3    3    0  502 -0.15805604841E+03 -0.67215916175E+02 -0.22366082139E+03  0.28203072394E+03  0.41800000000E+01 0. -1.
        -11    1    1    2    0    0  0.75975059117E+02  0.10254932012E+02 -0.17597835323E+03  0.19195247861E+03  0.00000000000E+00 0. -1.
         11    1    1    2    0    0  0.98511482461E+02  0.13947740039E+03 -0.42815997022E+03  0.46095489746E+03  0.00000000000E+00 0.  1.
</event>
<event>
 7    1  0.2820496E-009  0.1300453E+03  0.7561462E-02  0.1227388E+00
         -1   -1    0    0    0  501 -0.00000000000E+00  0.00000000000E+00  0.79748843146E+03  0.79748843146E+03  0.00000000000E+00 0.  1.
          1   -1    0    0  501    0  0.00000000000E+00 -0.00000000000E+00 -0.26539889969E+02  0.26539889969E+02  0.00000000000E+00 0. -1.
         25    2    1    2    0    0  0.67515896948E+02  0.22284117479E+02  0.60207625922E+03  0.61902846003E+03  0.12508171000E+03 0.  0.
          5    1    3    3  502    0 -0.66323921969E+01  0.60049219793E+02  0.25458151035E+03  0.26168514523E+03  0.41800000000E+01 0.  1.
         -5    1    3    3    0  502  0.74148289145E+02 -0.37765102314E+02  0.34749474887E+03  0.35734331480E+03  0.41800000000E+01 0.  1.
        -11    1    1    2    0    0 -0.30307904191E+02 -0.57491054668E+02  0.93521607829E+02  0.11388626587E+03  0.00000000000E+00 0.  1.
         11    1    1    2    0    0 -0.37207992757E+02  0.35206937190E+02  0.75350674442E+02  0.91113595529E+02  0.00000000000E+00 0. -1.
</event>
<event>
 7    1  0.2820496E-009  0.1053533E+03  0.7561462E-02  0.1269425E+00
         -1   -1    0    0    0  501 -0.00000000000E+00  0.00000000000E+00  0.97102479340E+03  0.97102479340E+03  0.00000000000E+00 0.  1.
          1   -1    0    0  501    0  0.00000000000E+00 -0.00000000000E+00 -0.21403082685E+02  0.21403082685E+02  0.00000000000E+00 0. -1.
         25    2    1    2    0    0  0.73907025545E+02 -0.40331982738E+02  0.36192029325E+03  0.39206996815E+03  0.12507455376E+03 0.  0.
          5    1    3    3  502    0  0.36311574901E+02 -0.50671226640E+01  0.32834317399E+03  0.33041022761E+03  0.41800000000E+01 0. -1.
         -5    1    3    3    0  502  0.37595450644E+02 -0.35264860074E+02  0.33577119261E+02  0.61659740537E+02  0.41800000000E+01 0. -1.
        -11    1    1    2    0    0 -0.59972461680E+01  0.52719704348E+02  0.22800171900E+03  0.23409425037E+03  0.00000000000E+00 0. -1.
         11    1    1    2    0    0 -0.67909779377E+02 -0.12387721610E+02  0.35969969846E+03  0.36626365757E+03  0.00000000000E+00 0.  1.
</event>
<event>
 7    1  0.2820496E-009  0.8604366E+02  0.7561462E-02  0.1312726E+00
          2   -1    0    0  501    0  0.00000000000E+00  0.00000000000E+00  0.13541153887E+03  0.13541153887E+03  0.00000000000E+00 0. -1.
         -2   -1    0    0    0  501 -0.00000000000E+00 -0.00000000000E+00 -0.97638165371E+02  0.97638165371E+02  0.00000000000E+00 0.  1.
         25    2    1    2    0    0 -0.32410980808E+02  0.23283945382E+01  0.38775945639E+02  0.13493449220E+03  0.12509136712E+03 0.  0.
          5    1    3    3  502    0  0.16224929042E+02  0.31125766547E+02  0.63832362418E+02  0.72966461867E+02  0.41800000000E+01 0. -1.
         -5    1    3    3    0  502 -0.48635909849E+02 -0.28797372009E+02 -0.25056416779E+02  0.61968030333E+02  0.41800000000E+01 0. -1.
        -11    1    1    2    0    0 -0.22269732358E+02  0.93422084817E+01 -0.27196584730E+02  0.36371308192E+02  0.00000000000E+00 0.  1.
         11    1    1    2    0    0  0.54680713166E+02 -0.11670603020E+02  0.26194012590E+02  0.61743903851E+02  0.00000000000E+00 0. -1.
</event>
<event>
 7    1  0.2820496E-009  0.1070799E+03  0.7561462E-02  0.1266075E+00
          1   -1    0    0  501    0  0.00000000000E+00  0.00000000000E+00  0.16350940302E+04  0.16350940302E+04  0.00000000000E+00 0. -1.
         -1   -1    0    0    0  501 -0.00000000000E+00 -0.00000000000E+00 -0.10628434674E+02  0.10628434674E+02  0.00000000000E+00 0.  1.
         25    2    1    2    0    0 -0.26886550166E+02  0.50811853839E+02  0.12153782175E+04  0.12231497630E+04  0.12508557057E+03 0.  0.
          5    1    3    3  502    0 -0.43983447597E+01 -0.30608692394E+02  0.71455367578E+03  0.71523469257E+03  0.41800000000E+01 0.  1.
         -5    1    3    3    0  502 -0.22488205406E+02  0.81420546233E+02  0.50082454177E+03  0.50791507043E+03  0.41800000000E+01 0.  1.
        -11    1    1    2    0    0  0.54607976524E+02 -0.43216746306E+02  0.35005189345E+03  0.35691181876E+03  0.00000000000E+00 0. -1.
         11    1    1    2    0    0 -0.27721426358E+02 -0.75951075326E+01  0.59035484502E+02  0.65660883090E+02  0.00000000000E+00 0.  1.
</event>
<event>
 7    1  0.2820496E-009  0.8622536E+02  0.7561462E-02  0.1312259E+00
         -2   -1    0    0    0  501 -0.00000000000E+00  0.00000000000E+00  0.23850684757E+02  0.23850684757E+02  0.00000000000E+00 0. -1.
          2   -1    0    0  501    0  0.00000000000E+00 -0.00000000000E+00 -0.89630261420E+03  0.89630261420E+03  0.00000000000E+00 0.  1.
         25    2    1    2    0    0 -0.65048605712E+01 -0.65831820132E+02 -0.69561448822E+03  0.70986140130E+03  0.12509017182E+03 0.  0.
          5    1    3    3  502    0 -0.65923208542E+01  0.62937808403E+01 -0.51825086783E+03  0.51834786078E+03  0.41800000000E+01 0. -1.
         -5    1    3    3    0  502  0.87460283001E-01 -0.72125600972E+02 -0.17736362039E+03  0.19151354052E+03  0.41800000000E+01 0. -1.
        -11    1    1    2    0    0  0.34065906590E+02  0.36090387373E+02 -0.15794471086E+03  0.16555824879E+03  0.00000000000E+00 0.  1.
         11    1    1    2    0    0 -0.27561046019E+02  0.29741432759E+02 -0.18892730357E+02  0.44733648862E+02  0.00000000000E+00 0. -1.
</event>
<event>
 7    1  0.2820496E-009  0.1153327E+03  0.7561462E-02  0.1251001E+00
         -4   -1    0    0    0  501 -0.00000000000E+00  0.00000000000E+00  0.32545952277E+03  0.32545952277E+03  0.00000000000E+00 0. -1.
          4   -1    0    0  501    0  0.00000000000E+00 -0.00000000000E+00 -0.61032342707E+02  0.61032342707E+02  0.00000000000E+00 0.  1.
         25    2    1    2    0    0 -0.25466776733E+02  0.38559023391E+02  0.24992849355E+03  0.28327788923E+03  0.12508699228E+03 0.  0.
          5    1    3    3  502    0  0.40267222957E+02  0.51340549410E+02  0.10719516186E+03  0.12556104644E+03  0.41800000000E+01 0.  1.
         -5    1    3    3    0  502 -0.65733999690E+02 -0.12781526019E+02  0.14273333169E+03  0.15771684278E+03  0.41800000000E+01 0.  1.
        -11    1    1    2    0    0  0.51051992960E+00  0.27534887897E+02 -0.86557377265E+01  0.28867845047E+02  0.00000000000E+00 0.  1.
         11    1    1    2    0    0  0.24956256803E+02 -0.66093911288E+02  0.23154424245E+02  0.74346131204E+02  0.00000000000E+00 0. -1.
</event>
<event>
 7    1  0.2820496E-009  0.1062164E+03  0.7561462E-02  0.1267741E+00
         -2   -1    0    0    0  501 -0.00000000000E+00  0.00000000000E+00  0.20682971840E+02  0.20682971840E+02  0.00000000000E+00 0. -1.
          2   -1    0    0  501    0  0.00000000000E+00 -0.00000000000E+00 -0.69488384490E+03  0.69488384490E+03  0.00000000000E+00 0.  1.
         25    2    1    2    0    0  0.38551702859E+02  0.23267374564E+02 -0.45052359126E+03  0.46972825646E+03  0.12508206956E+03 0.  0.
          5    1    3    3  502    0  0.74918508053E+02 -0.45514757075E+01 -0.36468173995E+03  0.37234895278E+03  0.41800000000E+01 0.  1.
         -5    1    3    3    0  502 -0.36366805194E+02  0.27818850272E+02 -0.85841851309E+02  0.97379303687E+02  0.41800000000E+01 0.  1.
        -11    1    1    2    0    0 -0.26015490768E+02  0.28166735094E+02 -0.15181151439E+03  0.15657875535E+03  0.00000000000E+00 0.  1.
         11    1    1    2    0    0 -0.12536212091E+02 -0.51434109658E+02 -0.71865767416E+02  0.89259804931E+02  0.00000000000E+00 0. -1.
</event>
<event>
 7    1  0.3030680E-009  0.1107553E+03  0.7561462E-02  0.1259178E+00
          2   -1    0    0  501    0  0.00000000000E+00  0.00000000000E+00  0.11672121219E+03  0.11672121219E+03  0.00000000000E+00 0. -1.
         -2   -1    0    0    0  501 -0.00000000000E+00 -0.00000000000E+00 -0.19304992899E+03  0.19304992899E+03  0.00000000000E+00 0.  1.
         25    2    1    2    0    0  0.46603533133E+02 -0.76239029304E+02 -0.94029920959E+02  0.18020368272E+03  0.12508981709E+03 0.  0.
          5    1    3    3  502    0 -0.18436403465E+02 -0.44034704911E+02 -0.96199795836E+02  0.10747478462E+03  0.41800000000E+01 0.  1.
         -5    1    3    3    0  502  0.65039936598E+02 -0.32204324393E+02  0.21698748773E+01  0.72728898103E+02  0.41800000000E+01 0.  1.
        -11    1    1    2    0    0 -0.18849407873E+02  0.69936693610E+02 -0.26388669381E+02  0.77089578815E+02  0.00000000000E+00 0.  1.
         11    1    1    2    0    0 -0.27754125261E+02  0.63023356945E+01  0.44089873530E+02  0.52477879646E+02  0.00000000000E+00 0. -1.
</event>
<event>
 7    1  0.2820496E-009  0.8920031E+02  0.7561462E-02  0.1304800E+00
         -1   -1    0    0    0  501 -0.00000000000E+00  0.00000000000E+00  0.40019922479E+02  0.40019922479E+02  0.00000000000E+00 0.  1.
          1   -1    0    0  501    0  0.00000000000E+00 -0.00000000000E+00 -0.30638378377E+03  0.30638378377E+03  0.00000000000E+00 0. -1.
         25    2    1    2    0    0  0.72950845809E+01  0.17045688707E+02 -0.15483796392E+03  0.19992391804E+03  0.12510397344E+03 0.  0.
          5    1    3    3  502    0 -0.46292359379E+02  0.82470194863E+00 -0.14381351070E+02  0.48661672072E+02  0.41800000000E+01 0. -1.
         -5    1    3    3    0  502  0.53587443960E+02  0.16220986758E+02 -0.14045661285E+03  0.15126224597E+03  0.41800000000E+01 0. -1.
        -11    1    1    2    0    0  0.28142659364E+02  0.11362004887E+02 -0.51100671123E+01  0.30776894207E+02  0.00000000000E+00 0.  1.
         11    1    1    2    0    0 -0.35437743945E+02 -0.28407693594E+02 -0.10641583025E+03  0.11570289400E+03  0.00000000000E+00 0. -1.
</event>
<event>
 7    1  0.2820496E-009  0.1438654E+03  0.7561462E-02  0.1208220E+00
         -4   -1    0    0    0  501 -0.00000000000E+00  0.00000000000E+00  0.14697988388E+04  0.14697988388E+04  0.00000000000E+00 0.  1.
          4   -1    0    0  501    0  0.00000000000E+00 -0.00000000000E+00 -0.20087116313E+02  0.20087116313E+02  0.00000000000E+00 0. -1.
         25    2    1    2    0    0  0.10330249973E+03 -0.77413218813E+02  0.89367441025E+03  0.91157360786E+03  0.12509307779E+03 0.  0.
          5    1    3    3  502    0  0.92690531432E+02 -0.67170595244E+02  0.36226613384E+03  0.37994426909E+03  0.41800000000E+01 0. -1.
         -5    1    3    3    0  502  0.10611968300E+02 -0.10242623569E+02  0.53140827641E+03  0.53162933877E+03  0.41800000000E+01 0. -1.
        -11    1    1    2    0    0 -0.89859281529E+02  0.98194333148E+02  0.49109953614E+03  0.50881781803E+03  0.00000000000E+00 0.  1.
         11    1    1    2    0    0 -0.13443218203E+02 -0.20781114335E+02  0.64937776086E+02  0.69494529221E+02  0.00000000000E+00 0. -1.
</event>
<event>
 7    1  0.2820496E-009  0.1527780E+03  0.7561462E-02  0.1197100E+00
          1   -1    0    0  501    0  0.00000000000E+00  0.00000000000E+00  0.10218784432E+04  0.10218784432E+04  0.00000000000E+00 0. -1.
         -1   -1    0    0    0  501 -0.00000000000E+00 -0.00000000000E+00 -0.23101904021E+02  0.23101904021E+02  0.00000000000E+00 0.  1.
         25    2    1    2    0    0 -0.15292452998E+02 -0.10861200099E+03  0.51272081309E+03  0.53903680468E+03  0.12509044229E+03 0.  0.
          5    1    3    3  502    0  0.34195292718E+02 -0.11140035246E+03  0.36316608173E+03  0.38142683688E+03  0.41800000000E+01 0.  1.
         -5    1    3    3    0  502 -0.49487745716E+02  0.27883514676E+01  0.14955473136E+03  0.15760996780E+03  0.41800000000E+01 0.  1.
        -11    1    1    2    0    0  0.17483951841E+02  0.12321120751E+03  0.45215611633E+03  0.46896891556E+03  0.00000000000E+00 0.  1.
         11    1    1    2    0    0 -0.21914988438E+01 -0.14599206518E+02  0.33899609760E+02  0.36974626976E+02  0.00000000000E+00 0. -1.
</event>
<event>
 7    1  0.2820496E-009  0.1578670E+03  0.7561462E-02  0.1191126E+00
         -1   -1    0    0    0  501 -0.00000000000E+00  0.00000000000E+00  0.34523473778E+03  0.34523473778E+03  0.00000000000E+00 0.  1.
          1   -1    0    0  501    0  0.00000000000E+00 -0.00000000000E+00 -0.13845678403E+03  0.13845678403E+03  0.00000000000E+00 0. -1.
         25    2    1    2    0    0 -0.14723004386E+03  0.45429636487E+02  0.22978518656E+03  0.30362528257E+03  0.12508614057E+03 0.  0.
          5    1    3    3  502    0 -0.68935235387E+02  0.38987136498E+02  0.23296060754E+02  0.82657379204E+02  0.41800000000E+01 0. -1.
         -5    1    3    3    0  502 -0.78294808477E+02  0.64424999894E+01  0.20648912581E+03  0.22096790336E+03  0.41800000000E+01 0. -1.
        -11    1    1    2    0    0  0.36401113594E+02  0.35769539493E+01  0.30475101107E+02  0.47608480945E+02  0.00000000000E+00 0.  1.
         11    1    1    2    0    0  0.11082893027E+03 -0.49006590437E+02 -0.53482333922E+02  0.13245775830E+03  0.00000000000E+00 0. -1.
</event>
<event>
 7    1  0.2820496E-009  0.8510094E+02  0.7561462E-02  0.1315169E+00
          2   -1    0    0  501    0  0.00000000000E+00  0.00000000000E+00  0.20238337405E+03  0.20238337405E+03  0.00000000000E+00 0. -1.
         -2   -1    0    0    0  501 -0.00000000000E+00 -0.00000000000E+00 -0.67141307726E+02  0.67141307726E+02  0.00000000000E+00 0.  1.
         25    2    1    2    0    0  0.31206896107E+02 -0.39557257930E+02  0.86787164233E+02  0.16035576275E+03  0.12507322556E+03 0.  0.
          5    1    3    3  502    0  0.41404532997E+02 -0.10955878545E+02 -0.21293354026E+02  0.48012976923E+02  0.41800000000E+01 0.  1.
         -5    1    3    3    0  502 -0.10197636889E+02 -0.28601379385E+02  0.10808051826E+03  0.11234278583E+03  0.41800000000E+01 0.  1.
        -11    1    1    2    0    0  0.27977519987E+01  0.57841337709E+02  0.20219774459E+02  0.61337484815E+02  0.00000000000E+00 0.  1.
         11    1    1    2    0    0 -0.34004648106E+02 -0.18284079779E+02  0.28235127637E+02  0.47831434213E+02  0.00000000000E+00 0. -1.
</event>
<event>
 7    1  0.2820496E-009  0.1098988E+03  0.7561462E-02  0.1260757E+00
         -2   -1    0    0    0  501 -0.00000000000E+00  0.00000000000E+00  0.15358382030E+03  0.15358382030E+03  0.00000000000E+00 0.  1.
          2   -1    0    0  501    0  0.00000000000E+00 -0.00000000000E+00 -0.11586284705E+03  0.11586284705E+03  0.00000000000E+00 0. -1.
         25    2    1    2    0    0 -0.32833065994E+02  0.47935737865E+02  0.76251109701E+02  0.15760235082E+03  0.12509366117E+03 0.  0.
          5    1    3    3  502    0 -0.51186227092E+02 -0.17140250678E+02  0.71509022396E+02  0.89692980334E+02  0.41800000000E+01 0.  1.
         -5    1    3    3    0  502  0.18353161098E+02  0.65075988543E+02  0.47420873049E+01  0.67909370481E+02  0.41800000000E+01 0.  1.
        -11    1    1    2    0    0 -0.43807436682E+01  0.19988098057E+02 -0.26475980719E+02  0.33461807095E+02  0.00000000000E+00 0. -1.
         11    1    1    2    0    0  0.37213809662E+02 -0.67923835922E+02 -0.12054155728E+02  0.78382509441E+02  0.00000000000E+00 0.  1.
</event>
<event>
 7    1  0.2820496E-009  0.1583792E+03  0.7561462E-02  0.1190539E+00
          2   -1    0    0  501    0  0.00000000000E+00  0.00000000000E+00  0.18281032282E+04  0.18281032282E+04  0.00000000000E+00 0. -1.
         -2   -1    0    0    0  501 -0.00000000000E+00 -0.00000000000E+00 -0.20369221338E+02  0.20369221338E+02  0.00000000000E+00 0.  1.
         25    2    1    2    0    0  0.46405355558E+02 -0.11586518775E+03  0.14199655340E+04  0.14309183566E+04  0.12508807592E+03 0.  0.
          5    1    3    3  502    0  0.76913652254E+02 -0.31845740459E+02  0.83472771412E+03  0.83887882928E+03  0.41800000000E+01 0.  1.
         -5    1    3    3    0  502 -0.30508296696E+02 -0.84019447295E+02  0.58523781991E+03  0.59203952735E+03  0.41800000000E+01 0.  1.
        -11    1    1    2    0    0 -0.44408172698E+02  0.21151077094E+02  0.21461025633E+03  0.22017496676E+03  0.00000000000E+00 0. -1.
         11    1    1    2    0    0 -0.19971828595E+01  0.94714110660E+02  0.17315821646E+03  0.19737912612E+03  0.00000000000E+00 0.  1.
</event>
<event>
 7    1  0.2820496E-009  0.1035388E+03  0.7561462E-02  0.1273026E+00
          2   -1    0    0  501    0  0.00000000000E+00  0.00000000000E+00  0.60673797356E+03  0.60673797356E+03  0.00000000000E+00 0. -1.
         -2   -1    0    0    0  501 -0.00000000000E+00 -0.00000000000E+00 -0.19491104634E+02  0.19491104634E+02  0.00000000000E+00 0.  1.
         25    2    1    2    0    0  0.83871114959E+00  0.18748111586E+01  0.31975243473E+03  0.34336306134E+03  0.12510936824E+03 0.  0.
          5    1    3    3  502    0  0.11732415923E+02  0.61239765524E+02  0.13082552320E+03  0.14498533852E+03  0.41800000000E+01 0. -1.
         -5    1    3    3    0  502 -0.10893704773E+02 -0.59364954366E+02  0.18892691154E+03  0.19837772282E+03  0.41800000000E+01 0. -1.
        -11    1    1    2    0    0  0.29919415412E+02 -0.30025664472E+02  0.77341559496E+02  0.88195401076E+02  0.00000000000E+00 0.  1.
         11    1    1    2    0    0 -0.30758126561E+02  0.28150853314E+02  0.19015287470E+03  0.19467061578E+03  0.00000000000E+00 0. -1.
</event>
<event>
 7    1  0.2820496E-009  0.8120193E+02  0.7561462E-02  0.1325675E+00
          2   -1    0    0  501    0  0.00000000000E+00  0.00000000000E+00  0.25403418255E+03  0.25403418255E+03  0.00000000000E+00 0.  1.
         -2   -1    0    0    0  501 -0.00000000000E+00 -0.00000000000E+00 -0.10610183637E+03  0.10610183637E+03  0.00000000000E+00 0. -1.
         25    2    1    2    0    0  0.52648005774E+02  0.41630667039E+02 -0.34182776315E+02  0.14601744312E+03  0.12509079322E+03 0.  0.
          5    1    3    3  502    0  0.45452449512E+02  0.43624803673E+01 -0.76393218018E+02  0.89097432964E+02  0.41800000000E+01 0. -1.
         -5    1    3    3    0  502  0.71955562614E+01  0.37268186672E+02  0.42210441703E+02  0.56920010159E+02  0.41800000000E+01 0. -1.
        -11    1    1    2    0    0 -0.28072956154E+02  0.21543592619E+01  0.32532553561E+01  0.28342826278E+02  0.00000000000E+00 0. -1.
         11    1    1    2    0    0 -0.24575049620E+02 -0.43785026301E+02  0.17886186714E+03  0.18577574952E+03  0.00000000000E+00 0.  1.
</event>
<event>
 7    1  0.2820496E-009  0.1388289E+03  0.7561462E-02  0.1214913E+00
          2   -1    0    0  501    0  0.00000000000E+00  0.00000000000E+00  0.18439244623E+03  0.18439244623E+03  0.00000000000E+00 0. -1.
         -2   -1    0    0    0  501 -0.00000000000E+00 -0.00000000000E+00 -0.13584566126E+03  0.13584566126E+03  0.00000000000E+00 0.  1.
         25    2    1    2    0    0 -0.96824046896E+02 -0.37172709478E+02 -0.25032952480E+02  0.16440698757E+03  0.12508518084E+03 0.  0.
          5    1    3    3  502    0 -0.47813666418E+02  0.30345658459E+02 -0.51621895008E+02  0.76741762606E+02  0.41800000000E+01 0.  1.
         -5    1    3    3    0  502 -0.49010380478E+02 -0.67518367937E+02  0.26588942528E+02  0.87665224965E+02  0.41800000000E+01 0.  1.
        -11    1    1    2    0    0  0.11426850837E+03  0.36202277521E+02  0.63155759809E+02  0.13548633474E+03  0.00000000000E+00 0.  1.
         11    1    1    2    0    0 -0.17444461476E+02  0.97043195718E+00  0.10423977638E+02  0.20344785183E+02  0.00000000000E+00 0. -1.
</event>
<event>
 7    1  0.2820496E-009  0.1056919E+03  0.7561462E-02  0.1268762E+00
         -3   -1    0    0    0  501 -0.00000000000E+00  0.00000000000E+00  0.90589927332E+03  0.90589927332E+03  0.00000000000E+00 0.  1.
          3   -1    0    0  501    0  0.00000000000E+00 -0.00000000000E+00 -0.15297641892E+02  0.15297641892E+02  0.00000000000E+00 0. -1.
         25    2    1    2    0    0  0.26468915174E+02 -0.22653146367E+02  0.60917106193E+03  0.62285636724E+03  0.12508758135E+03 0.  0.
          5    1    3    3  502    0 -0.45343748109E+02 -0.64014932290E+01  0.36227015456E+03  0.36517690493E+03  0.41800000000E+01 0. -1.
         -5    1    3    3    0  502  0.71812663283E+02 -0.16251653138E+02  0.24690090737E+03  0.25767946231E+03  0.41800000000E+01 0. -1.
        -11    1    1    2    0    0  0.22342776469E+02 -0.17553823750E+02  0.14774042196E+03  0.15044789354E+03  0.00000000000E+00 0.  1.
         11    1    1    2    0    0 -0.48811691643E+02  0.40206970117E+02  0.13369014754E+03  0.14789265443E+03  0.00000000000E+00 0. -1.
</event>
<event>
 7    1  0.2820496E-009  0.1562096E+03  0.7561462E-02  0.1193044E+00
         -1   -1    0    0    0  501 -0.00000000000E+00  0.00000000000E+00  0.36020799728E+02  0.36020799728E+02  0.00000000000E+00 0.  1.
          1   -1    0    0  501    0  0.00000000000E+00 -0.00000000000E+00 -0.81668098424E+03  0.81668098424E+03  0.00000000000E+00 0. -1.
         25    2    1    2    0    0 -0.12774663408E+03 -0.99385253176E+01 -0.32680457441E+03  0.37264817726E+03  0.12508979717E+03 0.  0.
          5    1    3    3  502    0 -0.51126911649E+02  0.51557131397E+02 -0.86564581545E+02  0.11306192140E+03  0.41800000000E+01 0. -1.
         -5    1    3    3    0  502 -0.76619722431E+02 -0.61495656715E+02 -0.24023999286E+03  0.25958625586E+03  0.41800000000E+01 0. -1.
        -11    1    1    2    0    0  0.40223827574E+02  0.31645952392E+02 -0.76277101226E+02  0.91856511903E+02  0.00000000000E+00 0.  1.
         11    1    1    2    0    0  0.87522806505E+02 -0.21707427074E+02 -0.37757850887E+03  0.38819709480E+03  0.00000000000E+00 0. -1.
</event>
<event>
 7    1  0.2820496E-009  0.1103704E+03  0.7561462E-02  0.1259885E+00
         -2   -1    0    0    0  501 -0.00000000000E+00  0.00000000000E+00  0.48297379929E+02  0.48297379929E+02  0.00000000000E+00 0.  1.
          2   -1    0    0  501    0  0.00000000000E+00 -0.00000000000E+00 -0.39128976320E+03  0.39128976320E+03  0.00000000000E+00 0. -1.
         25    2    1    2    0    0  0.79109753157E+02  0.15652826254E+02 -0.14881181729E+03  0.21046658337E+03  0.12509141352E+03 0.  0.
          5    1    3    3  502    0  0.26694149134E+02  0.35213663114E+02  0.69345954880E+01  0.44923720711E+02  0.41800000000E+01 0.  1.
         -5    1    3    3    0  502  0.52415604023E+02 -0.19560836861E+02 -0.15574641278E+03  0.16554286266E+03  0.41800000000E+01 0.  1.
        -11    1    1    2    0    0 -0.67832914628E+01 -0.42549916184E+02 -0.53778412763E+02  0.68910275646E+02  0.00000000000E+00 0. -1.
         11    1    1    2    0    0 -0.72326461695E+02  0.26897089931E+02 -0.14040215322E+03  0.16021028412E+03  0.00000000000E+00 0.  1.
</event>
<event>
 7    1  0.2820496E-009  0.8696709E+02  0.7561462E-02  0.1310367E+00
          2   -1    0    0  501    0  0.00000000000E+00  0.00000000000E+00  0.33149612909E+03  0.33149612909E+03  0.00000000000E+00 0. -1.
         -2   -1    0    0    0  501 -0.00000000000E+00 -0.00000000000E+00 -0.46739183098E+02  0.46739183098E+02  0.00000000000E+00 0.  1.
         25    2    1    2    0    0 -0.13394262530E+02  0.17040949838E+02  0.65865576388E+02  0.14302289334E+03  0.12508986220E+03 0.  0.
          5    1    3    3  502    0  0.32934229658E+02  0.26057499583E+02 -0.18642735602E+02  0.46137628443E+02  0.41800000000E+01 0. -1.
         -5    1    3    3    0  502 -0.46328492188E+02 -0.90165497449E+01  0.84508311990E+02  0.96885264892E+02  0.41800000000E+01 0. -1.
        -11    1    1    2    0    0  0.63337986076E+01  0.33106140965E+02  0.11142735677E+03  0.11641387122E+03  0.00000000000E+00 0. -1.
         11    1    1    2    0    0  0.70604639227E+01 -0.50147090803E+02  0.10746401284E+03  0.11879854764E+03  0.00000000000E+00 0.  1.
</event>
<event>
 7    1  0.2820496E-009  0.1458297E+03  0.7561462E-02  0.1205693E+00
          2   -1    0    0  501    0  0.00000000000E+00  0.00000000000E+00  0.39190893953E+03  0.39190893953E+03  0.00000000000E+00 0. -1.
         -2   -1    0    0    0  501 -0.00000000000E+00 -0.00000000000E+00 -0.76317120034E+02  0.76317120034E+02  0.00000000000E+00 0.  1.
         25    2    1    2    0    0  0.10312666564E+03 -0.62306917802E+02  0.24817788369E+03  0.30291379930E+03  0.12508895507E+03 0.  0.
          5    1    3    3  502    0  0.76621666878E+01  0.32179393009E+02  0.22392519949E+02  0.40163658728E+02  0.41800000000E+01 0. -1.
         -5    1    3    3    0  502  0.95464498957E+02 -0.94486310810E+02  0.22578536374E+03  0.26275014057E+03  0.41800000000E+01 0. -1.
        -11    1    1    2    0    0 -0.96194675525E+02  0.46854376765E+02  0.12357816081E+02  0.10771009163E+03  0.00000000000E+00 0.  1.
         11    1    1    2    0    0 -0.69319901191E+01  0.15452541037E+02  0.55056119730E+02  0.57602168633E+02  0.00000000000E+00 0. -1.
</event>
<event>
 7    1  0.2820496E-009  0.8492598E+02  0.7561462E-02  0.1315626E+00
          1   -1    0    0  501    0  0.00000000000E+00  0.00000000000E+00  0.14970564318E+03  0.14970564318E+03  0.00000000000E+00 0. -1.
         -1   -1    0    0    0  501 -0.00000000000E+00 -0.00000000000E+00 -0.84366366216E+02  0.84366366216E+02  0.00000000000E+00 0.  1.
         25    2    1    2    0    0  0.19932616635E+02 -0.34479030794E+01  0.16065075059E+02  0.12772906900E+03  0.12508969258E+03 0.  0.
          5    1    3    3  502    0  0.62299361920E+02  0.12197480698E+02 -0.23220168800E+02  0.67724719786E+02  0.41800000000E+01 0. -1.
         -5    1    3    3    0  502 -0.42366745285E+02 -0.15645383777E+02  0.39285243858E+02  0.60004349214E+02  0.41800000000E+01 0. -1.
        -11    1    1    2    0    0  0.15687337325E+02  0.16661245285E+02  0.62149498223E+02  0.66228768494E+02  0.00000000000E+00 0. -1.
         11    1    1    2    0    0 -0.35619953961E+02 -0.13213342206E+02 -0.12875296314E+02  0.40114171905E+02  0.00000000000E+00 0.  1.
</event>
<event>
 7    1  0.2820496E-009  0.1027437E+03  0.7561462E-02  0.1274630E+00
          1   -1    0    0  501    0  0.00000000000E+00  0.00000000000E+00  0.16091256687E+03  0.16091256687E+03  0.00000000000E+00 0. -1.
         -1   -1    0    0    0  501 -0.00000000000E+00 -0.00000000000E+00 -0.10475325875E+03  0.10475325875E+03  0.00000000000E+00 0.  1.
         25    2    1    2    0    0  0.40571736606E-01  0.68113841662E+02  0.58354087924E+01  0.14256125820E+03  0.12510061260E+03 0.  0.
          5    1    3    3  502    0 -0.40600265301E+02  0.63526569535E+02  0.43212050950E+02  0.86998622556E+02  0.41800000000E+01 0. -1.
         -5    1    3    3    0  502  0.40640837038E+02  0.45872721274E+01 -0.37376642158E+02  0.55562635644E+02  0.41800000000E+01 0. -1.
        -11    1    1    2    0    0  0.27504333231E+01  0.10169136634E+02 -0.16877801963E+02  0.19895638277E+02  0.00000000000E+00 0.  1.
         11    1    1    2    0    0 -0.27910050597E+01 -0.78282978296E+02  0.67201701291E+02  0.10320892915E+03  0.00000000000E+00 0. -1.
</event>
<event>
 7    1  0.2820496E-009  0.1325805E+03  0.7561462E-02  0.1223676E+00
         -1   -1    0    0    0  501 -0.00000000000E+00  0.00000000000E+00  0.94513916075E+01  0.94513916075E+01  0.00000000000E+00 0.  1.
          1   -1    0    0  501    0  0.00000000000E+00 -0.00000000000E+00 -0.22300326921E+04  0.22300326921E+04  0.00000000000E+00 0. -1.
         25    2    1    2    0    0 -0.58180291702E+02 -0.62697881895E+02 -0.15143562863E+04  0.15219195312E+04  0.12509247317E+03 0.  0.
          5    1    3    3  502    0 -0.34474046159E+02 -0.93164324930E+02 -0.13189890820E+04  0.13227311602E+04  0.41800000000E+01 0. -1.
         -5    1    3    3    0  502 -0.23706245543E+02  0.30466443034E+02 -0.19536720431E+03  0.19918837102E+03  0.41800000000E+01 0. -1.
        -11    1    1    2    0    0  0.84258189441E+02  0.47672093727E+02 -0.55345140424E+03  0.56185454333E+03  0.00000000000E+00 0. -1.
         11    1    1    2    0    0 -0.26077897738E+02  0.15025788168E+02 -0.15277360996E+03  0.15571000919E+03  0.00000000000E+00 0.  1.
</event>
<event>
 7    1  0.2820496E-009  0.1066928E+03  0.7561462E-02  0.1266820E+00
          1   -1    0    0  501    0  0.00000000000E+00  0.00000000000E+00  0.40676401686E+02  0.40676401686E+02  0.00000000000E+00 0. -1.
         -1   -1    0    0    0  501 -0.00000000000E+00 -0.00000000000E+00 -0.36948902711E+03  0.36948902711E+03  0.00000000000E+00 0.  1.
         25    2    1    2    0    0 -0.33858213264E+02 -0.21626899922E+02 -0.25086727164E+03  0.28318671663E+03  0.12508487954E+03 0.  0.
          5    1    3    3  502    0  0.27307717575E+02  0.34587441970E+02 -0.12223784852E+03  0.13000602521E+03  0.41800000000E+01 0.  1.
         -5    1    3    3    0  502 -0.61165930839E+02 -0.56214341892E+02 -0.12862942313E+03  0.15318069142E+03  0.41800000000E+01 0.  1.
        -11    1    1    2    0    0 -0.95688201055E+01  0.38258802216E+02 -0.40178412447E+01  0.39641409075E+02  0.00000000000E+00 0. -1.
         11    1    1    2    0    0  0.43427033370E+02 -0.16631902294E+02 -0.73927512533E+02  0.87337303087E+02  0.00000000000E+00 0.  1.
</event>
<event>
 7    1  0.2820496E-009  0.1088315E+03  0.7561462E-02  0.1262749E+00
          2   -1    0    0  501    0  0.00000000000E+00  0.00000000000E+00  0.43987735893E+03  0.43987735893E+03  0.00000000000E+00 0.  1.
         -2   -1    0    0    0  501 -0.00000000000E+00 -0.00000000000E+00 -0.41011392420E+02  0.41011392420E+02  0.00000000000E+00 0. -1.
         25    2    1    2    0    0 -0.81511421278E+02 -0.64904737972E+01  0.23633762650E+03  0.27963760101E+03  0.12512184521E+03 0.  0.
          5    1    3    3  502    0 -0.32904110119E+02 -0.30672052051E+02  0.21731266091E+03  0.22195882553E+03  0.41800000000E+01 0.  1.
         -5    1    3    3    0  502 -0.48607311158E+02  0.24181578254E+02  0.19024965593E+02  0.57678775479E+02  0.41800000000E+01 0.  1.
        -11    1    1    2    0    0  0.82639494233E+02  0.34825766167E+02  0.13203220408E+03  0.15960771570E+03  0.00000000000E+00 0.  1.
         11    1    1    2    0    0 -0.11280729554E+01 -0.28335292370E+02  0.30496135933E+02  0.41643434646E+02  0.00000000000E+00 0. -1.
</event>
<event>
 7    1  0.2820496E-009  0.1410005E+03  0.7561462E-02  0.1211989E+00
         -4   -1    0    0    0  501 -0.00000000000E+00  0.00000000000E+00  0.86383678498E+03  0.86383678498E+03  0.00000000000E+00 0.  1.
          4   -1    0    0  501    0  0.00000000000E+00 -0.00000000000E+00 -0.54800235323E+02  0.54800235323E+02  0.00000000000E+00 0. -1.
         25    2    1    2    0    0  0.13319835246E+03  0.25531547609E+02  0.68315959658E+03  0.70763391740E+03  0.12508023677E+03 0.  0.
          5    1    3    3  502    0  0.57040860101E+02  0.21616918570E+02  0.55563586960E+03  0.55898984148E+03  0.41800000000E+01 0.  1.
         -5    1    3    3    0  502  0.76157492359E+02  0.39146290390E+01  0.12752372698E+03  0.14864407592E+03  0.41800000000E+01 0.  1.
        -11    1    1    2    0    0 -0.25102218137E+02 -0.26341517939E+02 -0.96504696170E+01  0.37644767054E+02  0.00000000000E+00 0. -1.
         11    1    1    2    0    0 -0.10809613432E+03  0.80997032985E+00  0.13552742270E+03  0.17335833585E+03  0.00000000000E+00 0.  1.
</event>
<event>
 7    1  0.2820496E-009  0.1496073E+03  0.7561462E-02  0.1200956E+00
         -3   -1    0    0    0  501 -0.00000000000E+00  0.00000000000E+00  0.79109385802E+02  0.79109385802E+02  0.00000000000E+00 0.  1.
          3   -1    0    0  501    0  0.00000000000E+00 -0.00000000000E+00 -0.43757740526E+03  0.43757740526E+03  0.00000000000E+00 0. -1.
         25    2    1    2    0    0 -0.82099240168E+02  0.93843537018E+02 -0.30509053263E+03  0.35252666044E+03  0.12509164057E+03 0.  0.
          5    1    3    3  502    0 -0.86418187948E+02  0.10793522889E+03 -0.18259860637E+03  0.22908042320E+03  0.41800000000E+01 0. -1.
         -5    1    3    3    0  502  0.43189477794E+01 -0.14091691868E+02 -0.12249192626E+03  0.12344623724E+03  0.41800000000E+01 0. -1.
        -11    1    1    2    0    0  0.79837731583E+02 -0.35836130734E+02 -0.59445275774E+02  0.10579240267E+03  0.00000000000E+00 0. -1.
         11    1    1    2    0    0  0.22615085856E+01 -0.58007406285E+02  0.60677889443E+01  0.58367727964E+02  0.00000000000E+00 0.  1.
</event>
<event>
 7    1  0.2820496E-009  0.1048013E+03  0.7561462E-02  0.1270512E+00
         -1   -1    0    0    0  501 -0.00000000000E+00  0.00000000000E+00  0.16453044834E+03  0.16453044834E+03  0.00000000000E+00 0.  1.
          1   -1    0    0  501    0  0.00000000000E+00 -0.00000000000E+00 -0.82684735474E+02  0.82684735474E+02  0.00000000000E+00 0. -1.
         25    2    1    2    0    0 -0.35112703093E+01  0.22034439311E+02 -0.39022882288E+01  0.12712417030E+03  0.12508989282E+03 0.  0.
          5    1    3    3  502    0 -0.36476343963E+02 -0.40541390012E+02 -0.11420541588E+02  0.55875120968E+02  0.41800000000E+01 0.  1.
         -5    1    3    3    0  502  0.32965073654E+02  0.62575829323E+02  0.75182533596E+01  0.71249049327E+02  0.41800000000E+01 0.  1.
        -11    1    1    2    0    0 -0.83420866507E+01  0.29767836197E+02  0.30206859752E+02  0.43222318975E+02  0.00000000000E+00 0.  1.
         11    1    1    2    0    0  0.11853356960E+02 -0.51802275508E+02  0.55541141339E+02  0.76868694540E+02  0.00000000000E+00 0. -1.
</event>
<event>
 7    1  0.2820496E-009  0.9159640E+02  0.7561462E-02  0.1299031E+00
          2   -1    0    0  501    0  0.00000000000E+00  0.00000000000E+00  0.31444692332E+03  0.31444692332E+03  0.00000000000E+00 0.  1.
         -2   -1    0    0    0  501 -0.00000000000E+00 -0.00000000000E+00 -0.40790225258E+02  0.40790225258E+02  0.00000000000E+00 0. -1.
         25    2    1    2    0    0 -0.15821163813E+01 -0.28359428505E+02  0.14439222653E+03  0.19314842295E+03  0.12510171033E+03 0.  0.
          5    1    3    3  502    0  0.44252147459E+02 -0.19381528525E+01  0.59553558842E+01  0.44888168318E+02  0.41800000000E+01 0.  1.
         -5    1    3    3    0  502 -0.45834263840E+02 -0.26421275653E+02  0.13843687065E+03  0.14826025463E+03  0.41800000000E+01 0.  1.
        -11    1    1    2    0    0  0.37276310848E+02  0.32813394952E+02  0.11130988047E+03  0.12188573226E+03  0.00000000000E+00 0.  1.
         11    1    1    2    0    0 -0.35694194466E+02 -0.44539664467E+01  0.17954591065E+02  0.40202993371E+02  0.00000000000E+00 0. -1.
</event>
<event>
 7    1  0.2820496E-009  0.1137837E+03  0.7561462E-02  0.1253719E+00
          3   -1    0    0  501    0  0.00000000000E+00  0.00000000000E+00  0.40412235847E+03  0.40412235847E+03  0.00000000000E+00 0. -1.
         -3   -1    0    0    0  501 -0.00000000000E+00 -0.00000000000E+00 -0.54129240447E+02  0.54129240447E+02  0.00000000000E+00 0.  1.
         25    2    1    2    0    0 -0.43891171648E+02 -0.96745400557E+01  0.33060598020E+03  0.35632540823E+03  0.12508977068E+03 0.  0.
          5    1    3    3  502    0 -0.86040828522E+02  0.85207869604E+01  0.20497545177E+03  0.22250401392E+03  0.41800000000E+01 0. -1.
         -5    1    3    3    0  502  0.42149656874E+02 -0.18195327016E+02  0.12563052843E+03  0.13382139431E+03  0.41800000000E+01 0. -1.
        -11    1    1    2    0    0  0.37995651463E+02  0.45111939240E+02  0.27531284798E+02  0.65090154668E+02  0.00000000000E+00 0. -1.
         11    1    1    2    0    0  0.58955201854E+01 -0.35437399184E+02 -0.81441469830E+01  0.36836036015E+02  0.00000000000E+00 0.  1.
</event>
<event>
 7    1  0.2820496E-009  0.1872549E+03  0.7561462E-02  0.1160961E+00
          3   -1    0    0  501    0  0.00000000000E+00  0.00000000000E+00  0.76830921349E+03  0.76830921349E+03  0.00000000000E+00 0. -1.
         -3   -1    0    0    0  501 -0.00000000000E+00 -0.00000000000E+00 -0.55592205074E+02  0.55592205074E+02  0.00000000000E+00 0.  1.
         25    2    1    2    0    0 -0.17496163223E+03 -0.53223270765E+01  0.38378690045E+03  0.43997673998E+03  0.12508895576E+03 0.  0.
          5    1    3    3  502    0 -0.12777729122E+03 -0.47132432701E+02  0.32991793297E+03  0.35694791953E+03  0.41800000000E+01 0. -1.
         -5    1    3    3    0  502 -0.47184341003E+02  0.41810105625E+02  0.53868967484E+02  0.83028820454E+02  0.41800000000E+01 0. -1.
        -11    1    1    2    0    0  0.15955398644E+03  0.57508354512E+01  0.33182935693E+03  0.36824077560E+03  0.00000000000E+00 0. -1.
         11    1    1    2    0    0  0.15407645788E+02 -0.42850837469E+00 -0.28992489590E+01  0.15683902980E+02  0.00000000000E+00 0.  1.
</event>
<event>
 7    1  0.2820496E-009  0.1212680E+03  0.7561462E-02  0.1241020E+00
         -1   -1    0    0    0  501 -0.00000000000E+00  0.00000000000E+00  0.18880133374E+02  0.18880133374E+02  0.00000000000E+00 0.  1.
          1   -1    0    0  501    0  0.00000000000E+00 -0.00000000000E+00 -0.11210673263E+04  0.11210673263E+04  0.00000000000E+00 0. -1.
         25    2    1    2    0    0  0.79388903895E+02  0.30768014987E+02 -0.77541918327E+03  0.79004579111E+03  0.12509265948E+03 0.  0.
          5    1    3    3  502    0  0.98493248721E+02  0.17459641805E+02 -0.35184536357E+03  0.36581196180E+03  0.41800000000E+01 0. -1.
         -5    1    3    3    0  502 -0.19104344826E+02  0.13308373182E+02 -0.42357381971E+03  0.42423382931E+03  0.41800000000E+01 0. -1.
        -11    1    1    2    0    0  0.17590841188E+02 -0.68638788244E+01 -0.21037066516E+02  0.28268510640E+02  0.00000000000E+00 0.  1.
         11    1    1    2    0    0 -0.96979745083E+02 -0.23904136163E+02 -0.30573094309E+03  0.32163315787E+03  0.00000000000E+00 0. -1.
</event>
<event>
 7    1  0.2820496E-009  0.1145765E+03  0.7561462E-02  0.1252322E+00
          1   -1    0    0  501    0  0.00000000000E+00  0.00000000000E+00  0.17338482022E+03  0.17338482022E+03  0.00000000000E+00 0. -1.
         -1   -1    0    0    0  501 -0.00000000000E+00 -0.00000000000E+00 -0.11041534713E+03  0.11041534713E+03  0.00000000000E+00 0.  1.
         25    2    1    2    0    0  0.62993190555E+02 -0.44333300658E+02  0.65977633594E+02  0.16104266672E+03  0.12509240091E+03 0.  0.
          5    1    3    3  502    0 -0.15609199985E+02 -0.16482638053E+02  0.73662630658E+02  0.77194430089E+02  0.41800000000E+01 0. -1.
         -5    1    3    3    0  502  0.78602390540E+02 -0.27850662606E+02 -0.76849970647E+01  0.83848236630E+02  0.41800000000E+01 0. -1.
        -11    1    1    2    0    0  0.65511180297E+01  0.52180120608E+02 -0.42467973898E+01  0.52760945994E+02  0.00000000000E+00 0. -1.
         11    1    1    2    0    0 -0.69544308585E+02 -0.78468199495E+01  0.12386368850E+01  0.69996554638E+02  0.00000000000E+00 0.  1.
</event>
<event>
 7    1  0.2820496E-009  0.7813332E+02  0.7561462E-02  0.1334434E+00
         -2   -1    0    0    0  501 -0.00000000000E+00  0.00000000000E+00  0.13036043784E+03  0.13036043784E+03  0.00000000000E+00 0.  1.
          2   -1    0    0  501    0  0.00000000000E+00 -0.00000000000E+00 -0.96913862310E+02  0.96913862310E+02  0.00000000000E+00 0. -1.
         25    2    1    2    0    0 -0.24479619230E+01  0.39070047863E+01 -0.82284540632E+01  0.12545478125E+03  0.12509971014E+03 0.  0.
          5    1    3    3  502    0  0.17451102894E+02  0.27523932810E+02  0.49756217930E+02  0.59626013553E+02  0.41800000000E+01 0.  1.
         -5    1    3    3    0  502 -0.19899064817E+02 -0.23616928023E+02 -0.57984671993E+02  0.65828767693E+02  0.41800000000E+01 0.  1.
        -11    1    1    2    0    0  0.12983915800E+02  0.42613081728E+02  0.26164600296E+02  0.51662782663E+02  0.00000000000E+00 0.  1.
         11    1    1    2    0    0 -0.10535953877E+02 -0.46520086514E+02  0.15510429296E+02  0.50156736241E+02  0.00000000000E+00 0. -1.
</event>
<event>
 7    1  0.2820496E-009  0.1183415E+03  0.7561462E-02  0.1245858E+00
         -2   -1    0    0    0  501 -0.00000000000E+00  0.00000000000E+00  0.40114463126E+02  0.40114463126E+02  0.00000000000E+00 0.  1.
          2   -1    0    0  501    0  0.00000000000E+00 -0.00000000000E+00 -0.36130227430E+03  0.36130227430E+03  0.00000000000E+00 0. -1.
         25    2    1    2    0    0  0.45065515440E+02  0.15247150029E+02 -0.20276997194E+03  0.24293827620E+03  0.12505985869E+03 0.  0.
          5    1    3    3  502    0 -0.24852618393E+02 -0.37418355943E+02 -0.54981328756E+02  0.71121058164E+02  0.41800000000E+01 0. -1.
         -5    1    3    3    0  502  0.69918133834E+02  0.52665505972E+02 -0.14778864319E+03  0.17181721803E+03  0.41800000000E+01 0. -1.
        -11    1    1    2    0    0  0.22964730760E+02 -0.26407074951E+02 -0.52507800230E+02  0.63101359346E+02  0.00000000000E+00 0. -1.
         11    1    1    2    0    0 -0.68030246200E+02  0.11159924921E+02 -0.65910039002E+02  0.95377101883E+02  0.00000000000E+00 0.  1.
</event>
<event>
 6    1  0.2820496E-009  0.1320442E+03  0.7561462E-02  0.1224454E+00
         -1   -1    0    0    0  501 -0.00000000000E+00  0.00000000000E+00  0.48924577532E+03  0.48924577532E+03  0.00000000000E+00 0.  1.
          1   -1    0    0  501    0  0.00000000000E+00 -0.00000000000E+00 -0.51835532803E+02  0.51835532803E+02  0.00000000000E+00 0. -1.
          5    1    1    2  502    0  0.22855242285E+02 -0.89253231263E+02  0.42616632271E+02  0.10159798786E+03  0.41800000000E+01 0. -1.
         -5    1    1    2    0  502 -0.84951269027E+01 -0.23741386536E+02  0.16166036935E+03  0.16366846988E+03  0.41800000000E+01 0. -1.
        -11    1    1    2    0    0  0.33398779600E+02  0.84081613398E+02  0.16000058647E+03  0.18380800815E+03  0.00000000000E+00 0.  1.
         11    1    1    2    0    0 -0.47758894982E+02  0.28913004401E+02  0.73132654429E+02  0.92006842230E+02  0.00000000000E+00 0. -1.
</event>
<event>
 7    1  0.2820496E-009  0.2613682E+03  0.7561462E-02  0.1106324E+00
          3   -1    0    0  501    0  0.00000000000E+00  0.00000000000E+00  0.17745962659E+03  0.17745962659E+03  0.00000000000E+00 0. -1.
         -3   -1    0    0    0  501 -0.00000000000E+00 -0.00000000000E+00 -0.51194238740E+03  0.51194238740E+03  0.00000000000E+00 0.  1.
         25    2    1    2    0    0  0.18004717741E+03 -0.16166857237E+03 -0.33361099713E+03  0.43069552562E+03  0.12509446429E+03 0.  0.
          5    1    3    3  502    0  0.80746156090E+02 -0.14231648553E+03 -0.25272032241E+03  0.30109625958E+03  0.41800000000E+01 0.  1.
         -5    1    3    3    0  502  0.99301021316E+02 -0.19352086844E+02 -0.80890674724E+02  0.12959926604E+03  0.41800000000E+01 0.  1.
        -11    1    1    2    0    0 -0.16229024120E+03  0.17262620748E+03 -0.67433075204E+01  0.23703038222E+03  0.00000000000E+00 0.  1.
         11    1    1    2    0    0 -0.17756936209E+02 -0.10957635114E+02  0.58715438471E+01  0.21676106154E+02  0.00000000000E+00 0. -1.
</event>
<event>
 7    1  0.2820496E-009  0.7510491E+02  0.7561462E-02  0.1343546E+00
          1   -1    0    0  501    0  0.00000000000E+00  0.00000000000E+00  0.13964453144E+03  0.13964453144E+03  0.00000000000E+00 0. -1.
         -1   -1    0    0    0  501 -0.00000000000E+00 -0.00000000000E+00 -0.94148142208E+02  0.94148142208E+02  0.00000000000E+00 0.  1.
         25    2    1    2    0    0  0.41849408939E+02  0.21379814306E+02  0.43925219024E+02  0.14067301931E+03  0.12510397279E+03 0.  0.
          5    1    3    3  502    0  0.50515943881E+02  0.31185859979E+02  0.81356250895E+02  0.10080044845E+03  0.41800000000E+01 0. -1.
         -5    1    3    3    0  502 -0.86665349424E+01 -0.98060456728E+01 -0.37431031871E+02  0.39872570855E+02  0.41800000000E+01 0. -1.
        -11    1    1    2    0    0 -0.23950825995E+02  0.20428281196E+02 -0.25220461775E+02  0.40336440480E+02  0.00000000000E+00 0.  1.
         11    1    1    2    0    0 -0.17898582943E+02 -0.41808095503E+02  0.26791631986E+02  0.52783213860E+02  0.00000000000E+00 0. -1.
</event>
<event>
 7    1  0.2820496E-009  0.1428335E+03  0.7561462E-02  0.1209566E+00
          2   -1    0    0  501    0  0.00000000000E+00  0.00000000000E+00  0.46699349258E+03  0.46699349258E+03  0.00000000000E+00 0. -1.
         -2   -1    0    0    0  501 -0.00000000000E+00 -0.00000000000E+00 -0.56361436975E+02  0.56361436975E+02  0.00000000000E+00 0.  1.
         25    2    1    2    0    0  0.15593598498E+02 -0.96156874115E+02  0.33244352681E+03  0.36829524824E+03  0.12503354193E+03 0.  0.
          5    1    3    3  502    0  0.49841517841E+02  0.83469872831E+00  0.67198582080E+02  0.83773477046E+02  0.41800000000E+01 0. -1.
         -5    1    3    3    0  502 -0.34247919343E+02 -0.96991572843E+02  0.26524494473E+03  0.28452177120E+03  0.41800000000E+01 0. -1.
        -11    1    1    2    0    0  0.28030376712E+02  0.82274680406E+02  0.60873418695E+02  0.10611502324E+03  0.00000000000E+00 0. -1.
         11    1    1    2    0    0 -0.43623975210E+02  0.13882193709E+02  0.17315110099E+02  0.48944658065E+02  0.00000000000E+00 0.  1.
</event>
<event>
 7    1  0.2820496E-009  0.1349436E+03  0.7561462E-02  0.1220299E+00
         -3   -1    0    0    0  501 -0.00000000000E+00  0.00000000000E+00  0.73162995502E+03  0.73162995502E+03  0.00000000000E+00 0.  1.
          3   -1    0    0  501    0  0.00000000000E+00 -0.00000000000E+00 -0.35128767688E+02  0.35128767688E+02  0.00000000000E+00 0. -1.
         25    2    1    2    0    0 -0.10832139976E+03  0.41636251464E+02  0.32328060722E+03  0.36554709928E+03  0.12508887923E+03 0.  0.
          5    1    3    3  502    0 -0.55839822716E+02  0.64816011210E+02  0.28205867614E+03  0.29477749286E+03  0.41800000000E+01 0.  1.
         -5    1    3    3    0  502 -0.52481577046E+02 -0.23179759746E+02  0.41221931079E+02  0.70769606421E+02  0.41800000000E+01 0.  1.
        -11    1    1    2    0    0  0.97618023840E+02 -0.15991188556E+02  0.35364745596E+03  0.36722134986E+03  0.00000000000E+00 0.  1.
         11    1    1    2    0    0  0.10703375923E+02 -0.25645062909E+02  0.19573124152E+02  0.33990273562E+02  0.00000000000E+00 0. -1.
</event>
<event>
 7    1  0.2820496E-009  0.1121708E+03  0.7561462E-02  0.1256602E+00
         -2   -1    0    0    0  501 -0.00000000000E+00  0.00000000000E+00  0.20837527862E+02  0.20837527862E+02  0.00000000000E+00 0. -1.
          2   -1    0    0  501    0  0.00000000000E+00 -0.00000000000E+00 -0.93470103210E+03  0.93470103210E+03  0.00000000000E+00 0.  1.
         25    2    1    2    0    0  0.73031322118E+02  0.57938895226E+02 -0.47022058350E+03  0.49542506206E+03  0.12509238739E+03 0.  0.
          5    1    3    3  502    0  0.19238923095E+01 -0.55917915411E+01 -0.30143394312E+03  0.30152091795E+03  0.41800000000E+01 0. -1.
         -5    1    3    3    0  502  0.71107429809E+02  0.63530686768E+02 -0.16878664038E+03  0.19390414412E+03  0.41800000000E+01 0. -1.
        -11    1    1    2    0    0 -0.80319133209E+02 -0.70670984505E+02 -0.37776565725E+03  0.39262251974E+03  0.00000000000E+00 0.  1.
         11    1    1    2    0    0  0.72878110912E+01  0.12732089278E+02 -0.65877263493E+02  0.67490978162E+02  0.00000000000E+00 0. -1.
</event>
<event>
 7    1  0.2820496E-009  0.9692909E+02  0.7561462E-02  0.1286889E+00
          1   -1    0    0  501    0  0.00000000000E+00  0.00000000000E+00  0.28542624216E+03  0.28542624216E+03  0.00000000000E+00 0. -1.
         -1   -1    0    0    0  501 -0.00000000000E+00 -0.00000000000E+00 -0.58794801246E+02  0.58794801246E+02  0.00000000000E+00 0.  1.
         25    2    1    2    0    0 -0.69600372710E+02  0.14661356456E+02  0.13682160768E+03  0.19856154208E+03  0.12508943365E+03 0.  0.
          5    1    3    3  502    0 -0.42779758633E+02 -0.17693859219E+02 -0.84769429117E+01  0.47249458874E+02  0.41800000000E+01 0. -1.
         -5    1    3    3    0  502 -0.26820614077E+02  0.32355215675E+02  0.14529855059E+03  0.15131208321E+03  0.41800000000E+01 0. -1.
        -11    1    1    2    0    0  0.79413024751E+02  0.86175305433E+01  0.38946461107E+02  0.88867976040E+02  0.00000000000E+00 0.  1.
         11    1    1    2    0    0 -0.98126520415E+01 -0.23278886999E+02  0.50863372130E+02  0.56791525288E+02  0.00000000000E+00 0. -1.
</event>
<event>
 7    1  0.2820496E-009  0.1234921E+03  0.7561462E-02  0.1237445E+00
         -4   -1    0    0    0  501 -0.00000000000E+00  0.00000000000E+00  0.24809229605E+03  0.24809229605E+03  0.00000000000E+00 0. -1.
          4   -1    0    0  501    0  0.00000000000E+00 -0.00000000000E+00 -0.68485370193E+02  0.68485370193E+02  0.00000000000E+00 0.  1.
         25    2    1    2    0    0 -0.63136026968E+02 -0.31842400062E+02  0.98974890584E+02  0.17447896726E+03  0.12508710848E+03 0.  0.
          5    1    3    3  502    0 -0.89128832081E+02  0.38483779099E+01  0.94305690661E+02  0.12988377270E+03  0.41800000000E+01 0.  1.
         -5    1    3    3    0  502  0.25992805113E+02 -0.35690777972E+02  0.46691999229E+01  0.44595194559E+02  0.41800000000E+01 0.  1.
        -11    1    1    2    0    0  0.69657959084E+02 -0.10533110754E+02  0.66704266631E+02  0.97018744955E+02  0.00000000000E+00 0. -1.
         11    1    1    2    0    0 -0.65219321155E+01  0.42375510815E+02  0.13927768637E+02  0.45079954022E+02  0.00000000000E+00 0.  1.
</event>
<event>
 7    1  0.2820496E-009  0.6517072E+02  0.7561462E-02  0.1377330E+00
         -2   -1    0    0    0  501 -0.00000000000E+00  0.00000000000E+00  0.27561808385E+02  0.27561808385E+02  0.00000000000E+00 0.  1.
          2   -1    0    0  501    0  0.00000000000E+00 -0.00000000000E+00 -0.56024550800E+03  0.56024550800E+03  0.00000000000E+00 0. -1.
         25    2    1    2    0    0 -0.51190724910E+02  0.26123483712E+02 -0.34720776829E+03  0.37350126495E+03  0.12508810431E+03 0.  0.
          5    1    3    3  502    0 -0.29606829181E+02  0.25044105678E+02 -0.34922623381E+03  0.35139750475E+03  0.41800000000E+01 0.  1.
         -5    1    3    3    0  502 -0.21583895729E+02  0.10793780337E+01  0.20184655222E+01  0.22103760197E+02  0.41800000000E+01 0.  1.
        -11    1    1    2    0    0  0.46457809224E+02 -0.35736127102E+02 -0.19267813035E+03  0.20139578132E+03  0.00000000000E+00 0. -1.
         11    1    1    2    0    0  0.47329156866E+01  0.96126433905E+01  0.72021990211E+01  0.12910270121E+02  0.00000000000E+00 0.  1.
</event>
<event>
 7    1  0.2820496E-009  0.1079936E+03  0.7561462E-02  0.1264331E+00
         -2   -1    0    0    0  501 -0.00000000000E+00  0.00000000000E+00  0.40186917899E+02  0.40186917899E+02  0.00000000000E+00 0.  1.
          2   -1    0    0  501    0  0.00000000000E+00 -0.00000000000E+00 -0.35414536578E+03  0.35414536578E+03  0.00000000000E+00 0. -1.
         25    2    1    2    0    0  0.11504788752E+02  0.19239550718E+02 -0.24955871353E+03  0.28005908782E+03  0.12510403950E+03 0.  0.
          5    1    3    3  502    0  0.63033565944E+02  0.35939855219E+02 -0.13762509494E+03  0.15563753656E+03  0.41800000000E+01 0. -1.
         -5    1    3    3    0  502 -0.51528777192E+02 -0.16700304501E+02 -0.11193361859E+03  0.12442155126E+03  0.41800000000E+01 0. -1.
        -11    1    1    2    0    0  0.27284679673E+02 -0.37281072013E+02 -0.14230486067E+02  0.48340860656E+02  0.00000000000E+00 0.  1.
         11    1    1    2    0    0 -0.38789468425E+02  0.18041521295E+02 -0.50169248289E+02  0.65932335202E+02  0.00000000000E+00 0. -1.
</event>
<event>
 7    1  0.2820496E-009  0.1337598E+03  0.7561462E-02  0.1221981E+00
         -1   -1    0    0    0  501 -0.00000000000E+00  0.00000000000E+00  0.80733272728E+03  0.80733272728E+03  0.00000000000E+00 0.  1.
          1   -1    0    0  501    0  0.00000000000E+00 -0.00000000000E+00 -0.23101777554E+02  0.23101777554E+02  0.00000000000E+00 0. -1.
         25    2    1    2    0    0  0.25001948393E+02 -0.77992331343E+02  0.44142933245E+03  0.46606855471E+03  0.12510851677E+03 0.  0.
          5    1    3    3  502    0  0.70425467138E+02 -0.69113493609E+02  0.24370129914E+03  0.26295287985E+03  0.41800000000E+01 0. -1.
         -5    1    3    3    0  502 -0.45423518744E+02 -0.88788377340E+01  0.19772803332E+03  0.20311567486E+03  0.41800000000E+01 0. -1.
        -11    1    1    2    0    0  0.33792504770E+02  0.18002168335E+02  0.13214199907E+03  0.13757732139E+03  0.00000000000E+00 0.  1.
         11    1    1    2    0    0 -0.58794453163E+02  0.59990163008E+02  0.21065961821E+03  0.22678862873E+03  0.00000000000E+00 0. -1.
</event>
<event>
 7    1  0.3446645E-009  0.1275176E+03  0.7561462E-02  0.1231186E+00
          2   -1    0    0  501    0  0.00000000000E+00  0.00000000000E+00  0.30428123098E+03  0.30428123098E+03  0.00000000000E+00 0. -1.
         -2   -1    0    0    0  501 -0.00000000000E+00 -0.00000000000E+00 -0.56162967833E+02  0.56162967833E+02  0.00000000000E+00 0.  1.
         25    2    1    2    0    0  0.68597746854E+02  0.69958138324E+01  0.10530504088E+03  0.17745805861E+03  0.12509044187E+03 0.  0.
          5    1    3    3  502    0  0.64860930508E+01  0.60353996276E+02  0.44595187867E+02  0.75437904600E+02  0.41800000000E+01 0. -1.
         -5    1    3    3    0  502  0.62111653803E+02 -0.53358182444E+02  0.60709853016E+02  0.10202015401E+03  0.41800000000E+01 0. -1.
        -11    1    1    2    0    0  0.34664853697E+01 -0.34789165560E+02  0.28917934891E+02  0.45371241107E+02  0.00000000000E+00 0.  1.
         11    1    1    2    0    0 -0.72064232224E+02  0.27793351728E+02  0.11389528737E+03  0.13761489909E+03  0.00000000000E+00 0. -1.
</event>
<event>
 7    1  0.2820496E-009  0.1492244E+03  0.7561462E-02  0.1201429E+00
         -1   -1    0    0    0  501 -0.00000000000E+00  0.00000000000E+00  0.98346574687E+03  0.98346574687E+03  0.00000000000E+00 0.  1.
          1   -1    0    0  501    0  0.00000000000E+00 -0.00000000000E+00 -0.32822714699E+02  0.32822714699E+02  0.00000000000E+00 0. -1.
         25    2    1    2    0    0  0.10030063332E+03 -0.49194937415E+02  0.25759079118E+03  0.30737622937E+03  0.12508705677E+03 0.  0.
          5    1    3    3  502    0  0.77973363394E+02 -0.81176168950E+02  0.12120653928E+03  0.16546272501E+03  0.41800000000E+01 0.  1.
         -5    1    3    3    0  502  0.22327269922E+02  0.31981231535E+02  0.13638425190E+03  0.14191350436E+03  0.41800000000E+01 0.  1.
        -11    1    1    2    0    0 -0.34993598325E+02  0.69820271006E+02  0.43335600632E+03  0.44033720077E+03  0.00000000000E+00 0.  1.
         11    1    1    2    0    0 -0.65307034992E+02 -0.20625333590E+02  0.25969623467E+03  0.26857503143E+03  0.00000000000E+00 0. -1.
</event>
<event>
 7    1  0.2820496E-009  0.2443007E+03  0.7561462E-02  0.1116961E+00
         -2   -1    0    0    0  501 -0.00000000000E+00  0.00000000000E+00  0.57651585509E+02  0.57651585509E+02  0.00000000000E+00 0. -1.
          2   -1    0    0  501    0  0.00000000000E+00 -0.00000000000E+00 -0.11835289570E+04  0.11835289570E+04  0.00000000000E+00 0.  1.
         25    2    1    2    0    0  0.78966019491E+02  0.21575223285E+03 -0.71706318262E+03  0.76328903191E+03  0.12508349275E+03 0.  0.
          5    1    3    3  502    0  0.28322367611E+02  0.19580324292E+03 -0.46452734155E+03  0.50491998365E+03  0.41800000000E+01 0. -1.
         -5    1    3    3    0  502  0.50643651880E+02  0.19948989934E+02 -0.25253584107E+03  0.25836904826E+03  0.41800000000E+01 0. -1.
        -11    1    1    2    0    0 -0.33717063332E+02 -0.16378121785E+03 -0.34756085699E+03  0.38569376063E+03  0.00000000000E+00 0.  1.
         11    1    1    2    0    0 -0.45248956159E+02 -0.51971015000E+02 -0.61253331926E+02  0.92197750003E+02  0.00000000000E+00 0. -1.
</event>
<event>
 7    1  0.2820496E-009  0.7936862E+02  0.7561462E-02  0.1330853E+00
         -1   -1    0    0    0  501 -0.00000000000E+00  0.00000000000E+00  0.29206762216E+03  0.29206762216E+03  0.00000000000E+00 0.  1.
          1   -1    0    0  501    0  0.00000000000E+00 -0.00000000000E+00 -0.87461510718E+02  0.87461510718E+02  0.00000000000E+00 0. -1.
         25    2    1    2    0    0  0.25862386386E+01 -0.17786417568E+02 -0.28075007877E+02  0.12945301218E+03  0.12508729358E+03 0.  0.
          5    1    3    3  502    0  0.78110475850E+01 -0.42402042835E+02  0.38627787397E+02  0.58038987415E+02  0.41800000000E+01 0.  1.
         -5    1    3    3    0  502 -0.52248089463E+01  0.24615625267E+02 -0.66702795274E+02  0.71414024765E+02  0.41800000000E+01 0.  1.
        -11    1    1    2    0    0  0.27838256503E+02 -0.24995876206E+02  0.73717328359E+02  0.82668052190E+02  0.00000000000E+00 0. -1.
         11    1    1    2    0    0 -0.30424495142E+02  0.42782293774E+02  0.15896379096E+03  0.16740806851E+03  0.00000000000E+00 0.  1.
</event>
<event>
 7    1  0.2820496E-009  0.1042345E+03  0.7561462E-02  0.1271635E+00
          4   -1    0    0  501    0  0.00000000000E+00  0.00000000000E+00  0.69607575543E+03  0.69607575543E+03  0.00000000000E+00 0. -1.
         -4   -1    0    0    0  501 -0.00000000000E+00 -0.00000000000E+00 -0.17963725241E+02  0.17963725241E+02  0.00000000000E+00 0.  1.
         25    2    1    2    0    0 -0.18721480667E+02  0.21075829656E+02  0.42256535410E+03  0.44159211686E+03  0.12508970684E+03 0.  0.
          5    1    3    3  502    0 -0.64312836438E+00  0.67171197596E+02  0.14824840820E+03  0.16281107559E+03  0.41800000000E+01 0. -1.
         -5    1    3    3    0  502 -0.18078352303E+02 -0.46095367940E+02  0.27431694590E+03  0.27878104128E+03  0.41800000000E+01 0. -1.
        -11    1    1    2    0    0  0.34964243998E+01  0.34078694527E+02  0.13067826691E+03  0.13509401114E+03  0.00000000000E+00 0. -1.
         11    1    1    2    0    0  0.15225056267E+02 -0.55154524183E+02  0.12486840918E+03  0.13735335266E+03  0.00000000000E+00 0.  1.
</event>
<event>
 7    1  0.2820496E-009  0.7543767E+02  0.7561462E-02  0.1342521E+00
          1   -1    0    0  501    0  0.00000000000E+00  0.00000000000E+00  0.21359946480E+03  0.21359946480E+03  0.00000000000E+00 0. -1.
         -1   -1    0    0    0  501 -0.00000000000E+00 -0.00000000000E+00 -0.54091661650E+02  0.54091661650E+02  0.00000000000E+00 0.  1.
         25    2    1    2    0    0  0.14442006305E+02  0.10090848009E+02  0.10944130858E+03  0.16713911228E+03  0.12509071136E+03 0.  0.
          5    1    3    3  502    0  0.30251778672E+02  0.49903027718E+02  0.10769514557E+02  0.59488966474E+02  0.41800000000E+01 0. -1.
         -5    1    3    3    0  502 -0.15809772367E+02 -0.39812179709E+02  0.98671794023E+02  0.10765014580E+03  0.41800000000E+01 0. -1.
        -11    1    1    2    0    0  0.78121258812E+01 -0.22522175498E+02 -0.16685906593E+02  0.29098061426E+02  0.00000000000E+00 0.  1.
         11    1    1    2    0    0 -0.22254132187E+02  0.12431327488E+02  0.66752401163E+02  0.71453952750E+02  0.00000000000E+00 0. -1.
</event>
<event>
 7    1  0.2820496E-009  0.1207190E+03  0.7561462E-02  0.1241916E+00
         -1   -1    0    0    0  501 -0.00000000000E+00  0.00000000000E+00  0.38571984145E+02  0.38571984145E+02  0.00000000000E+00 0.  1.
          1   -1    0    0  501    0  0.00000000000E+00 -0.00000000000E+00 -0.67732129405E+03  0.67732129405E+03  0.00000000000E+00 0. -1.
         25    2    1    2    0    0  0.49346190632E+02 -0.66855923865E+02 -0.53363647315E+03  0.55436418557E+03  0.12508798374E+03 0.  0.
          5    1    3    3  502    0  0.96672442686E+01  0.37235436398E+02 -0.13721997665E+03  0.14257183357E+03  0.41800000000E+01 0. -1.
         -5    1    3    3    0  502  0.39678946364E+02 -0.10409136026E+03 -0.39641649650E+03  0.41179235200E+03  0.41800000000E+01 0. -1.
        -11    1    1    2    0    0 -0.67594391207E+01  0.40765923427E+02  0.40136363586E+01  0.41516982150E+02  0.00000000000E+00 0.  1.
         11    1    1    2    0    0 -0.42586751512E+02  0.26090000438E+02 -0.10912647311E+03  0.12001211048E+03  0.00000000000E+00 0. -1.
</event>
<event>
 7    1  0.2820496E-009  0.7824353E+02  0.7561462E-02  0.1334111E+00
         -2   -1    0    0    0  501 -0.00000000000E+00  0.00000000000E+00  0.14854617144E+02  0.14854617144E+02  0.00000000000E+00 0.  1.
          2   -1    0    0  501    0  0.00000000000E+00 -0.00000000000E+00 -0.94527468781E+03  0.94527468781E+03  0.00000000000E+00 0. -1.
         25    2    1    2    0    0 -0.17863192270E+02 -0.49252904558E+01 -0.75556586011E+03  0.76608045657E+03  0.12512451741E+03 0.  0.
          5    1    3    3  502    0  0.83609451604E+01  0.43338815014E+02 -0.58848231184E+03  0.59015003350E+03  0.41800000000E+01 0. -1.
         -5    1    3    3    0  502 -0.26224137431E+02 -0.48264105470E+02 -0.16708354827E+03  0.17593042307E+03  0.41800000000E+01 0. -1.
        -11    1    1    2    0    0  0.24819314475E+02 -0.19566123178E+02 -0.16287218624E+03  0.16591015821E+03  0.00000000000E+00 0. -1.
         11    1    1    2    0    0 -0.69561222046E+01  0.24491413634E+02 -0.11982024325E+02  0.28138690177E+02  0.00000000000E+00 0.  1.
</event>
<event>
 7    1  0.2820496E-009  0.1153862E+03  0.7561462E-02  0.1250908E+00
         -1   -1    0    0    0  501 -0.00000000000E+00  0.00000000000E+00  0.12230310939E+03  0.12230310939E+03  0.00000000000E+00 0.  1.
          1   -1    0    0  501    0  0.00000000000E+00 -0.00000000000E+00 -0.14676894358E+03  0.14676894358E+03  0.00000000000E+00 0. -1.
         25    2    1    2    0    0 -0.80790902407E+02  0.63620008696E+01 -0.94674871790E+01  0.14934965328E+03  0.12509212867E+03 0.  0.
          5    1    3    3  502    0  0.81505867449E+01 -0.17605520165E+02 -0.46053517082E+02  0.50147634443E+02  0.41800000000E+01 0. -1.
         -5    1    3    3    0  502 -0.88941489152E+02  0.23967521034E+02  0.36586029903E+02  0.99202018836E+02  0.41800000000E+01 0. -1.
        -11    1    1    2    0    0  0.17246819729E+02 -0.42323960550E+02 -0.38985716690E+01  0.45869044992E+02  0.00000000000E+00 0. -1.
         11    1    1    2    0    0  0.63544082678E+02  0.35961959681E+02 -0.11099775339E+02  0.73853354698E+02  0.00000000000E+00 0.  1.
</event>
<event>
 7    1  0.2820496E-009  0.6968848E+02  0.7561462E-02  0.1361156E+00
         -2   -1    0    0    0  501 -0.00000000000E+00  0.00000000000E+00  0.22300107644E+03  0.22300107644E+03  0.00000000000E+00 0.  1.
          2   -1    0    0  501    0  0.00000000000E+00 -0.00000000000E+00 -0.60653576209E+02  0.60653576209E+02  0.00000000000E+00 0. -1.
         25    2    1    2    0    0 -0.53112191198E+01  0.36700974609E+02  0.73653713002E+02  0.14982271039E+03  0.12508718769E+03 0.  0.
          5    1    3    3  502    0  0.64128957852E+01 -0.30393891110E+02  0.75300530624E+02  0.81563203476E+02  0.41800000000E+01 0.  1.
         -5    1    3    3    0  502 -0.11724114905E+02  0.67094865719E+02 -0.16468176221E+01  0.68259506916E+02  0.41800000000E+01 0.  1.
        -11    1    1    2    0    0 -0.36836267859E+01 -0.23702761442E+02  0.10699413575E+03  0.10965005741E+03  0.00000000000E+00 0.  1.
         11    1    1    2    0    0  0.89948459057E+01 -0.12998213167E+02 -0.18300348522E+02  0.24181884840E+02  0.00000000000E+00 0. -1.
</event>
<event>
 7    1  0.2820496E-009  0.8819488E+02  0.7561462E-02  0.1307283E+00
          2   -1    0    0  501    0  0.00000000000E+00  0.00000000000E+00  0.99748483547E+02  0.99748483547E+02  0.00000000000E+00 0. -1.
         -2   -1    0    0    0  501 -0.00000000000E+00 -0.00000000000E+00 -0.14489944001E+03  0.14489944001E+03  0.00000000000E+00 0.  1.
         25    2    1    2    0    0  0.96852709755E-01 -0.41786458194E+02 -0.59148196133E+02  0.14454095691E+03  0.12508981433E+03 0.  0.
          5    1    3    3  502    0 -0.46901704534E+02  0.78947436717E+01 -0.59161605050E+02  0.76024106558E+02  0.41800000000E+01 0.  1.
         -5    1    3    3    0  502  0.46998557244E+02 -0.49681201866E+02  0.13408917157E-01  0.68516850348E+02  0.41800000000E+01 0.  1.
        -11    1    1    2    0    0  0.20565240928E+02  0.11793304938E+02  0.45918342802E+02  0.51676932779E+02  0.00000000000E+00 0. -1.
         11    1    1    2    0    0 -0.20662093638E+02  0.29993153256E+02 -0.31921103135E+02  0.48430033875E+02  0.00000000000E+00 0.  1.
</event>
<event>
 7    1  0.2820496E-009  0.1015007E+03  0.7561462E-02  0.1277171E+00
         -3   -1    0    0    0  501 -0.00000000000E+00  0.00000000000E+00  0.26652633548E+03  0.26652633548E+03  0.00000000000E+00 0.  1.
          3   -1    0    0  501    0  0.00000000000E+00 -0.00000000000E+00 -0.96048780540E+02  0.96048780540E+02  0.00000000000E+00 0. -1.
         25    2    1    2    0    0  0.84415599597E+02  0.17480524334E+02  0.49371446181E+01  0.15198363645E+03  0.12507233174E+03 0.  0.
          5    1    3    3  502    0  0.47578785347E+02  0.25596735083E+02  0.62698341619E+02  0.82870308940E+02  0.41800000000E+01 0.  1.
         -5    1    3    3    0  502  0.36836814249E+02 -0.81162107497E+01 -0.57761197001E+02  0.69113327514E+02  0.41800000000E+01 0.  1.
        -11    1    1    2    0    0  0.10373190045E+02 -0.12074992981E+02  0.83832409649E+02  0.85330425024E+02  0.00000000000E+00 0.  1.
         11    1    1    2    0    0 -0.94788789642E+02 -0.54055313526E+01  0.81708000671E+02  0.12526105454E+03  0.00000000000E+00 0. -1.
</event>
<event>
 7    1  0.2820496E-009  0.1227944E+03  0.7561462E-02  0.1238557E+00
          1   -1    0    0  501    0  0.00000000000E+00  0.00000000000E+00  0.13540609500E+03  0.13540609500E+03  0.00000000000E+00 0.  1.
         -1   -1    0    0    0  501 -0.00000000000E+00 -0.00000000000E+00 -0.12004530198E+03  0.12004530198E+03  0.00000000000E+00 0. -1.
         25    2    1    2    0    0 -0.47459927517E+02  0.34060240857E+02  0.39888396876E+02  0.14370512584E+03  0.12509010456E+03 0.  0.
          5    1    3    3  502    0  0.31579292522E+02  0.47816514038E+02  0.21045557769E+02  0.61188713279E+02  0.41800000000E+01 0.  1.
         -5    1    3    3    0  502 -0.79039220040E+02 -0.13756273180E+02  0.18842839107E+02  0.82516412561E+02  0.41800000000E+01 0.  1.
        -11    1    1    2    0    0  0.35759883046E+02 -0.65293268449E+02 -0.24568077646E+02  0.78393689666E+02  0.00000000000E+00 0. -1.
         11    1    1    2    0    0  0.11700044471E+02  0.31233027591E+02  0.40473795468E-01  0.33352581478E+02  0.00000000000E+00 0.  1.
</event>
<event>
 7    1  0.2820496E-009  0.1175484E+03  0.7561462E-02  0.1247197E+00
          2   -1    0    0  501    0  0.00000000000E+00  0.00000000000E+00  0.10308967824E+03  0.10308967824E+03  0.00000000000E+00 0. -1.
         -2   -1    0    0    0  501 -0.00000000000E+00 -0.00000000000E+00 -0.14255007681E+03  0.14255007681E+03  0.00000000000E+00 0.  1.
         25    2    1    2    0    0 -0.34445831677E+02 -0.40571002055E+02 -0.16703318973E+02  0.13696289620E+03  0.12508921833E+03 0.  0.
          5    1    3    3  502    0 -0.45084795652E+02  0.31948966203E+02  0.14361114692E+02  0.57245866713E+02  0.41800000000E+01 0. -1.
         -5    1    3    3    0  502  0.10638963975E+02 -0.72519968259E+02 -0.31064433666E+02  0.79717029484E+02  0.41800000000E+01 0. -1.
        -11    1    1    2    0    0 -0.29785063549E+02 -0.92111188319E+00 -0.66095130885E+01  0.30523501126E+02  0.00000000000E+00 0.  1.
         11    1    1    2    0    0  0.64230895226E+02  0.41492113939E+02 -0.16147566509E+02  0.78153357732E+02  0.00000000000E+00 0. -1.
</event>
<event>
 7    1  0.3079649E-009  0.8062222E+02  0.7561462E-02  0.1327295E+00
         -2   -1    0    0    0  501 -0.00000000000E+00  0.00000000000E+00  0.12076782400E+03  0.12076782400E+03  0.00000000000E+00 0.  1.
          2   -1    0    0  501    0  0.00000000000E+00 -0.00000000000E+00 -0.13004196514E+03  0.13004196514E+03  0.00000000000E+00 0. -1.
         25    2    1    2    0    0 -0.29614286432E+02  0.30421547831E+02  0.39975369838E+02  0.13801510446E+03  0.12509061648E+03 0.  0.
          5    1    3    3  502    0 -0.54762904051E+01  0.59513598520E+02  0.68108064327E+02  0.90708538693E+02  0.41800000000E+01 0.  1.
         -5    1    3    3    0  502 -0.24137996027E+02 -0.29092050690E+02 -0.28132694489E+02  0.47306565768E+02  0.41800000000E+01 0.  1.
        -11    1    1    2    0    0  0.42289921275E+02 -0.19499573591E+02  0.12988835709E+02  0.48346464863E+02  0.00000000000E+00 0. -1.
         11    1    1    2    0    0 -0.12675634842E+02 -0.10921974239E+02 -0.62238346686E+02  0.64448219822E+02  0.00000000000E+00 0.  1.
</event>
<event>
 7    1  0.2820496E-009  0.1050268E+03  0.7561462E-02  0.1270067E+00
         -1   -1    0    0    0  501 -0.00000000000E+00  0.00000000000E+00  0.10596536915E+03  0.10596536915E+03  0.00000000000E+00 0.  1.
          1   -1    0    0  501    0  0.00000000000E+00 -0.00000000000E+00 -0.20389770053E+03  0.20389770053E+03  0.00000000000E+00 0. -1.
         25    2    1    2    0    0 -0.33211833355E+02 -0.42987720316E+02  0.34527844653E+02  0.14066846558E+03  0.12507787645E+03 0.  0.
          5    1    3    3  502    0 -0.75589789231E+02 -0.17026230598E+00  0.14789226731E+02  0.77136494946E+02  0.41800000000E+01 0. -1.
         -5    1    3    3    0  502  0.42377955876E+02 -0.42817458010E+02  0.19738617922E+02  0.63531970630E+02  0.41800000000E+01 0. -1.
        -11    1    1    2    0    0 -0.99797411469E+01  0.25462867247E+02  0.14669277298E+01  0.27388039703E+02  0.00000000000E+00 0.  1.
         11    1    1    2    0    0  0.43191574502E+02  0.17524853069E+02 -0.13392710376E+03  0.14180656439E+03  0.00000000000E+00 0. -1.
</event>
<event>
 7    1  0.2820496E-009  0.2731059E+03  0.7561462E-02  0.1099515E+00
         -3   -1    0    0    0  501 -0.00000000000E+00  0.00000000000E+00  0.58495931257E+02  0.58495931257E+02  0.00000000000E+00 0.  1.
          3   -1    0    0  501    0  0.00000000000E+00 -0.00000000000E+00 -0.15165973134E+04  0.15165973134E+04  0.00000000000E+00 0. -1.
         25    2    1    2    0    0 -0.47231664337E+02 -0.25406094182E+03 -0.10137223598E+04  0.10535940612E+04  0.12509848379E+03 0.  0.
          5    1    3    3  502    0  0.32497597173E+02 -0.82237801474E+02 -0.21105761494E+03  0.22887100960E+03  0.41800000000E+01 0. -1.
         -5    1    3    3    0  502 -0.79729261510E+02 -0.17182314035E+03 -0.80266474490E+03  0.82472305158E+03  0.41800000000E+01 0. -1.
        -11    1    1    2    0    0 -0.16889248687E+02  0.98919242614E+02 -0.21487921720E+03  0.23715678626E+03  0.00000000000E+00 0.  1.
         11    1    1    2    0    0  0.64120913024E+02  0.15514169921E+03 -0.22949980515E+03  0.28434239726E+03  0.00000000000E+00 0. -1.
</event>
<event>
 7    1  0.2820496E-009  0.1102315E+03  0.7561462E-02  0.1260142E+00
          1   -1    0    0  501    0  0.00000000000E+00  0.00000000000E+00  0.21646576657E+03  0.21646576657E+03  0.00000000000E+00 0. -1.
         -1   -1    0    0    0  501 -0.00000000000E+00 -0.00000000000E+00 -0.14823644993E+03  0.14823644993E+03  0.00000000000E+00 0.  1.
         25    2    1    2    0    0  0.37174484454E+02  0.80188812937E+02  0.14893173240E+03  0.21363580791E+03  0.12508960584E+03 0.  0.
          5    1    3    3  502    0 -0.16798451361E+02 -0.10963009619E+02 -0.98341715408E+01  0.22727931669E+02  0.41800000000E+01 0.  1.
         -5    1    3    3    0  502  0.53972935816E+02  0.91151822557E+02  0.15876590395E+03  0.19090787624E+03  0.41800000000E+01 0.  1.
        -11    1    1    2    0    0  0.56166681962E+01 -0.14612661711E+02 -0.70363633340E+02  0.72084101859E+02  0.00000000000E+00 0.  1.
         11    1    1    2    0    0 -0.42791152650E+02 -0.65576151226E+02 -0.10338782423E+02  0.78982306733E+02  0.00000000000E+00 0. -1.
</event>
<event>
 7    1  0.2820496E-009  0.1876436E+03  0.7561462E-02  0.1160604E+00
          1   -1    0    0  501    0  0.00000000000E+00  0.00000000000E+00  0.48144512216E+03  0.48144512216E+03  0.00000000000E+00 0. -1.
         -1   -1    0    0    0  501 -0.00000000000E+00 -0.00000000000E+00 -0.86639589630E+02  0.86639589630E+02  0.00000000000E+00 0.  1.
         25    2    1    2    0    0  0.97526789495E+02 -0.11848426620E+03  0.94941186576E+02  0.21956982761E+03  0.12508830593E+03 0.  0.
          5    1    3    3  502    0  0.33396926677E+02 -0.12839020216E+03  0.68646338700E+02  0.14942955176E+03  0.41800000000E+01 0. -1.
         -5    1    3    3    0  502  0.64129862818E+02  0.99059359529E+01  0.26294847877E+02  0.70140275855E+02  0.41800000000E+01 0. -1.
        -11    1    1    2    0    0 -0.86026765123E+02  0.34372567067E+02  0.16144443621E+03  0.18613539069E+03  0.00000000000E+00 0.  1.
         11    1    1    2    0    0 -0.11500024372E+02  0.84111699136E+02  0.13841990974E+03  0.16237949348E+03  0.00000000000E+00 0. -1.
</event>
<event>
 7    1  0.2820496E-009  0.1121256E+03  0.7561462E-02  0.1256684E+00
          2   -1    0    0  501    0  0.00000000000E+00  0.00000000000E+00  0.69506550150E+03  0.69506550150E+03  0.00000000000E+00 0. -1.
         -2   -1    0    0    0  501 -0.00000000000E+00 -0.00000000000E+00 -0.25086821096E+02  0.25086821096E+02  0.00000000000E+00 0.  1.
         25    2    1    2    0    0 -0.29051475977E+02 -0.64841613329E+02  0.36977746275E+03  0.39677825542E+03  0.12509671835E+03 0.  0.
          5    1    3    3  502    0 -0.51661156667E+02 -0.77512374626E+02  0.35416437555E+03  0.36623342370E+03  0.41800000000E+01 0. -1.
         -5    1    3    3    0  502  0.22609680690E+02  0.12670761297E+02  0.15613087200E+02  0.30544831718E+02  0.41800000000E+01 0. -1.
        -11    1    1    2    0    0 -0.25804644046E+02  0.11542279605E+02  0.24984657669E+02  0.37727138663E+02  0.00000000000E+00 0.  1.
         11    1    1    2    0    0  0.54856120023E+02  0.53299333724E+02  0.27521655999E+03  0.28564692852E+03  0.00000000000E+00 0. -1.
</event>
<event>
 7    1  0.2820496E-009  0.1120078E+03  0.7561462E-02  0.1256896E+00
         -2   -1    0    0    0  501 -0.00000000000E+00  0.00000000000E+00  0.61582608063E+02  0.61582608063E+02  0.00000000000E+00 0.  1.
          2   -1    0    0  501    0  0.00000000000E+00 -0.00000000000E+00 -0.23558577966E+03  0.23558577966E+03  0.00000000000E+00 0. -1.
         25    2    1    2    0    0 -0.16805853405E+02 -0.30896073343E+02 -0.15151923034E+03  0.19960709744E+03  0.12509161495E+03 0.  0.
          5    1    3    3  502    0 -0.33524679824E+02 -0.74721678816E+02 -0.10693044455E+03  0.13475468754E+03  0.41800000000E+01 0.  1.
         -5    1    3    3    0  502  0.16718826420E+02  0.43825605473E+02 -0.44588785789E+02  0.64852409902E+02  0.41800000000E+01 0.  1.
        -11    1    1    2    0    0 -0.29032467654E+02  0.38743087019E+02 -0.10571547706E+02  0.49554703013E+02  0.00000000000E+00 0. -1.
         11    1    1    2    0    0  0.45838321058E+02 -0.78470136764E+01 -0.11912393554E+02  0.48006587270E+02  0.00000000000E+00 0.  1.
</event>
<event>
 7    1  0.2820496E-009  0.8917466E+02  0.7561462E-02  0.1304863E+00
          1   -1    0    0  501    0  0.00000000000E+00  0.00000000000E+00  0.24342849391E+03  0.24342849391E+03  0.00000000000E+00 0. -1.
         -1   -1    0    0    0  501 -0.00000000000E+00 -0.00000000000E+00 -0.61774160175E+02  0.61774160175E+02  0.00000000000E+00 0.  1.
         25    2    1    2    0    0 -0.81119123755E+01 -0.55488599841E+02  0.11058118482E+03  0.17612516944E+03  0.12508832495E+03 0.  0.
          5    1    3    3  502    0 -0.21186182231E+02  0.28759923496E+02  0.75899354672E+02  0.83989118084E+02  0.41800000000E+01 0. -1.
         -5    1    3    3    0  502  0.13074269856E+02 -0.84248523337E+02  0.34681830144E+02  0.92136051352E+02  0.41800000000E+01 0. -1.
        -11    1    1    2    0    0 -0.24952241780E+01  0.12574092105E+02 -0.22326323977E+02  0.25744876739E+02  0.00000000000E+00 0.  1.
         11    1    1    2    0    0  0.10607136554E+02  0.42914507736E+02  0.93399472898E+02  0.10333260791E+03  0.00000000000E+00 0. -1.
</event>
<event>
 7    1  0.2820496E-009  0.1034429E+03  0.7561462E-02  0.1273218E+00
         -2   -1    0    0    0  501 -0.00000000000E+00  0.00000000000E+00  0.27337399877E+02  0.27337399877E+02  0.00000000000E+00 0. -1.
          2   -1    0    0  501    0  0.00000000000E+00 -0.00000000000E+00 -0.45013899177E+03  0.45013899177E+03  0.00000000000E+00 0.  1.
         25    2    1    2    0    0  0.19017689725E+02 -0.10190677476E+02 -0.20963828563E+03  0.24507286217E+03  0.12508786729E+03 0.  0.
          5    1    3    3  502    0  0.36850750856E+01  0.54394339072E+02 -0.59203635864E+02  0.80590736446E+02  0.41800000000E+01 0. -1.
         -5    1    3    3    0  502  0.15332614639E+02 -0.64585016548E+02 -0.15043464976E+03  0.16448212573E+03  0.41800000000E+01 0. -1.
        -11    1    1    2    0    0  0.18737827066E+02  0.35569252995E+02 -0.14487411260E+03  0.15034888234E+03  0.00000000000E+00 0.  1.
         11    1    1    2    0    0 -0.37755516791E+02 -0.25378575519E+02 -0.68289193668E+02  0.82054647128E+02  0.00000000000E+00 0. -1.
</event>
<event>
 7    1  0.2820496E-009  0.1306185E+03  0.7561462E-02  0.1226541E+00
         -1   -1    0    0    0  501 -0.00000000000E+00  0.00000000000E+00  0.18180244224E+03  0.18180244224E+03  0.00000000000E+00 0.  1.
          1   -1    0    0  501    0  0.00000000000E+00 -0.00000000000E+00 -0.14571586367E+03  0.14571586367E+03  0.00000000000E+00 0. -1.
         25    2    1    2    0    0  0.81989942771E+02 -0.54041873969E+02 -0.51338803688E+02  0.16711091947E+03  0.12509001473E+03 0.  0.
          5    1    3    3  502    0 -0.18299752639E+02  0.12672818691E+02  0.17219368945E+02  0.28451016626E+02  0.41800000000E+01 0. -1.
         -5    1    3    3    0  502  0.10028969541E+03 -0.66714692660E+02 -0.68558172633E+02  0.13865990284E+03  0.41800000000E+01 0. -1.
        -11    1    1    2    0    0 -0.73814881816E+02  0.11454492033E+02  0.90006325086E+02  0.11696572455E+03  0.00000000000E+00 0.  1.
         11    1    1    2    0    0 -0.81750609551E+01  0.42587381935E+02 -0.25809428329E+01  0.43441661889E+02  0.00000000000E+00 0. -1.
</event>
<event>
 7    1  0.2820496E-009  0.2091504E+03  0.7561462E-02  0.1142241E+00
          1   -1    0    0  501    0  0.00000000000E+00  0.00000000000E+00  0.12498817621E+03  0.12498817621E+03  0.00000000000E+00 0. -1.
         -1   -1    0    0    0  501 -0.00000000000E+00 -0.00000000000E+00 -0.41092341005E+03  0.41092341005E+03  0.00000000000E+00 0.  1.
         25    2    1    2    0    0  0.11803878831E+03  0.14734089026E+03 -0.22130683724E+03  0.31664925590E+03  0.12509013375E+03 0.  0.
          5    1    3    3  502    0  0.57078525317E+02  0.14054586124E+03 -0.10325853557E+03  0.18355079606E+03  0.41800000000E+01 0.  1.
         -5    1    3    3    0  502  0.60960262996E+02  0.67950290143E+01 -0.11804830168E+03  0.13309845984E+03  0.41800000000E+01 0.  1.
        -11    1    1    2    0    0 -0.86756139864E+02 -0.15040921783E+03 -0.70289734993E+02  0.18732380377E+03  0.00000000000E+00 0.  1.
         11    1    1    2    0    0 -0.31282648449E+02  0.30683275717E+01  0.56613383987E+01  0.31938526587E+02  0.00000000000E+00 0. -1.
</event>
<event>
 7    1  0.2820496E-009  0.4069561E+03  0.7561462E-02  0.1041397E+00
         -1   -1    0    0    0  501 -0.00000000000E+00  0.00000000000E+00  0.12781016594E+04  0.12781016594E+04  0.00000000000E+00 0.  1.
          1   -1    0    0  501    0  0.00000000000E+00 -0.00000000000E+00 -0.19606483392E+03  0.19606483392E+03  0.00000000000E+00 0. -1.
         25    2    1    2    0    0  0.30473779041E+03  0.25392848795E+03  0.96505217363E+03  0.10508646970E+04  0.12508443429E+03 0.  0.
          5    1    3    3  502    0  0.26720736890E+03  0.26483507276E+03  0.88618934542E+03  0.96274940774E+03  0.41800000000E+01 0. -1.
         -5    1    3    3    0  502  0.37530421516E+02 -0.10906584809E+02  0.78862828207E+02  0.88115289276E+02  0.41800000000E+01 0. -1.
        -11    1    1    2    0    0 -0.21991252255E+03 -0.20386881069E+03  0.12412662242E+03  0.32454803641E+03  0.00000000000E+00 0.  1.
         11    1    1    2    0    0 -0.84825267866E+02 -0.50059677255E+02 -0.71419705442E+01  0.98753759921E+02  0.00000000000E+00 0. -1.
</event>
<event>
 7    1  0.2820496E-009  0.1250110E+03  0.7561462E-02  0.1235052E+00
         -1   -1    0    0    0  501 -0.00000000000E+00  0.00000000000E+00  0.92888584583E+03  0.92888584583E+03  0.00000000000E+00 0.  1.
          1   -1    0    0  501    0  0.00000000000E+00 -0.00000000000E+00 -0.21479647666E+02  0.21479647666E+02  0.00000000000E+00 0. -1.
         25    2    1    2    0    0  0.54135308731E+02  0.64860404902E+02  0.56014151795E+03  0.58012393455E+03  0.12509098902E+03 0.  0.
          5    1    3    3  502    0  0.67788054031E+02  0.14722279248E+02  0.13537571936E+03  0.15217103393E+03  0.41800000000E+01 0. -1.
         -5    1    3    3    0  502 -0.13652745300E+02  0.50138125654E+02  0.42476579859E+03  0.42795290062E+03  0.41800000000E+01 0. -1.
        -11    1    1    2    0    0  0.78706510705E+01  0.21034690476E+02  0.61487548559E+02  0.65460858378E+02  0.00000000000E+00 0.  1.
         11    1    1    2    0    0 -0.62005959801E+02 -0.85895095378E+02  0.28577713166E+03  0.30478070057E+03  0.00000000000E+00 0. -1.
</event>
<event>
 7    1  0.2820496E-009  0.1311367E+03  0.7561462E-02  0.1225779E+00
         -1   -1    0    0    0  501 -0.00000000000E+00  0.00000000000E+00  0.36987246441E+03  0.36987246441E+03  0.00000000000E+00 0.  1.
          1   -1    0    0  501    0  0.00000000000E+00 -0.00000000000E+00 -0.60395072812E+02  0.60395072812E+02  0.00000000000E+00 0. -1.
         25    2    1    2    0    0  0.52935486698E+02 -0.87814642982E+02  0.18988746035E+03  0.24943658357E+03  0.12509110420E+03 0.  0.
          5    1    3    3  502    0  0.41834931503E+02 -0.10138487331E+03  0.74506722851E+02  0.13265661755E+03  0.41800000000E+01 0. -1.
         -5    1    3    3    0  502  0.11100555195E+02  0.13570230331E+02  0.11538073750E+03  0.11677996602E+03  0.41800000000E+01 0. -1.
        -11    1    1    2    0    0  0.21715008007E+02  0.40949935494E+02  0.52687362013E+02  0.70174047237E+02  0.00000000000E+00 0.  1.
         11    1    1    2    0    0 -0.74650494706E+02  0.46864707488E+02  0.66902569238E+02  0.11065690642E+03  0.00000000000E+00 0. -1.
</event>
<event>
 7    1  0.2820496E-009  0.2247382E+03  0.7561462E-02  0.1130399E+00
          1   -1    0    0  501    0  0.00000000000E+00  0.00000000000E+00  0.81509219919E+02  0.81509219919E+02  0.00000000000E+00 0. -1.
         -1   -1    0    0    0  501 -0.00000000000E+00 -0.00000000000E+00 -0.90192532533E+03  0.90192532533E+03  0.00000000000E+00 0.  1.
         25    2    1    2    0    0  0.91195838862E+02 -0.18020740210E+03 -0.15935902216E+03  0.28606583541E+03  0.12508787091E+03 0.  0.
          5    1    3    3  502    0  0.80589395127E+02 -0.19941715841E+03 -0.14677715658E+03  0.26042822383E+03  0.41800000000E+01 0. -1.
         -5    1    3    3    0  502  0.10606443735E+02  0.19209756308E+02 -0.12581865574E+02  0.25637611578E+02  0.41800000000E+01 0. -1.
        -11    1    1    2    0    0 -0.36032352094E+02  0.13779690883E+03 -0.53214744321E+03  0.55087858898E+03  0.00000000000E+00 0.  1.
         11    1    1    2    0    0 -0.55163486769E+02  0.42410493271E+02 -0.12890964004E+03  0.14649012085E+03  0.00000000000E+00 0. -1.
</event>
<event>
 7    1  0.2820496E-009  0.1277933E+03  0.7561462E-02  0.1230767E+00
          1   -1    0    0  501    0  0.00000000000E+00  0.00000000000E+00  0.18317654097E+03  0.18317654097E+03  0.00000000000E+00 0. -1.
         -1   -1    0    0    0  501 -0.00000000000E+00 -0.00000000000E+00 -0.10346269850E+03  0.10346269850E+03  0.00000000000E+00 0.  1.
         25    2    1    2    0    0  0.72402016345E+02  0.21722597875E+02  0.82940325625E+02  0.16804814060E+03  0.12508859546E+03 0.  0.
          5    1    3    3  502    0  0.10364179156E+03 -0.35823670569E+00  0.42133045422E+02  0.11195720257E+03  0.41800000000E+01 0. -1.
         -5    1    3    3    0  502 -0.31239775215E+02  0.22080834581E+02  0.40807280203E+02  0.56090938028E+02  0.41800000000E+01 0. -1.
        -11    1    1    2    0    0 -0.76020146576E+02  0.14146871256E+02 -0.18387510974E+02  0.79481426834E+02  0.00000000000E+00 0.  1.
         11    1    1    2    0    0  0.36181302314E+01 -0.35869469131E+02  0.15161027821E+02  0.39109672035E+02  0.00000000000E+00 0. -1.
</event>
<event>
 7    1  0.2820496E-009  0.1111863E+03  0.7561462E-02  0.1258389E+00
         -2   -1    0    0    0  501 -0.00000000000E+00  0.00000000000E+00  0.22296986215E+03  0.22296986215E+03  0.00000000000E+00 0. -1.
          2   -1    0    0  501    0  0.00000000000E+00 -0.00000000000E+00 -0.73758253914E+02  0.73758253914E+02  0.00000000000E+00 0.  1.
         25    2    1    2    0    0  0.49909858585E+02  0.46753504233E+02  0.67876899580E+02  0.15789330953E+03  0.12508452964E+03 0.  0.
          5    1    3    3  502    0  0.33219020891E+02  0.71968348962E+02  0.90143272399E+02  0.12010923595E+03  0.41800000000E+01 0.  1.
         -5    1    3    3    0  502  0.16690837695E+02 -0.25214844729E+02 -0.22266372819E+02  0.37784073578E+02  0.41800000000E+01 0. -1.
        -11    1    1    2    0    0 -0.70189340337E+02 -0.10553908228E+02  0.53199594362E+02  0.88702453834E+02  0.00000000000E+00 0.  1.
         11    1    1    2    0    0  0.20279481752E+02 -0.36199596005E+02  0.28135114290E+02  0.50132352699E+02  0.00000000000E+00 0. -1.
</event>
<event>
 7    1  0.3937668E-009  0.1405589E+03  0.7561462E-02  0.1212579E+00
         -2   -1    0    0    0  501 -0.00000000000E+00  0.00000000000E+00  0.37554969865E+02  0.37554969865E+02  0.00000000000E+00 0.  1.
          2   -1    0    0  501    0  0.00000000000E+00 -0.00000000000E+00 -0.76107442642E+03  0.76107442642E+03  0.00000000000E+00 0. -1.
         25    2    1    2    0    0  0.28823728242E+02  0.11253268362E+03 -0.25218745086E+03  0.30453368696E+03  0.12509134234E+03 0.  0.
          5    1    3    3  502    0  0.40922201769E+02  0.23209537789E+02 -0.13144150023E+02  0.49026016785E+02  0.41800000000E+01 0.  1.
         -5    1    3    3    0  502 -0.12098473527E+02  0.89323145830E+02 -0.23904330084E+03  0.25550767017E+03  0.41800000000E+01 0.  1.
        -11    1    1    2    0    0 -0.50400914430E+02 -0.30684941135E+02 -0.25628189980E+03  0.26298712888E+03  0.00000000000E+00 0.  1.
         11    1    1    2    0    0  0.21577186188E+02 -0.81847742483E+02 -0.21505010590E+03  0.23110858045E+03  0.00000000000E+00 0. -1.
</event>
<event>
 7    1  0.2820496E-009  0.1200149E+03  0.7561462E-02  0.1243072E+00
         -1   -1    0    0    0  501 -0.00000000000E+00  0.00000000000E+00  0.12529592789E+04  0.12529592789E+04  0.00000000000E+00 0.  1.
          1   -1    0    0  501    0  0.00000000000E+00 -0.00000000000E+00 -0.16015158121E+02  0.16015158121E+02  0.00000000000E+00 0. -1.
         25    2    1    2    0    0  0.43734722137E+02 -0.43330798426E+02  0.96613232263E+03  0.97613989000E+03  0.12508851270E+03 0.  0.
          5    1    3    3  502    0  0.73294959967E+02 -0.59899727339E+02  0.84473731746E+03  0.85003455012E+03  0.41800000000E+01 0. -1.
         -5    1    3    3    0  502 -0.29560237830E+02  0.16568928913E+02  0.12139500517E+03  0.12610533988E+03  0.41800000000E+01 0. -1.
        -11    1    1    2    0    0 -0.73014268840E+02  0.29402516858E+02  0.20092712601E+03  0.21579458153E+03  0.00000000000E+00 0. -1.
         11    1    1    2    0    0  0.29279546703E+02  0.13928281569E+02  0.69884672148E+02  0.77039965497E+02  0.00000000000E+00 0.  1.
</event>
<event>
 7    1  0.3022648E-009  0.1181259E+03  0.7561462E-02  0.1246221E+00
          1   -1    0    0  501    0  0.00000000000E+00  0.00000000000E+00  0.87720118236E+03  0.87720118236E+03  0.00000000000E+00 0. -1.
         -1   -1    0    0    0  501 -0.00000000000E+00 -0.00000000000E+00 -0.16343879382E+02  0.16343879382E+02  0.00000000000E+00 0.  1.
         25    2    1    2    0    0 -0.48744718441E+02  0.24605061897E+01  0.43364270068E+03  0.45395529289E+03  0.12508922585E+03 0.  0.
          5    1    3    3  502    0 -0.53984207922E+02 -0.54537284990E+02  0.25314783728E+03  0.26455606226E+03  0.41800000000E+01 0. -1.
         -5    1    3    3    0  502  0.52394894816E+01  0.56997791180E+02  0.18049486340E+03  0.18939923063E+03  0.41800000000E+01 0. -1.
        -11    1    1    2    0    0  0.56584151012E+02 -0.36331491493E+02  0.24349082673E+03  0.25260547524E+03  0.00000000000E+00 0.  1.
         11    1    1    2    0    0 -0.78394325713E+01  0.33870985303E+02  0.18372377557E+03  0.18698429362E+03  0.00000000000E+00 0. -1.
</event>
<event>
 7    1  0.2820496E-009  0.9699168E+02  0.7561462E-02  0.1286752E+00
          1   -1    0    0  501    0  0.00000000000E+00  0.00000000000E+00  0.35436445669E+03  0.35436445669E+03  0.00000000000E+00 0. -1.
         -1   -1    0    0    0  501 -0.00000000000E+00 -0.00000000000E+00 -0.33123831892E+02  0.33123831892E+02  0.00000000000E+00 0.  1.
         25    2    1    2    0    0  0.18451413389E+01  0.72535499336E+00  0.16380051617E+03  0.20611096240E+03  0.12508872467E+03 0.  0.
          5    1    3    3  502    0  0.62977973980E+01 -0.61616813326E+02  0.73453524479E+02  0.96172691524E+02  0.41800000000E+01 0. -1.
         -5    1    3    3    0  502 -0.44526560591E+01  0.62342168320E+02  0.90346991690E+02  0.10993827088E+03  0.41800000000E+01 0. -1.
        -11    1    1    2    0    0 -0.24934089162E+02  0.24576942835E+02  0.21270314668E+02  0.40965365951E+02  0.00000000000E+00 0.  1.
         11    1    1    2    0    0  0.23088947823E+02 -0.25302297828E+02  0.13616979397E+03  0.14041196023E+03  0.00000000000E+00 0. -1.
</event>
<event>
 7    1  0.2820496E-009  0.1168814E+03  0.7561462E-02  0.1248332E+00
         -2   -1    0    0    0  501 -0.00000000000E+00  0.00000000000E+00  0.78193309705E+02  0.78193309705E+02  0.00000000000E+00 0.  1.
          2   -1    0    0  501    0  0.00000000000E+00 -0.00000000000E+00 -0.39849220628E+03  0.39849220628E+03  0.00000000000E+00 0. -1.
         25    2    1    2    0    0  0.26762275708E+01  0.60299904441E+02 -0.33756365943E+03  0.36501992051E+03  0.12508827898E+03 0.  0.
          5    1    3    3  502    0 -0.25134452545E+02 -0.25303523571E+02 -0.38367536813E+02  0.52550445202E+02  0.41800000000E+01 0.  1.
         -5    1    3    3    0  502  0.27810680116E+02  0.85603428012E+02 -0.29919612261E+03  0.31246947531E+03  0.41800000000E+01 0.  1.
        -11    1    1    2    0    0  0.38965457523E+02 -0.61639582660E+01  0.18000855554E+02  0.43362795830E+02  0.00000000000E+00 0.  1.
         11    1    1    2    0    0 -0.41641685094E+02 -0.54135946175E+02 -0.73609270079E+00  0.68302799637E+02  0.00000000000E+00 0. -1.
</event>
<event>
 7    1  0.2820496E-009  0.1765166E+03  0.7561462E-02  0.1171217E+00
         -1   -1    0    0    0  501 -0.00000000000E+00  0.00000000000E+00  0.72176792329E+02  0.72176792329E+02  0.00000000000E+00 0.  1.
          1   -1    0    0  501    0  0.00000000000E+00 -0.00000000000E+00 -0.50905627354E+03  0.50905627354E+03  0.00000000000E+00 0. -1.
         25    2    1    2    0    0  0.15151975379E+03 -0.43341577114E+02 -0.22561808465E+03  0.30230417529E+03  0.12509023217E+03 0.  0.
          5    1    3    3  502    0  0.34889552330E+02 -0.41367414865E+02 -0.73312385592E+01  0.54770095246E+02  0.41800000000E+01 0.  1.
         -5    1    3    3    0  502  0.11663020146E+03 -0.19741622481E+01 -0.21828684609E+03  0.24753408005E+03  0.41800000000E+01 0.  1.
        -11    1    1    2    0    0 -0.72885051784E+02 -0.25808610886E+02 -0.94130379430E+02  0.12181479180E+03  0.00000000000E+00 0.  1.
         11    1    1    2    0    0 -0.78634702006E+02  0.69150188000E+02 -0.11713101713E+03  0.15711409877E+03  0.00000000000E+00 0. -1.
</event>
<event>
 7    1  0.2820496E-009  0.1312665E+03  0.7561462E-02  0.1225588E+00
          2   -1    0    0  501    0  0.00000000000E+00  0.00000000000E+00  0.24061550904E+04  0.24061550904E+04  0.00000000000E+00 0. -1.
         -2   -1    0    0    0  501 -0.00000000000E+00 -0.00000000000E+00 -0.16525345706E+02  0.16525345706E+02  0.00000000000E+00 0.  1.
         25    2    1    2    0    0 -0.34575415361E+02 -0.88955514238E+02  0.20592112747E+04  0.20652138127E+04  0.12509386760E+03 0.  0.
          5    1    3    3  502    0 -0.72943810196E+02 -0.93184460748E+02  0.15824800049E+04  0.15869040870E+04  0.41800000000E+01 0.  1.
         -5    1    3    3    0  502  0.38368394835E+02  0.42289465109E+01  0.47673126978E+03  0.47830972570E+03  0.41800000000E+01 0.  1.
        -11    1    1    2    0    0  0.37892877752E+02  0.36106616136E+02  0.51015082980E+02  0.73089647725E+02  0.00000000000E+00 0.  1.
         11    1    1    2    0    0 -0.33174623919E+01  0.52848898102E+02  0.27940338700E+03  0.28437697561E+03  0.00000000000E+00 0. -1.
</event>
<event>
 7    1  0.2820496E-009  0.1238298E+03  0.7561462E-02  0.1236910E+00
          1   -1    0    0  501    0  0.00000000000E+00  0.00000000000E+00  0.20115198071E+03  0.20115198071E+03  0.00000000000E+00 0. -1.
         -1   -1    0    0    0  501 -0.00000000000E+00 -0.00000000000E+00 -0.15047334121E+03  0.15047334121E+03  0.00000000000E+00 0.  1.
         25    2    1    2    0    0 -0.95172363264E+02  0.82882386985E+01 -0.70520784121E+02  0.17247458041E+03  0.12509127174E+03 0.  0.
          5    1    3    3  502    0 -0.93655033544E+02  0.34040981579E+02 -0.94213565519E+02  0.13719957020E+03  0.41800000000E+01 0. -1.
         -5    1    3    3    0  502 -0.15173297202E+01 -0.25752742881E+02  0.23692781398E+02  0.35275010216E+02  0.41800000000E+01 0. -1.
        -11    1    1    2    0    0  0.48998572707E+02  0.33626779108E+02  0.93789170773E+02  0.11103165744E+03  0.00000000000E+00 0. -1.
         11    1    1    2    0    0  0.46173790558E+02 -0.41915017806E+02  0.27410252854E+02  0.68119084064E+02  0.00000000000E+00 0.  1.
</event>
<event>
 7    1  0.2820496E-009  0.8793305E+02  0.7561462E-02  0.1307936E+00
         -1   -1    0    0    0  501 -0.00000000000E+00  0.00000000000E+00  0.14778163735E+03  0.14778163735E+03  0.00000000000E+00 0.  1.
          1   -1    0    0  501    0  0.00000000000E+00 -0.00000000000E+00 -0.99584838833E+02  0.99584838833E+02  0.00000000000E+00 0. -1.
         25    2    1    2    0    0 -0.40414004585E+02 -0.36500346485E+02  0.38671064142E+02  0.14180416304E+03  0.12508957748E+03 0.  0.
          5    1    3    3  502    0 -0.50659872485E+02 -0.28771757210E+02 -0.34205341596E+02  0.67688363009E+02  0.41800000000E+01 0. -1.
         -5    1    3    3    0  502  0.10245867900E+02 -0.77285892745E+01  0.72876405739E+02  0.74115800033E+02  0.41800000000E+01 0. -1.
        -11    1    1    2    0    0  0.33419900919E+01 -0.28733332542E+02  0.97630728601E+01  0.30530163583E+02  0.00000000000E+00 0. -1.
         11    1    1    2    0    0  0.37072014493E+02  0.65233679027E+02 -0.23733848362E+00  0.75032149560E+02  0.00000000000E+00 0.  1.
</event>
<event>
 7    1  0.2820496E-009  0.1128216E+03  0.7561462E-02  0.1255432E+00
          2   -1    0    0  501    0  0.00000000000E+00  0.00000000000E+00  0.10197395228E+04  0.10197395228E+04  0.00000000000E+00 0. -1.
         -2   -1    0    0    0  501 -0.00000000000E+00 -0.00000000000E+00 -0.20066563152E+02  0.20066563152E+02  0.00000000000E+00 0.  1.
         25    2    1    2    0    0 -0.80348877559E+02 -0.43442403369E+02  0.52071783492E+03  0.54326572245E+03  0.12508955614E+03 0.  0.
          5    1    3    3  502    0 -0.69373724137E+02 -0.22076439143E+02  0.11092069089E+03  0.13274394462E+03  0.41800000000E+01 0. -1.
         -5    1    3    3    0  502 -0.10975153422E+02 -0.21365964227E+02  0.40979714403E+03  0.41052177783E+03  0.41800000000E+01 0. -1.
        -11    1    1    2    0    0  0.25189071016E+02 -0.28272758511E+02  0.19058703702E+03  0.19431226635E+03  0.00000000000E+00 0.  1.
         11    1    1    2    0    0  0.55159806542E+02  0.71715161881E+02  0.28836808775E+03  0.30222809720E+03  0.00000000000E+00 0. -1.
</event>
<event>
 7    1  0.2820496E-009  0.2050094E+03  0.7561462E-02  0.1145580E+00
          2   -1    0    0  501    0  0.00000000000E+00  0.00000000000E+00  0.97084413605E+03  0.97084413605E+03  0.00000000000E+00 0. -1.
         -2   -1    0    0    0  501 -0.00000000000E+00 -0.00000000000E+00 -0.75474634512E+02  0.75474634512E+02  0.00000000000E+00 0.  1.
         25    2    1    2    0    0 -0.14542621502E+03 -0.13030681717E+03  0.75183809705E+03  0.78678871471E+03  0.12508919540E+03 0.  0.
          5    1    3    3  502    0 -0.93598023593E+02 -0.61868427036E+02  0.20956390207E+03  0.23774522863E+03  0.41800000000E+01 0. -1.
         -5    1    3    3    0  502 -0.51828191423E+02 -0.68438390134E+02  0.54227419498E+03  0.54904348608E+03  0.41800000000E+01 0. -1.
        -11    1    1    2    0    0  0.89405898108E+02  0.12747342465E+03  0.12735501507E+03  0.20115215255E+03  0.00000000000E+00 0.  1.
         11    1    1    2    0    0  0.56020316907E+02  0.28333925151E+01  0.16176389413E+02  0.58377903302E+02  0.00000000000E+00 0. -1.
</event>
<event>
 7    1  0.2820496E-009  0.1676031E+03  0.7561462E-02  0.1180371E+00
          2   -1    0    0  501    0  0.00000000000E+00  0.00000000000E+00  0.10425351657E+03  0.10425351657E+03  0.00000000000E+00 0. -1.
         -2   -1    0    0    0  501 -0.00000000000E+00 -0.00000000000E+00 -0.34155683808E+03  0.34155683808E+03  0.00000000000E+00 0.  1.
         25    2    1    2    0    0  0.13798953636E+03  0.17147245806E+02 -0.19677694840E+03  0.27147182575E+03  0.12506256263E+03 0.  0.
          5    1    3    3  502    0  0.21978651628E+02 -0.47459557918E+02 -0.72951202229E+02  0.89860008189E+02  0.41800000000E+01 0.  1.
         -5    1    3    3    0  502  0.11601088474E+03  0.64606803724E+02 -0.12382574617E+03  0.18161181756E+03  0.41800000000E+01 0.  1.
        -11    1    1    2    0    0 -0.11422289166E+03  0.89668082853E+01  0.73956545060E+01  0.11481275337E+03  0.00000000000E+00 0. -1.
         11    1    1    2    0    0 -0.23766644703E+02 -0.26114054091E+02 -0.47922027615E+02  0.59525775529E+02  0.00000000000E+00 0.  1.
</event>
<event>
 7    1  0.2820496E-009  0.1149486E+03  0.7561462E-02  0.1251671E+00
          1   -1    0    0  501    0  0.00000000000E+00  0.00000000000E+00  0.20391058617E+02  0.20391058617E+02  0.00000000000E+00 0. -1.
         -1   -1    0    0    0  501 -0.00000000000E+00 -0.00000000000E+00 -0.79340802904E+03  0.79340802904E+03  0.00000000000E+00 0.  1.
         25    2    1    2    0    0 -0.17689504574E+02 -0.60214109411E+02 -0.49293968499E+03  0.51242190657E+03  0.12509204511E+03 0.  0.
          5    1    3    3  502    0  0.47177453206E+02 -0.14022560012E+02 -0.10074266886E+03  0.11220027633E+03  0.41800000000E+01 0. -1.
         -5    1    3    3    0  502 -0.64866957780E+02 -0.46191549399E+02 -0.39219701613E+03  0.40022163023E+03  0.41800000000E+01 0. -1.
        -11    1    1    2    0    0 -0.13524298469E+02  0.67388796575E+02 -0.12146187293E+03  0.13956053571E+03  0.00000000000E+00 0.  1.
         11    1    1    2    0    0  0.31213803043E+02 -0.71746871639E+01 -0.15861541251E+03  0.16181664538E+03  0.00000000000E+00 0. -1.
</event>
<event>
 7    1  0.2820496E-009  0.1010358E+03  0.7561462E-02  0.1278133E+00
         -1   -1    0    0    0  501 -0.00000000000E+00  0.00000000000E+00  0.85366827157E+02  0.85366827157E+02  0.00000000000E+00 0.  1.
          1   -1    0    0  501    0  0.00000000000E+00 -0.00000000000E+00 -0.16762641357E+03  0.16762641357E+03  0.00000000000E+00 0. -1.
         25    2    1    2    0    0  0.30715464616E+02  0.13130624922E+02 -0.76437241437E+02  0.15035180667E+03  0.12508861185E+03 0.  0.
          5    1    3    3  502    0  0.26970727239E+02  0.65062904498E+02 -0.19748895298E+02  0.73267270558E+02  0.41800000000E+01 0.  1.
         -5    1    3    3    0  502  0.37447373773E+01 -0.51932279576E+02 -0.56688346139E+02  0.77084536114E+02  0.41800000000E+01 0.  1.
        -11    1    1    2    0    0  0.14408551903E+01 -0.38373616788E+02 -0.35364166781E+02  0.52203781675E+02  0.00000000000E+00 0.  1.
         11    1    1    2    0    0 -0.32156319807E+02  0.25242991866E+02  0.29541821806E+02  0.50437652379E+02  0.00000000000E+00 0. -1.
</event>
<event>
 7    1  0.2820496E-009  0.1266806E+03  0.7561462E-02  0.1232466E+00
         -1   -1    0    0    0  501 -0.00000000000E+00  0.00000000000E+00  0.41884990790E+02  0.41884990790E+02  0.00000000000E+00 0.  1.
          1   -1    0    0  501    0  0.00000000000E+00 -0.00000000000E+00 -0.44537539524E+03  0.44537539524E+03  0.00000000000E+00 0. -1.
         25    2    1    2    0    0 -0.28312969797E+02 -0.69202344967E+02 -0.15083441206E+03  0.20973480940E+03  0.12508829524E+03 0.  0.
          5    1    3    3  502    0  0.33822553068E+02  0.12460607406E+02 -0.14567708941E+02  0.39101437017E+02  0.41800000000E+01 0. -1.
         -5    1    3    3    0  502 -0.62135522866E+02 -0.81662952372E+02 -0.13626670312E+03  0.17063337238E+03  0.41800000000E+01 0. -1.
        -11    1    1    2    0    0  0.56835099365E+02  0.63624767439E+02 -0.19869338136E+03  0.21623459332E+03  0.00000000000E+00 0.  1.
         11    1    1    2    0    0 -0.28522129568E+02  0.55775775275E+01 -0.53962611034E+02  0.61290983316E+02  0.00000000000E+00 0. -1.
</event>
<event>
 7    1  0.2820496E-009  0.3007127E+03  0.7561462E-02  0.1084885E+00
         -2   -1    0    0    0  501 -0.00000000000E+00  0.00000000000E+00  0.10601657223E+03  0.10601657223E+03  0.00000000000E+00 0. -1.
          2   -1    0    0  501    0  0.00000000000E+00 -0.00000000000E+00 -0.92117082603E+03  0.92117082603E+03  0.00000000000E+00 0.  1.
         25    2    1    2    0    0  0.19247644328E+03  0.21127605875E+03 -0.31007157757E+03  0.43985986526E+03  0.12509022198E+03 0.  0.
          5    1    3    3  502    0  0.13842287228E+03  0.20856741439E+03 -0.28707267852E+03  0.38090609482E+03  0.41800000000E+01 0. -1.
         -5    1    3    3    0  502  0.54053571001E+02  0.27086443556E+01 -0.22998899048E+02  0.58953770445E+02  0.41800000000E+01 0. -1.
        -11    1    1    2    0    0 -0.45152068971E+02 -0.81874989879E+01 -0.11153246303E+03  0.12060362673E+03  0.00000000000E+00 0.  1.
         11    1    1    2    0    0 -0.14732437431E+03 -0.20308855976E+03 -0.39355021320E+03  0.46672390627E+03  0.00000000000E+00 0. -1.
</event>
<event>
 7    1  0.2820496E-009  0.9317129E+02  0.7561462E-02  0.1295349E+00
         -2   -1    0    0    0  501 -0.00000000000E+00  0.00000000000E+00  0.35117513003E+02  0.35117513003E+02  0.00000000000E+00 0. -1.
          2   -1    0    0  501    0  0.00000000000E+00 -0.00000000000E+00 -0.37587899678E+03  0.37587899678E+03  0.00000000000E+00 0.  1.
         25    2    1    2    0    0  0.27438057657E+02 -0.18544847703E+01 -0.29208026400E+03  0.31892842561E+03  0.12509266134E+03 0.  0.
          5    1    3    3  502    0  0.11166057559E+02  0.61312567973E+02 -0.15280844315E+03  0.16508120587E+03  0.41800000000E+01 0. -1.
         -5    1    3    3    0  502  0.16272000098E+02 -0.63167052743E+02 -0.13927182085E+03  0.15384721974E+03  0.41800000000E+01 0. -1.
        -11    1    1    2    0    0 -0.26225215352E+02 -0.22244702791E+02 -0.56978426452E+02  0.66551707742E+02  0.00000000000E+00 0.  1.
         11    1    1    2    0    0 -0.12128423055E+01  0.24099187562E+02  0.82972066736E+01  0.25516376431E+02  0.00000000000E+00 0. -1.
</event>
<event>
 7    1  0.2820496E-009  0.1163903E+03  0.7561462E-02  0.1249173E+00
         -2   -1    0    0    0  501 -0.00000000000E+00  0.00000000000E+00  0.10274818799E+03  0.10274818799E+03  0.00000000000E+00 0.  1.
          2   -1    0    0  501    0  0.00000000000E+00 -0.00000000000E+00 -0.18288423398E+03  0.18288423398E+03  0.00000000000E+00 0. -1.
         25    2    1    2    0    0  0.16339282205E+00 -0.62335672193E+02 -0.10238320653E+03  0.17325577210E+03  0.12509787713E+03 0.  0.
          5    1    3    3  502    0  0.57545161349E+02 -0.56882427838E+02 -0.49672505804E+02  0.95036237427E+02  0.41800000000E+01 0.  1.
         -5    1    3    3    0  502 -0.57381768527E+02 -0.54532443552E+01 -0.52710700727E+02  0.78219534673E+02  0.41800000000E+01 0.  1.
        -11    1    1    2    0    0  0.61610645662E+01  0.77391833036E+02 -0.79539691750E+01  0.78043066078E+02  0.00000000000E+00 0.  1.
         11    1    1    2    0    0 -0.63244573883E+01 -0.15056160842E+02  0.30201129714E+02  0.34333583800E+02  0.00000000000E+00 0. -1.
</event>
<event>
 7    1  0.2820496E-009  0.7834743E+03  0.7561462E-02  0.9584250E-01
          1   -1    0    0  501    0  0.00000000000E+00  0.00000000000E+00  0.81128984158E+03  0.81128984158E+03  0.00000000000E+00 0. -1.
         -1   -1    0    0    0  501 -0.00000000000E+00 -0.00000000000E+00 -0.81150626356E+03  0.81150626356E+03  0.00000000000E+00 0.  1.
         25    2    1    2    0    0  0.20164067291E+03  0.75302783604E+03 -0.19681977632E+03  0.81369235152E+03  0.12508931107E+03 0.  0.
          5    1    3    3  502    0  0.11081295251E+03  0.22276456768E+03 -0.93704368331E+02  0.26589761959E+03  0.41800000000E+01 0.  1.
         -5    1    3    3    0  502  0.90827720398E+02  0.53026326836E+03 -0.10311540799E+03  0.54779473193E+03  0.41800000000E+01 0.  1.
        -11    1    1    2    0    0 -0.48450659435E+01 -0.44295411501E+02 -0.87884101946E+01  0.45417995308E+02  0.00000000000E+00 0.  1.
         11    1    1    2    0    0 -0.19679560697E+03 -0.70873242454E+03  0.20539176452E+03  0.76368575831E+03  0.00000000000E+00 0. -1.
</event>
<event>
 7    1  0.2820496E-009  0.6763256E+02  0.7561462E-02  0.1368334E+00
          1   -1    0    0  501    0  0.00000000000E+00  0.00000000000E+00  0.99883903402E+03  0.99883903402E+03  0.00000000000E+00 0. -1.
         -1   -1    0    0    0  501 -0.00000000000E+00 -0.00000000000E+00 -0.28289175293E+02  0.28289175293E+02  0.00000000000E+00 0.  1.
         25    2    1    2    0    0 -0.33225797916E+02 -0.17094129877E+02  0.89486563349E+03  0.90433842928E+03  0.12508928709E+03 0.  0.
          5    1    3    3  502    0 -0.90848611822E+01 -0.62649742297E+01  0.31410371446E+01  0.12211597731E+02  0.41800000000E+01 0.  1.
         -5    1    3    3    0  502 -0.24140936733E+02 -0.10829155647E+02  0.89172459634E+03  0.89212683154E+03  0.41800000000E+01 0.  1.
        -11    1    1    2    0    0  0.54142339314E+02 -0.16939447943E+02  0.43391089389E+02  0.71422156516E+02  0.00000000000E+00 0.  1.
         11    1    1    2    0    0 -0.20916541398E+02  0.34033577821E+02  0.32293135853E+02  0.51367623524E+02  0.00000000000E+00 0. -1.
</event>
<event>
 7    1  0.2820496E-009  0.1225919E+03  0.7561462E-02  0.1238881E+00
          1   -1    0    0  501    0  0.00000000000E+00  0.00000000000E+00  0.43512684653E+03  0.43512684653E+03  0.00000000000E+00 0. -1.
         -1   -1    0    0    0  501 -0.00000000000E+00 -0.00000000000E+00 -0.40448468946E+02  0.40448468946E+02  0.00000000000E+00 0.  1.
         25    2    1    2    0    0  0.65980923132E+02 -0.37751120309E+02  0.22118414163E+03  0.26523196784E+03  0.12508774103E+03 0.  0.
          5    1    3    3  502    0 -0.11208128241E+02 -0.63657466886E+02  0.93709558039E+02  0.11391597297E+03  0.41800000000E+01 0.  1.
         -5    1    3    3    0  502  0.77189051372E+02  0.25906346578E+02  0.12747458359E+03  0.15131599488E+03  0.41800000000E+01 0.  1.
        -11    1    1    2    0    0  0.10590918168E+02 -0.44105044333E+01 -0.42768654971E+01  0.12243842350E+02  0.00000000000E+00 0. -1.
         11    1    1    2    0    0 -0.76571841300E+02  0.42161624742E+02  0.17777110146E+03  0.19809950529E+03  0.00000000000E+00 0.  1.
</event>
<event>
 7    1  0.2820496E-009  0.1115621E+03  0.7561462E-02  0.1257704E+00
          3   -1    0    0  501    0  0.00000000000E+00  0.00000000000E+00  0.85070633070E+02  0.85070633070E+02  0.00000000000E+00 0. -1.
         -3   -1    0    0    0  501 -0.00000000000E+00 -0.00000000000E+00 -0.31688863930E+03  0.31688863930E+03  0.00000000000E+00 0.  1.
         25    2    1    2    0    0  0.68153428220E+02  0.33731251933E+02 -0.24207489376E+03  0.28290120703E+03  0.12510056601E+03 0.  0.
          5    1    3    3  502    0  0.83524619294E+02  0.21535522739E+02 -0.24748787120E+03  0.26212184106E+03  0.41800000000E+01 0.  1.
         -5    1    3    3    0  502 -0.15371191074E+02  0.12195729194E+02  0.54129774379E+01  0.20779365976E+02  0.41800000000E+01 0.  1.
        -11    1    1    2    0    0 -0.36226420319E+02  0.28941942584E+02  0.14530949562E+02  0.48591543141E+02  0.00000000000E+00 0.  1.
         11    1    1    2    0    0 -0.31927007901E+02 -0.62673194517E+02 -0.42740620325E+01  0.70466522198E+02  0.00000000000E+00 0. -1.
</event>
<event>
 7    1  0.2820496E-009  0.9134860E+02  0.7561462E-02  0.1299618E+00
         -1   -1    0    0    0  501 -0.00000000000E+00  0.00000000000E+00  0.63827491195E+02  0.63827491195E+02  0.00000000000E+00 0.  1.
          1   -1    0    0  501    0  0.00000000000E+00 -0.00000000000E+00 -0.36683689271E+03  0.36683689271E+03  0.00000000000E+00 0. -1.
         25    2    1    2    0    0 -0.14330363302E+02 -0.11490010861E+02 -0.14159743030E+02  0.12722072712E+03  0.12508891008E+03 0.  0.
          5    1    3    3  502    0 -0.11633971585E+02  0.38016121343E+02 -0.51368943798E+02  0.65090825496E+02  0.41800000000E+01 0.  1.
         -5    1    3    3    0  502 -0.26963917178E+01 -0.49506132204E+02  0.37209200768E+02  0.62129901625E+02  0.41800000000E+01 0.  1.
        -11    1    1    2    0    0  0.20351393546E+02 -0.38002502745E+02 -0.13573182880E+03  0.14241312715E+03  0.00000000000E+00 0.  1.
         11    1    1    2    0    0 -0.60210302433E+01  0.49492513606E+02 -0.15311782968E+03  0.16103052964E+03  0.00000000000E+00 0. -1.
</event>
<event>
 7    1  0.2820496E-009  0.9836222E+02  0.7561462E-02  0.1283778E+00
         -2   -1    0    0    0  501 -0.00000000000E+00  0.00000000000E+00  0.15197039304E+02  0.15197039304E+02  0.00000000000E+00 0.  1.
          2   -1    0    0  501    0  0.00000000000E+00 -0.00000000000E+00 -0.89145676827E+03  0.89145676827E+03  0.00000000000E+00 0. -1.
         25    2    1    2    0    0 -0.31133214479E+02 -0.16534386699E+02 -0.61510937071E+03  0.62868890913E+03  0.12509014169E+03 0.  0.
          5    1    3    3  502    0 -0.37118029726E+02  0.40386903723E+02 -0.46047031543E+03  0.46374479395E+03  0.41800000000E+01 0.  1.
         -5    1    3    3    0  502  0.59848152472E+01 -0.56921290422E+02 -0.15463905528E+03  0.16494411519E+03  0.41800000000E+01 0.  1.
        -11    1    1    2    0    0 -0.17766327362E+02 -0.17350034844E+02 -0.14857978214E+03  0.15064069091E+03  0.00000000000E+00 0. -1.
         11    1    1    2    0    0  0.48899541842E+02  0.33884421543E+02 -0.11257057612E+03  0.12732420753E+03  0.00000000000E+00 0.  1.
</event>
<event>
 7    1  0.2820496E-009  0.1496405E+03  0.7561462E-02  0.1200915E+00
         -2   -1    0    0    0  501 -0.00000000000E+00  0.00000000000E+00  0.29198897154E+03  0.29198897154E+03  0.00000000000E+00 0.  1.
          2   -1    0    0  501    0  0.00000000000E+00 -0.00000000000E+00 -0.78323974789E+02  0.78323974789E+02  0.00000000000E+00 0. -1.
         25    2    1    2    0    0  0.30177371189E+02  0.99640493049E+02  0.10838798667E+03  0.19553871998E+03  0.12509409966E+03 0.  0.
          5    1    3    3  502    0 -0.48671011336E+02  0.29251118128E+02  0.39791631647E+02  0.69464678833E+02  0.41800000000E+01 0.  1.
         -5    1    3    3    0  502  0.78848382524E+02  0.70389374921E+02  0.68596355024E+02  0.12607404115E+03  0.41800000000E+01 0.  1.
        -11    1    1    2    0    0  0.27870038271E+02 -0.60334705329E+02  0.69148802404E+02  0.95909189207E+02  0.00000000000E+00 0.  1.
         11    1    1    2    0    0 -0.58047409460E+02 -0.39305787720E+02  0.36128207673E+02  0.78865037139E+02  0.00000000000E+00 0. -1.
</event>
<event>
 7    1  0.2820496E-009  0.1135071E+03  0.7561462E-02  0.1254210E+00
         -1   -1    0    0    0  501 -0.00000000000E+00  0.00000000000E+00  0.43277191152E+03  0.43277191152E+03  0.00000000000E+00 0.  1.
          1   -1    0    0  501    0  0.00000000000E+00 -0.00000000000E+00 -0.37531401140E+02  0.37531401140E+02  0.00000000000E+00 0. -1.
         25    2    1    2    0    0  0.50251876946E+02  0.26902439083E+01  0.29533693014E+03  0.32467758360E+03  0.12513649522E+03 0.  0.
          5    1    3    3  502    0  0.85715186314E+02 -0.23416636469E+02  0.17186695443E+03  0.19352300756E+03  0.41800000000E+01 0. -1.
         -5    1    3    3    0  502 -0.35463309368E+02  0.26106880377E+02  0.12346997571E+03  0.13115457604E+03  0.41800000000E+01 0. -1.
        -11    1    1    2    0    0 -0.28606230379E+02 -0.40899437450E+02  0.18682086646E+02  0.53292595749E+02  0.00000000000E+00 0. -1.
         11    1    1    2    0    0 -0.21645646567E+02  0.38209193542E+02  0.81221493596E+02  0.92333133318E+02  0.00000000000E+00 0.  1.
</event>
<event>
 7    1  0.2820496E-009  0.1246682E+03  0.7561462E-02  0.1235589E+00
          2   -1    0    0  501    0  0.00000000000E+00  0.00000000000E+00  0.53466584384E+03  0.53466584384E+03  0.00000000000E+00 0. -1.
         -2   -1    0    0    0  501 -0.00000000000E+00 -0.00000000000E+00 -0.42886406344E+02  0.42886406344E+02  0.00000000000E+00 0.  1.
         25    2    1    2    0    0 -0.62147723658E+02  0.32628561264E+02  0.41201068949E+03  0.43626455974E+03  0.12508795012E+03 0.  0.
          5    1    3    3  502    0  0.83481871035E+01  0.59479508395E+02  0.25514643357E+03  0.26215392255E+03  0.41800000000E+01 0. -1.
         -5    1    3    3    0  502 -0.70495910762E+02 -0.26850947131E+02  0.15686425592E+03  0.17411063719E+03  0.41800000000E+01 0. -1.
        -11    1    1    2    0    0  0.31494431228E+02  0.30221905527E+02  0.46741415948E+02  0.63953285583E+02  0.00000000000E+00 0. -1.
         11    1    1    2    0    0  0.30653292431E+02 -0.62850466791E+02  0.33027332060E+02  0.77334404864E+02  0.00000000000E+00 0.  1.
</event>
<event>
 7    1  0.2820496E-009  0.1013465E+03  0.7561462E-02  0.1277490E+00
         -3   -1    0    0    0  501 -0.00000000000E+00  0.00000000000E+00  0.43376448160E+03  0.43376448160E+03  0.00000000000E+00 0.  1.
          3   -1    0    0  501    0  0.00000000000E+00 -0.00000000000E+00 -0.31713926881E+02  0.31713926881E+02  0.00000000000E+00 0. -1.
         25    2    1    2    0    0 -0.34827305229E+02 -0.22026159749E+02  0.19451527406E+03  0.23490900030E+03  0.12509178102E+03 0.  0.
          5    1    3    3  502    0 -0.69216667495E+02 -0.38149345984E+02  0.17486526598E+03  0.19194179666E+03  0.41800000000E+01 0.  1.
         -5    1    3    3    0  502  0.34389362266E+02  0.16123186235E+02  0.19650008071E+02  0.42967203640E+02  0.41800000000E+01 0.  1.
        -11    1    1    2    0    0  0.32370459236E+02  0.48740769381E+02  0.18928720180E+03  0.19812408737E+03  0.00000000000E+00 0.  1.
         11    1    1    2    0    0  0.24568459932E+01 -0.26714609632E+02  0.18248078857E+02  0.32445320803E+02  0.00000000000E+00 0. -1.
</event>
<event>
 7    1  0.2820496E-009  0.1239487E+03  0.7561462E-02  0.1236721E+00
         -2   -1    0    0    0  501 -0.00000000000E+00  0.00000000000E+00  0.19844525082E+02  0.19844525082E+02  0.00000000000E+00 0.  1.
          2   -1    0    0  501    0  0.00000000000E+00 -0.00000000000E+00 -0.87958138467E+03  0.87958138467E+03  0.00000000000E+00 0. -1.
         25    2    1    2    0    0  0.57444748682E+02  0.35460079918E+02 -0.59986781506E+03  0.61647978548E+03  0.12509442010E+03 0.  0.
          5    1    3    3  502    0  0.80365452813E+02  0.65408863097E+02 -0.41529910301E+03  0.42805109828E+03  0.41800000000E+01 0.  1.
         -5    1    3    3    0  502 -0.22920704131E+02 -0.29948783179E+02 -0.18456871205E+03  0.18842868720E+03  0.41800000000E+01 0.  1.
        -11    1    1    2    0    0 -0.18951091792E+02 -0.58428191325E+02 -0.19220413456E+03  0.20178064021E+03  0.00000000000E+00 0. -1.
         11    1    1    2    0    0 -0.38493656890E+02  0.22968111407E+02 -0.67664909970E+02  0.81165484065E+02  0.00000000000E+00 0.  1.
</event>
<event>
 7    1  0.3077118E-009  0.8833560E+02  0.7561462E-02  0.1306933E+00
         -2   -1    0    0    0  501 -0.00000000000E+00  0.00000000000E+00  0.48552621472E+03  0.48552621472E+03  0.00000000000E+00 0. -1.
          2   -1    0    0  501    0  0.00000000000E+00 -0.00000000000E+00 -0.36257856126E+02  0.36257856126E+02  0.00000000000E+00 0.  1.
         25    2    1    2    0    0 -0.78431743803E+01  0.66549788787E+02  0.31990964256E+03  0.34997207733E+03  0.12509150943E+03 0.  0.
          5    1    3    3  502    0  0.25366268497E+02  0.51042754256E+02  0.30479446427E+03  0.31010634980E+03  0.41800000000E+01 0. -1.
         -5    1    3    3    0  502 -0.33209442877E+02  0.15507034531E+02  0.15115178296E+02  0.39865727524E+02  0.41800000000E+01 0. -1.
        -11    1    1    2    0    0  0.24934941846E+02 -0.58791035509E+02  0.13730478052E+03  0.15142899304E+03  0.00000000000E+00 0. -1.
         11    1    1    2    0    0 -0.17091767466E+02 -0.77587532781E+01 -0.79460644885E+01  0.20383000476E+02  0.00000000000E+00 0.  1.
</event>
<event>
 7    1  0.2820496E-009  0.1179791E+03  0.7561462E-02  0.1246469E+00
          2   -1    0    0  501    0  0.00000000000E+00  0.00000000000E+00  0.79255267760E+03  0.79255267760E+03  0.00000000000E+00 0. -1.
         -2   -1    0    0    0  501 -0.00000000000E+00 -0.00000000000E+00 -0.23096879989E+02  0.23096879989E+02  0.00000000000E+00 0.  1.
         25    2    1    2    0    0 -0.27777243694E+02  0.72705143653E+02  0.36603028864E+03  0.39456664276E+03  0.12508816969E+03 0.  0.
          5    1    3    3  502    0 -0.36436671124E+02 -0.54860863168E+01  0.25914909081E+03  0.26178894517E+03  0.41800000000E+01 0. -1.
         -5    1    3    3    0  502  0.86594274291E+01  0.78191229970E+02  0.10688119782E+03  0.13277769758E+03  0.41800000000E+01 0. -1.
        -11    1    1    2    0    0  0.49841538852E+02 -0.82154732325E+02  0.33798516920E+03  0.35137950088E+03  0.00000000000E+00 0.  1.
         11    1    1    2    0    0 -0.22064295158E+02  0.94495886719E+01  0.65440339783E+02  0.69703413961E+02  0.00000000000E+00 0. -1.
</event>
<event>
 7    1  0.2820496E-009  0.2042368E+03  0.7561462E-02  0.1146213E+00
         -2   -1    0    0    0  501 -0.00000000000E+00  0.00000000000E+00  0.47251982586E+02  0.47251982586E+02  0.00000000000E+00 0.  1.
          2   -1    0    0  501    0  0.00000000000E+00 -0.00000000000E+00 -0.10458223023E+04  0.10458223023E+04  0.00000000000E+00 0. -1.
         25    2    1    2    0    0 -0.53529908959E+02  0.18288321881E+03 -0.60458526802E+03  0.64612991181E+03  0.12509513881E+03 0.  0.
          5    1    3    3  502    0 -0.67122871955E+02  0.99216167741E+02 -0.48434685454E+03  0.49895758916E+03  0.41800000000E+01 0.  1.
         -5    1    3    3    0  502  0.13592962996E+02  0.83667051067E+02 -0.12023841348E+03  0.14717232265E+03  0.41800000000E+01 0.  1.
        -11    1    1    2    0    0 -0.14033100683E+02 -0.76097152850E+02 -0.96213417420E+02  0.12346953583E+03  0.00000000000E+00 0.  1.
         11    1    1    2    0    0  0.67563009642E+02 -0.10678606596E+03 -0.29777163432E+03  0.32347483729E+03  0.00000000000E+00 0. -1.
</event>
<event>
 7    1  0.3183188E-009  0.1226746E+03  0.7561462E-02  0.1238749E+00
         -2   -1    0    0    0  501 -0.00000000000E+00  0.00000000000E+00  0.53929211938E+02  0.53929211938E+02  0.00000000000E+00 0. -1.
          2   -1    0    0  501    0  0.00000000000E+00 -0.00000000000E+00 -0.36083209575E+03  0.36083209575E+03  0.00000000000E+00 0.  1.
         25    2    1    2    0    0  0.67701243812E+02  0.41437052352E+02 -0.21980859786E+03  0.26506595512E+03  0.12507459034E+03 0.  0.
          5    1    3    3  502    0 -0.32019490624E+02  0.31447475168E+02 -0.93293106292E+02  0.10361113625E+03  0.41800000000E+01 0. -1.
         -5    1    3    3    0  502  0.99720734436E+02  0.99895771838E+01 -0.12651549156E+03  0.16145481886E+03  0.41800000000E+01 0. -1.
        -11    1    1    2    0    0 -0.71006001091E+01 -0.38657057708E+02 -0.79334484549E+02  0.88536699007E+02  0.00000000000E+00 0.  1.
         11    1    1    2    0    0 -0.60600643703E+02 -0.27799946438E+01 -0.77598014062E+01  0.61158653560E+02  0.00000000000E+00 0. -1.
</event>
<event>
 7    1  0.2820496E-009  0.9123547E+02  0.7561462E-02  0.1299887E+00
          2   -1    0    0  501    0  0.00000000000E+00  0.00000000000E+00  0.80738138390E+03  0.80738138390E+03  0.00000000000E+00 0. -1.
         -2   -1    0    0    0  501 -0.00000000000E+00 -0.00000000000E+00 -0.18239451045E+02  0.18239451045E+02  0.00000000000E+00 0.  1.
         25    2    1    2    0    0  0.22028659069E+02  0.31165892993E+02  0.31315254092E+03  0.33936682692E+03  0.12509498240E+03 0.  0.
          5    1    3    3  502    0 -0.67471858715E+01 -0.22116809156E+02  0.34237154042E+01  0.23745988958E+02  0.41800000000E+01 0.  1.
         -5    1    3    3    0  502  0.28775844941E+02  0.53282702149E+02  0.30972882552E+03  0.31562083796E+03  0.41800000000E+01 0.  1.
        -11    1    1    2    0    0 -0.54020504726E+02 -0.37367271922E+02  0.35055042050E+03  0.35665126560E+03  0.00000000000E+00 0.  1.
         11    1    1    2    0    0  0.31991845657E+02  0.62013789288E+01  0.12543897143E+03  0.12960274242E+03  0.00000000000E+00 0. -1.
</event>
<event>
 7    1  0.2820496E-009  0.1191103E+03  0.7561462E-02  0.1244572E+00
         -3   -1    0    0    0  501 -0.00000000000E+00  0.00000000000E+00  0.60463779633E+02  0.60463779633E+02  0.00000000000E+00 0.  1.
          3   -1    0    0  501    0  0.00000000000E+00 -0.00000000000E+00 -0.37301925961E+03  0.37301925961E+03  0.00000000000E+00 0. -1.
         25    2    1    2    0    0  0.57578703744E+02  0.81720131247E+02 -0.13063507830E+03  0.20665336292E+03  0.12508637716E+03 0.  0.
          5    1    3    3  502    0 -0.34955685679E+01  0.47152916836E+02  0.10826380369E+02  0.48685721497E+02  0.41800000000E+01 0. -1.
         -5    1    3    3    0  502  0.61074272312E+02  0.34567214411E+02 -0.14146145866E+03  0.15796764143E+03  0.41800000000E+01 0. -1.
        -11    1    1    2    0    0 -0.12046760225E+02 -0.73130878623E+02 -0.15836578725E+03  0.17485128656E+03  0.00000000000E+00 0. -1.
         11    1    1    2    0    0 -0.45531943518E+02 -0.85892526240E+01 -0.23554614433E+02  0.51978389763E+02  0.00000000000E+00 0.  1.
</event>
<event>
 7    1  0.2820496E-009  0.1431576E+03  0.7561462E-02  0.1209142E+00
         -1   -1    0    0    0  501 -0.00000000000E+00  0.00000000000E+00  0.72161919414E+02  0.72161919414E+02  0.00000000000E+00 0.  1.
          1   -1    0    0  501    0  0.00000000000E+00 -0.00000000000E+00 -0.32991486259E+03  0.32991486259E+03  0.00000000000E+00 0. -1.
         25    2    1    2    0    0 -0.59143795989E+02  0.75311752194E+02 -0.71713572352E+02  0.17309098848E+03  0.12509118758E+03 0.  0.
          5    1    3    3  502    0  0.11886585608E+02 -0.28456420757E+02 -0.83775468052E+01  0.32229093847E+02  0.41800000000E+01 0.  1.
         -5    1    3    3    0  502 -0.71030381598E+02  0.10376817295E+03 -0.63336025547E+02  0.14086189463E+03  0.41800000000E+01 0.  1.
        -11    1    1    2    0    0  0.77049051935E+02 -0.33744341037E+02 -0.14629364391E+03  0.16875149541E+03  0.00000000000E+00 0. -1.
         11    1    1    2    0    0 -0.17905255946E+02 -0.41567411156E+02 -0.39745726913E+02  0.60234298108E+02  0.00000000000E+00 0.  1.
</event>
<event>
 7    1  0.2820496E-009  0.1131366E+03  0.7561462E-02  0.1254869E+00
         -1   -1    0    0    0  501 -0.00000000000E+00  0.00000000000E+00  0.51907435497E+02  0.51907435497E+02  0.00000000000E+00 0.  1.
          1   -1    0    0  501    0  0.00000000000E+00 -0.00000000000E+00 -0.31565974786E+03  0.31565974786E+03  0.00000000000E+00 0. -1.
         25    2    1    2    0    0 -0.46138149875E+02  0.44240391191E+01 -0.84011713608E+02  0.15764882771E+03  0.12508750481E+03 0.  0.
          5    1    3    3  502    0 -0.37440856298E+02  0.62094741098E+02 -0.31905645443E+02  0.79328539653E+02  0.41800000000E+01 0. -1.
         -5    1    3    3    0  502 -0.86972935767E+01 -0.57670701979E+02 -0.52106068165E+02  0.78320288061E+02  0.41800000000E+01 0. -1.
        -11    1    1    2    0    0  0.64585684246E+02  0.17112308634E+02 -0.70804927100E+02  0.97352346751E+02  0.00000000000E+00 0.  1.
         11    1    1    2    0    0 -0.18447534371E+02 -0.21536347753E+02 -0.10893567165E+03  0.11256600889E+03  0.00000000000E+00 0. -1.
</event>
<event>
 7    1  0.2820496E-009  0.1211606E+03  0.7561462E-02  0.1241195E+00
         -2   -1    0    0    0  501 -0.00000000000E+00  0.00000000000E+00  0.38161445007E+02  0.38161445007E+02  0.00000000000E+00 0.  1.
          2   -1    0    0  501    0  0.00000000000E+00 -0.00000000000E+00 -0.50653848463E+03  0.50653848463E+03  0.00000000000E+00 0. -1.
         25    2    1    2    0    0  0.83947946048E+02 -0.16247755114E+02 -0.24683044663E+03  0.28962578370E+03  0.12508628225E+03 0.  0.
          5    1    3    3  502    0  0.99763300248E+02 -0.17600251556E+02 -0.25263040945E+03  0.27221697433E+03  0.41800000000E+01 0. -1.
         -5    1    3    3    0  502 -0.15815354201E+02  0.13524964419E+01  0.57999628199E+01  0.17408809374E+02  0.41800000000E+01 0. -1.
        -11    1    1    2    0    0 -0.99004710760E+02  0.30691031366E+02 -0.19885780542E+03  0.22425052717E+03  0.00000000000E+00 0.  1.
         11    1    1    2    0    0  0.15056764713E+02 -0.14443276252E+02 -0.22688787574E+02  0.30823618770E+02  0.00000000000E+00 0. -1.
</event>
<event>
 7    1  0.2820496E-009  0.1006300E+03  0.7561462E-02  0.1278977E+00
          3   -1    0    0  501    0  0.00000000000E+00  0.00000000000E+00  0.70006969397E+02  0.70006969397E+02  0.00000000000E+00 0. -1.
         -3   -1    0    0    0  501 -0.00000000000E+00 -0.00000000000E+00 -0.15989051998E+03  0.15989051998E+03  0.00000000000E+00 0.  1.
         25    2    1    2    0    0 -0.20224466615E+02 -0.57675882820E+01 -0.53332209126E+02  0.13760144568E+03  0.12509012431E+03 0.  0.
          5    1    3    3  502    0  0.24366933394E+02  0.43639619045E+02  0.30872501557E+01  0.50251042845E+02  0.41800000000E+01 0. -1.
         -5    1    3    3    0  502 -0.44591400010E+02 -0.49407207327E+02 -0.56419459281E+02  0.87350402840E+02  0.41800000000E+01 0. -1.
        -11    1    1    2    0    0 -0.31974242422E+02  0.80504353972E+00 -0.99257102653E+01  0.33489102673E+02  0.00000000000E+00 0.  1.
         11    1    1    2    0    0  0.52198709037E+02  0.49625447423E+01 -0.26625631188E+02  0.58806941016E+02  0.00000000000E+00 0. -1.
</event>
<event>
 7    1  0.2820496E-009  0.9380672E+02  0.7561462E-02  0.1293886E+00
          2   -1    0    0  501    0  0.00000000000E+00  0.00000000000E+00  0.44306945293E+03  0.44306945293E+03  0.00000000000E+00 0. -1.
         -2   -1    0    0    0  501 -0.00000000000E+00 -0.00000000000E+00 -0.33114653365E+02  0.33114653365E+02  0.00000000000E+00 0.  1.
         25    2    1    2    0    0  0.45778923455E+01 -0.21286221646E+02  0.32829926375E+03  0.35198877326E+03  0.12506650067E+03 0.  0.
          5    1    3    3  502    0 -0.47528372527E+02 -0.20621024791E+01  0.53982294564E+02  0.72074676469E+02  0.41800000000E+01 0.  1.
         -5    1    3    3    0  502  0.52106264872E+02 -0.19224119167E+02  0.27431696919E+03  0.27991409679E+03  0.41800000000E+01 0.  1.
        -11    1    1    2    0    0 -0.21671799317E+02  0.47874586040E+02  0.75506006909E+02  0.91993477776E+02  0.00000000000E+00 0. -1.
         11    1    1    2    0    0  0.17093906971E+02 -0.26588364394E+02  0.61495289088E+01  0.32201855265E+02  0.00000000000E+00 0.  1.
</event>
<event>
 7    1  0.2820496E-009  0.1146834E+03  0.7561462E-02  0.1252135E+00
          1   -1    0    0  501    0  0.00000000000E+00  0.00000000000E+00  0.86941995953E+02  0.86941995953E+02  0.00000000000E+00 0. -1.
         -1   -1    0    0    0  501 -0.00000000000E+00 -0.00000000000E+00 -0.24384117007E+03  0.24384117007E+03  0.00000000000E+00 0.  1.
         25    2    1    2    0    0  0.20697622510E+02 -0.82726154636E+02 -0.12470713515E+03  0.19613952581E+03  0.12508731266E+03 0.  0.
          5    1    3    3  502    0  0.15148910670E+02 -0.11119878503E+03 -0.12332823347E+03  0.16679923518E+03  0.41800000000E+01 0. -1.
         -5    1    3    3    0  502  0.55487118398E+01  0.28472630391E+02 -0.13789016820E+01  0.29340290631E+02  0.41800000000E+01 0. -1.
        -11    1    1    2    0    0 -0.84326640215E+01  0.68305403684E+02  0.25906703915E+02  0.73538393392E+02  0.00000000000E+00 0.  1.
         11    1    1    2    0    0 -0.12264958488E+02  0.14420750952E+02 -0.58098742882E+02  0.61105246822E+02  0.00000000000E+00 0. -1.
</event>
<event>
 7    1  0.2820496E-009  0.1259503E+03  0.7561462E-02  0.1233592E+00
          1   -1    0    0  501    0  0.00000000000E+00  0.00000000000E+00  0.31181538572E+03  0.31181538572E+03  0.00000000000E+00 0. -1.
         -1   -1    0    0    0  501 -0.00000000000E+00 -0.00000000000E+00 -0.68362934767E+02  0.68362934767E+02  0.00000000000E+00 0.  1.
         25    2    1    2    0    0 -0.66848239666E+02 -0.63037761873E+02  0.88756423955E+02  0.17879816700E+03  0.12509450492E+03 0.  0.
          5    1    3    3  502    0 -0.58784503760E+02  0.26911203389E+02  0.38471149375E+02  0.75348075519E+02  0.41800000000E+01 0. -1.
         -5    1    3    3    0  502 -0.80637359057E+01 -0.89948965262E+02  0.50285274579E+02  0.10345009148E+03  0.41800000000E+01 0. -1.
        -11    1    1    2    0    0  0.21004478910E+02  0.40501288208E+02  0.14142315519E+03  0.14860030722E+03  0.00000000000E+00 0. -1.
         11    1    1    2    0    0  0.45843760756E+02  0.22536473665E+02  0.13272871800E+02  0.52779846261E+02  0.00000000000E+00 0.  1.
</event>
<event>
 7    1  0.2820496E-009  0.7514740E+02  0.7561462E-02  0.1343415E+00
          1   -1    0    0  501    0  0.00000000000E+00  0.00000000000E+00  0.90773836691E+02  0.90773836691E+02  0.00000000000E+00 0. -1.
         -1   -1    0    0    0  501 -0.00000000000E+00 -0.00000000000E+00 -0.13556095625E+03  0.13556095625E+03  0.00000000000E+00 0.  1.
         25    2    1    2    0    0  0.17828714214E+02  0.10407722432E+02 -0.39637853301E+02  0.13283408553E+03  0.12509017198E+03 0.  0.
          5    1    3    3  502    0 -0.80455044169E+01 -0.18621587274E+02  0.39476775200E+02  0.44580060948E+02  0.41800000000E+01 0.  1.
         -5    1    3    3    0  502  0.25874218631E+02  0.29029309707E+02 -0.79114628501E+02  0.88254024580E+02  0.41800000000E+01 0.  1.
        -11    1    1    2    0    0  0.28887537235E+02 -0.28306940751E+02 -0.13792249506E+02  0.42731707766E+02  0.00000000000E+00 0.  1.
         11    1    1    2    0    0 -0.46716251448E+02  0.17899218319E+02  0.86429832462E+01  0.50768999647E+02  0.00000000000E+00 0. -1.
</event>
<event>
 7    1  0.2820496E-009  0.1594431E+03  0.7561462E-02  0.1189327E+00
          1   -1    0    0  501    0  0.00000000000E+00  0.00000000000E+00  0.18043273995E+03  0.18043273995E+03  0.00000000000E+00 0. -1.
         -1   -1    0    0    0  501 -0.00000000000E+00 -0.00000000000E+00 -0.17534936926E+03  0.17534936926E+03  0.00000000000E+00 0.  1.
         25    2    1    2    0    0  0.13261951839E+03 -0.37811617699E+02  0.33462354142E+02  0.18917359837E+03  0.12509702668E+03 0.  0.
          5    1    3    3  502    0  0.39996318523E+02 -0.48478618031E+02  0.65142721868E+02  0.90614173913E+02  0.41800000000E+01 0.  1.
         -5    1    3    3    0  502  0.92623199868E+02  0.10667000332E+02 -0.31680367726E+02  0.98559424456E+02  0.41800000000E+01 0.  1.
        -11    1    1    2    0    0 -0.75974842046E+01  0.36767011715E+02 -0.16530784713E+02  0.41021966797E+02  0.00000000000E+00 0. -1.
         11    1    1    2    0    0 -0.12502203419E+03  0.10446059840E+01 -0.11848198739E+02  0.12558654405E+03  0.00000000000E+00 0.  1.
</event>
<event>
 7    1  0.2820496E-009  0.9050480E+02  0.7561462E-02  0.1301634E+00
         -1   -1    0    0    0  501 -0.00000000000E+00  0.00000000000E+00  0.13416768967E+03  0.13416768967E+03  0.00000000000E+00 0.  1.
          1   -1    0    0  501    0  0.00000000000E+00 -0.00000000000E+00 -0.10931877590E+03  0.10931877590E+03  0.00000000000E+00 0. -1.
         25    2    1    2    0    0 -0.48620586122E+02  0.12648139195E+02  0.24386096613E+02  0.13699030257E+03  0.12509086485E+03 0.  0.
          5    1    3    3  502    0 -0.39940123601E+02  0.63411056134E+02  0.37178869161E+02  0.83761066286E+02  0.41800000000E+01 0.  1.
         -5    1    3    3    0  502 -0.86804625211E+01 -0.50762916939E+02 -0.12792772549E+02  0.53229236283E+02  0.41800000000E+01 0.  1.
        -11    1    1    2    0    0  0.20909161633E+02  0.49090530541E+01  0.45770406633E+02  0.50559093796E+02  0.00000000000E+00 0.  1.
         11    1    1    2    0    0  0.27711424489E+02 -0.17557192249E+02 -0.45307589483E+02  0.55937069208E+02  0.00000000000E+00 0. -1.
</event>
<event>
 7    1  0.2820496E-009  0.1310736E+03  0.7561462E-02  0.1225871E+00
         -1   -1    0    0    0  501 -0.00000000000E+00  0.00000000000E+00  0.19886076052E+03  0.19886076052E+03  0.00000000000E+00 0.  1.
          1   -1    0    0  501    0  0.00000000000E+00 -0.00000000000E+00 -0.88863032813E+02  0.88863032813E+02  0.00000000000E+00 0. -1.
         25    2    1    2    0    0  0.52054045728E+02  0.55043779356E+02  0.58080980440E+02  0.15735514614E+03  0.12509116837E+03 0.  0.
          5    1    3    3  502    0  0.51485923173E+02  0.93871773940E+02  0.44219874964E+02  0.11591194921E+03  0.41800000000E+01 0.  1.
         -5    1    3    3    0  502  0.56812255474E+00 -0.38827994584E+02  0.13861105477E+02  0.41443196929E+02  0.41800000000E+01 0.  1.
        -11    1    1    2    0    0  0.24777532528E+02 -0.89321229882E+01 -0.90105116774E+00  0.26353763156E+02  0.00000000000E+00 0. -1.
         11    1    1    2    0    0 -0.76831578256E+02 -0.46111656368E+02  0.52817798433E+02  0.10401488404E+03  0.00000000000E+00 0.  1.
</event>
<event>
 7    1  0.2820496E-009  0.9140845E+02  0.7561462E-02  0.1299476E+00
          1   -1    0    0  501    0  0.00000000000E+00  0.00000000000E+00  0.10322422007E+04  0.10322422007E+04  0.00000000000E+00 0. -1.
         -1   -1    0    0    0  501 -0.00000000000E+00 -0.00000000000E+00 -0.15690831058E+02  0.15690831058E+02  0.00000000000E+00 0.  1.
         25    2    1    2    0    0  0.49672190796E+01 -0.22709685663E+02  0.81903579872E+03  0.82885911778E+03  0.12508954570E+03 0.  0.
          5    1    3    3  502    0 -0.53409108844E+02 -0.22714479308E+02  0.24354048994E+03  0.25039553334E+03  0.41800000000E+01 0. -1.
         -5    1    3    3    0  502  0.58376327923E+02  0.47936446706E-02  0.57549530879E+03  0.57846358444E+03  0.41800000000E+01 0. -1.
        -11    1    1    2    0    0 -0.12467700338E+02 -0.19547174261E+02  0.76440624603E+01  0.24412440767E+02  0.00000000000E+00 0.  1.
         11    1    1    2    0    0  0.75004812584E+01  0.42256859924E+02  0.18987150845E+03  0.19466147321E+03  0.00000000000E+00 0. -1.
</event>
<event>
 7    1  0.2820496E-009  0.1654988E+03  0.7561462E-02  0.1182625E+00
          2   -1    0    0  501    0  0.00000000000E+00  0.00000000000E+00  0.13003004701E+04  0.13003004701E+04  0.00000000000E+00 0. -1.
         -2   -1    0    0    0  501 -0.00000000000E+00 -0.00000000000E+00 -0.53985413220E+02  0.53985413220E+02  0.00000000000E+00 0.  1.
         25    2    1    2    0    0  0.13211231186E+03 -0.43496070807E+02  0.11444906826E+04  0.11596762106E+04  0.12507765491E+03 0.  0.
          5    1    3    3  502    0  0.12764147649E+02  0.38835746282E+02  0.20822665863E+03  0.21224267342E+03  0.41800000000E+01 0.  1.
         -5    1    3    3    0  502  0.11934816421E+03 -0.82331817089E+02  0.93626402394E+03  0.94743353716E+03  0.41800000000E+01 0.  1.
        -11    1    1    2    0    0 -0.47055805418E+02  0.36418805554E+02 -0.28231259100E+01  0.59569692474E+02  0.00000000000E+00 0. -1.
         11    1    1    2    0    0 -0.85056506442E+02  0.70772652525E+01  0.10464750025E+03  0.13503998030E+03  0.00000000000E+00 0.  1.
</event>
<event>
 7    1  0.2820496E-009  0.9660333E+02  0.7561462E-02  0.1287605E+00
          1   -1    0    0  501    0  0.00000000000E+00  0.00000000000E+00  0.53077151274E+03  0.53077151274E+03  0.00000000000E+00 0. -1.
         -1   -1    0    0    0  501 -0.00000000000E+00 -0.00000000000E+00 -0.32938110263E+02  0.32938110263E+02  0.00000000000E+00 0.  1.
         25    2    1    2    0    0  0.44392529446E+02  0.53158830090E+02  0.33577878094E+03  0.36495373274E+03  0.12508908594E+03 0.  0.
          5    1    3    3  502    0 -0.10548570577E+02  0.35846793796E+02  0.17492098881E+02  0.41469397029E+02  0.41800000000E+01 0.  1.
         -5    1    3    3    0  502  0.54941100024E+02  0.17312036295E+02  0.31828668206E+03  0.32348433571E+03  0.41800000000E+01 0.  1.
        -11    1    1    2    0    0  0.11135000553E+02  0.91344250527E+01 -0.21513533272E+01  0.14562083625E+02  0.00000000000E+00 0.  1.
         11    1    1    2    0    0 -0.55527530000E+02 -0.62293255143E+02  0.16420597487E+03  0.18419380665E+03  0.00000000000E+00 0. -1.
</event>
<event>
 7    1  0.2820496E-009  0.1199287E+03  0.7561462E-02  0.1243215E+00
         -2   -1    0    0    0  501 -0.00000000000E+00  0.00000000000E+00  0.14238385638E+02  0.14238385638E+02  0.00000000000E+00 0.  1.
          2   -1    0    0  501    0  0.00000000000E+00 -0.00000000000E+00 -0.20390192905E+04  0.20390192905E+04  0.00000000000E+00 0. -1.
         25    2    1    2    0    0 -0.64819444234E+02  0.72968884786E+02 -0.15906628170E+04  0.15985561508E+04  0.12509017332E+03 0.  0.
          5    1    3    3  502    0 -0.69801645874E+02  0.91379976539E+02 -0.86368343099E+03  0.87131458799E+03  0.41800000000E+01 0. -1.
         -5    1    3    3    0  502  0.49822016395E+01 -0.18411091753E+02 -0.72697938597E+03  0.72724156280E+03  0.41800000000E+01 0. -1.
        -11    1    1    2    0    0  0.42631061338E+02 -0.71226014744E+02 -0.42048720212E+03  0.42860242616E+03  0.00000000000E+00 0. -1.
         11    1    1    2    0    0  0.22188382896E+02 -0.17428700425E+01 -0.13630885797E+02  0.26099099202E+02  0.00000000000E+00 0.  1.
</event>
<event>
 7    1  0.2820496E-009  0.2070677E+03  0.7561462E-02  0.1143909E+00
         -2   -1    0    0    0  501 -0.00000000000E+00  0.00000000000E+00  0.46601501591E+02  0.46601501591E+02  0.00000000000E+00 0.  1.
          2   -1    0    0  501    0  0.00000000000E+00 -0.00000000000E+00 -0.11121114319E+04  0.11121114319E+04  0.00000000000E+00 0. -1.
         25    2    1    2    0    0 -0.10230404686E+03  0.15672011680E+03 -0.43524608661E+03  0.49001455398E+03  0.12509114353E+03 0.  0.
          5    1    3    3  502    0 -0.15739415700E+02 -0.11478126142E+02 -0.58283168120E+01  0.20758570837E+02  0.41800000000E+01 0.  1.
         -5    1    3    3    0  502 -0.86564631161E+02  0.16819824295E+03 -0.42941776979E+03  0.46925598314E+03  0.41800000000E+01 0.  1.
        -11    1    1    2    0    0  0.84884841236E+02 -0.53541358017E+02 -0.17661416429E+03  0.20313708750E+03  0.00000000000E+00 0.  1.
         11    1    1    2    0    0  0.17419205624E+02 -0.10317875879E+03 -0.45364967937E+03  0.46556129197E+03  0.00000000000E+00 0. -1.
</event>
<event>
 7    1  0.3319210E-009  0.2114474E+03  0.7561462E-02  0.1140425E+00
          2   -1    0    0  501    0  0.00000000000E+00  0.00000000000E+00  0.68786778330E+03  0.68786778330E+03  0.00000000000E+00 0. -1.
         -2   -1    0    0    0  501 -0.00000000000E+00 -0.00000000000E+00 -0.84291211343E+02  0.84291211343E+02  0.00000000000E+00 0.  1.
         25    2    1    2    0    0  0.12113678992E+03 -0.14680581408E+03  0.47106561910E+03  0.52323623263E+03  0.12508904315E+03 0.  0.
          5    1    3    3  502    0  0.69176353360E+02 -0.95619055088E+01  0.84321381219E+02  0.10956443598E+03  0.41800000000E+01 0.  1.
         -5    1    3    3    0  502  0.51960436563E+02 -0.13724390857E+03  0.38674423789E+03  0.41367179665E+03  0.41800000000E+01 0.  1.
        -11    1    1    2    0    0 -0.11425653604E+03  0.81227716558E+02  0.64898173028E+02  0.15448064871E+03  0.00000000000E+00 0. -1.
         11    1    1    2    0    0 -0.68802538845E+01  0.65578097523E+02  0.67612779826E+02  0.94442113297E+02  0.00000000000E+00 0.  1.
</event>
<event>
 7    1  0.2820496E-009  0.7894998E+02  0.7561462E-02  0.1332058E+00
         -1   -1    0    0    0  501 -0.00000000000E+00  0.00000000000E+00  0.36549276777E+02  0.36549276777E+02  0.00000000000E+00 0.  1.
          1   -1    0    0  501    0  0.00000000000E+00 -0.00000000000E+00 -0.46094788862E+03  0.46094788862E+03  0.00000000000E+00 0. -1.
         25    2    1    2    0    0 -0.25884698286E+02 -0.29288230560E+02 -0.11949959959E+03  0.17735810159E+03  0.12509166177E+03 0.  0.
          5    1    3    3  502    0 -0.32190969813E+02 -0.37464054553E+02  0.72688957679E+01  0.50101129396E+02  0.41800000000E+01 0. -1.
         -5    1    3    3    0  502  0.63062715269E+01  0.81758239934E+01 -0.12676849535E+03  0.12725697220E+03  0.41800000000E+01 0. -1.
        -11    1    1    2    0    0 -0.24825659624E+02 -0.15721753212E+02 -0.79222613912E+02  0.84496801448E+02  0.00000000000E+00 0.  1.
         11    1    1    2    0    0  0.50710357909E+02  0.45009983771E+02 -0.22567639835E+03  0.23564226236E+03  0.00000000000E+00 0. -1.
</event>
<event>
 7    1  0.2820496E-009  0.1332090E+03  0.7561462E-02  0.1222770E+00
         -2   -1    0    0    0  501 -0.00000000000E+00  0.00000000000E+00  0.33182761882E+02  0.33182761882E+02  0.00000000000E+00 0.  1.
          2   -1    0    0  501    0  0.00000000000E+00 -0.00000000000E+00 -0.69105185850E+03  0.69105185850E+03  0.00000000000E+00 0. -1.
         25    2    1    2    0    0  0.61958332831E+01 -0.10184097592E+03 -0.36101659657E+03  0.39546176610E+03  0.12508817977E+03 0.  0.
          5    1    3    3  502    0  0.35040894003E+02 -0.83552959842E+02 -0.34639971395E+03  0.35807708049E+03  0.41800000000E+01 0.  1.
         -5    1    3    3    0  502 -0.28845060720E+02 -0.18288016076E+02 -0.14616882622E+02  0.37384685602E+02  0.41800000000E+01 0.  1.
        -11    1    1    2    0    0 -0.45441940271E+02  0.18260758845E+02 -0.10140406082E+03  0.11261087336E+03  0.00000000000E+00 0.  1.
         11    1    1    2    0    0  0.39246106988E+02  0.83580217073E+02 -0.19544843922E+03  0.21616198092E+03  0.00000000000E+00 0. -1.
</event>
<event>
 7    1  0.2820496E-009  0.1485024E+03  0.7561462E-02  0.1202325E+00
         -1   -1    0    0    0  501 -0.00000000000E+00  0.00000000000E+00  0.18410250190E+02  0.18410250190E+02  0.00000000000E+00 0.  1.
          1   -1    0    0  501    0  0.00000000000E+00 -0.00000000000E+00 -0.14517612621E+04  0.14517612621E+04  0.00000000000E+00 0. -1.
         25    2    1    2    0    0  0.66803463168E+01  0.10873237233E+03 -0.10092591698E+04  0.10228000129E+04  0.12509371978E+03 0.  0.
          5    1    3    3  502    0  0.39016189376E+02  0.11487582429E+03 -0.91186047931E+03  0.91990527999E+03  0.41800000000E+01 0.  1.
         -5    1    3    3    0  502 -0.32335843059E+02 -0.61434519629E+01 -0.97398690502E+02  0.10289473291E+03  0.41800000000E+01 0.  1.
        -11    1    1    2    0    0 -0.29545668516E+02  0.17618440309E+01 -0.87741031243E+02  0.92598807693E+02  0.00000000000E+00 0.  1.
         11    1    1    2    0    0  0.22865322200E+02 -0.11049421636E+03 -0.33635081087E+03  0.35477269171E+03  0.00000000000E+00 0. -1.
</event>
<event>
 7    1  0.2820496E-009  0.1133202E+03  0.7561462E-02  0.1254542E+00
         -1   -1    0    0    0  501 -0.00000000000E+00  0.00000000000E+00  0.43622632161E+02  0.43622632161E+02  0.00000000000E+00 0.  1.
          1   -1    0    0  501    0  0.00000000000E+00 -0.00000000000E+00 -0.32967328502E+03  0.32967328502E+03  0.00000000000E+00 0. -1.
         25    2    1    2    0    0  0.16783481302E+02 -0.28269564728E+02 -0.21418304912E+03  0.25020619918E+03  0.12509160660E+03 0.  0.
          5    1    3    3  502    0  0.66411335517E+02 -0.39099848968E+02 -0.11199923604E+03  0.13601678187E+03  0.41800000000E+01 0.  1.
         -5    1    3    3    0  502 -0.49627854215E+02  0.10830284240E+02 -0.10218381308E+03  0.11418941731E+03  0.41800000000E+01 0.  1.
        -11    1    1    2    0    0 -0.55268292999E+02  0.11196256873E+02 -0.51293098827E+02  0.76229406178E+02  0.00000000000E+00 0.  1.
         11    1    1    2    0    0  0.38484811697E+02  0.17073307855E+02 -0.20574504915E+02  0.46860311832E+02  0.00000000000E+00 0. -1.
</event>
<event>
 7    1  0.3231741E-009  0.1085496E+03  0.7561462E-02  0.1263280E+00
          2   -1    0    0  501    0  0.00000000000E+00  0.00000000000E+00  0.52809523031E+03  0.52809523031E+03  0.00000000000E+00 0. -1.
         -2   -1    0    0    0  501 -0.00000000000E+00 -0.00000000000E+00 -0.43739134320E+02  0.43739134320E+02  0.00000000000E+00 0.  1.
         25    2    1    2    0    0 -0.97720907061E+02  0.17185232708E+02  0.19202728523E+03  0.24973339660E+03  0.12509030019E+03 0.  0.
          5    1    3    3  502    0 -0.61096463331E+02  0.68140838375E+01  0.20114367305E+03  0.21036981528E+03  0.41800000000E+01 0. -1.
         -5    1    3    3    0  502 -0.36624443730E+02  0.10371148871E+02 -0.91163878222E+01  0.39363581320E+02  0.41800000000E+01 0. -1.
        -11    1    1    2    0    0  0.41418737253E+02 -0.38921155328E+02  0.62492901462E+02  0.84473255300E+02  0.00000000000E+00 0.  1.
         11    1    1    2    0    0  0.56302169808E+02  0.21735922620E+02  0.22983590930E+03  0.23762771273E+03  0.00000000000E+00 0. -1.
</event>
<event>
 7    1  0.2820496E-009  0.1129584E+03  0.7561462E-02  0.1255187E+00
          2   -1    0    0  501    0  0.00000000000E+00  0.00000000000E+00  0.43506296320E+03  0.43506296320E+03  0.00000000000E+00 0.  1.
         -2   -1    0    0    0  501 -0.00000000000E+00 -0.00000000000E+00 -0.42117105411E+02  0.42117105411E+02  0.00000000000E+00 0. -1.
         25    2    1    2    0    0 -0.76131406129E+01 -0.74870791592E+02  0.27823925933E+03  0.31420987822E+03  0.12508863575E+03 0.  0.
          5    1    3    3  502    0 -0.55006972019E+02 -0.53646833553E+02  0.23243172037E+03  0.24483816441E+03  0.41800000000E+01 0.  1.
         -5    1    3    3    0  502  0.47393831406E+02 -0.21223958039E+02  0.45807538963E+02  0.69371713803E+02  0.41800000000E+01 0.  1.
        -11    1    1    2    0    0 -0.45082642090E+01  0.82450793073E+02  0.49628437889E+02  0.96340228211E+02  0.00000000000E+00 0. -1.
         11    1    1    2    0    0  0.12121404822E+02 -0.75800014808E+01  0.65078160570E+02  0.66629962183E+02  0.00000000000E+00 0.  1.
</event>
<event>
 7    1  0.2820496E-009  0.1195612E+03  0.7561462E-02  0.1243823E+00
          2   -1    0    0  501    0  0.00000000000E+00  0.00000000000E+00  0.31240171640E+02  0.31240171640E+02  0.00000000000E+00 0. -1.
         -2   -1    0    0    0  501 -0.00000000000E+00 -0.00000000000E+00 -0.56917841615E+03  0.56917841615E+03  0.00000000000E+00 0.  1.
         25    2    1    2    0    0 -0.44055166132E+02 -0.60980188865E+02 -0.30806953808E+03  0.34090127124E+03  0.12508954929E+03 0.  0.
          5    1    3    3  502    0  0.37717513287E+02 -0.12625242833E+02 -0.40421967551E+02  0.56863128878E+02  0.41800000000E+01 0. -1.
         -5    1    3    3    0  502 -0.81772679419E+02 -0.48354946032E+02 -0.26764757053E+03  0.28403814236E+03  0.41800000000E+01 0. -1.
        -11    1    1    2    0    0 -0.20065816253E+02  0.12360344585E+02 -0.10397590079E+02  0.25758978621E+02  0.00000000000E+00 0. -1.
         11    1    1    2    0    0  0.64120982385E+02  0.48619844280E+02 -0.21947111635E+03  0.23375833793E+03  0.00000000000E+00 0.  1.
</event>
<event>
 7    1  0.2820496E-009  0.1411458E+03  0.7561462E-02  0.1211796E+00
         -1   -1    0    0    0  501 -0.00000000000E+00  0.00000000000E+00  0.22549680502E+02  0.22549680502E+02  0.00000000000E+00 0.  1.
          1   -1    0    0  501    0  0.00000000000E+00 -0.00000000000E+00 -0.95095084610E+03  0.95095084610E+03  0.00000000000E+00 0. -1.
         25    2    1    2    0    0 -0.91827788977E+02 -0.14322784535E+02 -0.61598691486E+03  0.63539344201E+03  0.12508981532E+03 0.  0.
          5    1    3    3  502    0  0.30196666954E+02 -0.44975889847E+01 -0.83634682692E+02  0.89130800237E+02  0.41800000000E+01 0.  1.
         -5    1    3    3    0  502 -0.12202445593E+03 -0.98251955506E+01 -0.53235223216E+03  0.54626264178E+03  0.41800000000E+01 0.  1.
        -11    1    1    2    0    0  0.91559754561E+02  0.42404947401E+02 -0.25342909171E+03  0.27277769840E+03  0.00000000000E+00 0. -1.
         11    1    1    2    0    0  0.26803441591E+00 -0.28082162866E+02 -0.58985159035E+02  0.65329386191E+02  0.00000000000E+00 0.  1.
</event>
<event>
 7    1  0.2820496E-009  0.1987555E+03  0.7561462E-02  0.1150793E+00
          1   -1    0    0  501    0  0.00000000000E+00  0.00000000000E+00  0.48223081430E+02  0.48223081430E+02  0.00000000000E+00 0. -1.
         -1   -1    0    0    0  501 -0.00000000000E+00 -0.00000000000E+00 -0.88898438878E+03  0.88898438878E+03  0.00000000000E+00 0.  1.
         25    2    1    2    0    0  0.12332009403E+03  0.12396298803E+03 -0.47081605618E+03  0.51758167521E+03  0.12509342014E+03 0.  0.
          5    1    3    3  502    0  0.52687527089E+02 -0.10941409442E+02 -0.67305758539E+02  0.86274141456E+02  0.41800000000E+01 0.  1.
         -5    1    3    3    0  502  0.70632566941E+02  0.13490439748E+03 -0.40351029764E+03  0.43130753376E+03  0.41800000000E+01 0.  1.
        -11    1    1    2    0    0 -0.79139514070E+02 -0.12390569722E+03 -0.23093740699E+03  0.27376590445E+03  0.00000000000E+00 0. -1.
         11    1    1    2    0    0 -0.44180579960E+02 -0.57290810090E-01 -0.13900784417E+03  0.14585989055E+03  0.00000000000E+00 0.  1.
</event>
<event>
 7    1  0.2820496E-009  0.1328783E+03  0.7561462E-02  0.1223246E+00
          3   -1    0    0  501    0  0.00000000000E+00  0.00000000000E+00  0.14076100094E+03  0.14076100094E+03  0.00000000000E+00 0. -1.
         -3   -1    0    0    0  501 -0.00000000000E+00 -0.00000000000E+00 -0.15792327884E+03  0.15792327884E+03  0.00000000000E+00 0.  1.
         25    2    1    2    0    0 -0.78857353958E+02  0.11982715658E+02  0.54364439445E+02  0.15800281109E+03  0.12508928127E+03 0.  0.
          5    1    3    3  502    0  0.91213295406E+01 -0.43194698982E+02  0.18599990041E+02  0.48087552467E+02  0.41800000000E+01 0.  1.
         -5    1    3    3    0  502 -0.87978683499E+02  0.55177414640E+02  0.35764449404E+02  0.10991525862E+03  0.41800000000E+01 0.  1.
        -11    1    1    2    0    0 -0.63357980289E+01 -0.29779261595E+02 -0.34742549500E+02  0.46195145888E+02  0.00000000000E+00 0. -1.
         11    1    1    2    0    0  0.85193151987E+02  0.17796545937E+02 -0.36784167845E+02  0.94486322803E+02  0.00000000000E+00 0.  1.
</event>
<event>
 7    1  0.2820496E-009  0.1364284E+03  0.7561462E-02  0.1218217E+00
         -1   -1    0    0    0  501 -0.00000000000E+00  0.00000000000E+00  0.44985296386E+03  0.44985296386E+03  0.00000000000E+00 0.  1.
          1   -1    0    0  501    0  0.00000000000E+00 -0.00000000000E+00 -0.43436144912E+02  0.43436144912E+02  0.00000000000E+00 0. -1.
         25    2    1    2    0    0 -0.23206636994E+02  0.84595612218E+02  0.22523500345E+03  0.27216419749E+03  0.12509027945E+03 0.  0.
          5    1    3    3  502    0 -0.74539785270E+02  0.55539217714E+02  0.14925549158E+03  0.17588478746E+03  0.41800000000E+01 0.  1.
         -5    1    3    3    0  502  0.51333148276E+02  0.29056394504E+02  0.75979511865E+02  0.96279410035E+02  0.41800000000E+01 0.  1.
        -11    1    1    2    0    0  0.53971055390E+02 -0.43392257302E+02  0.13624694269E+03  0.15283648847E+03  0.00000000000E+00 0. -1.
         11    1    1    2    0    0 -0.30764418396E+02 -0.41203354916E+02  0.44934872806E+02  0.68288422808E+02  0.00000000000E+00 0.  1.
</event>
<event>
 7    1  0.2820496E-009  0.2564221E+03  0.7561462E-02  0.1109312E+00
         -2   -1    0    0    0  501 -0.00000000000E+00  0.00000000000E+00  0.48399263884E+02  0.48399263884E+02  0.00000000000E+00 0.  1.
          2   -1    0    0  501    0  0.00000000000E+00 -0.00000000000E+00 -0.15696953340E+04  0.15696953340E+04  0.00000000000E+00 0. -1.
         25    2    1    2    0    0 -0.35310186597E+02  0.24702569061E+03 -0.90223592484E+03  0.94442885929E+03  0.12509078737E+03 0.  0.
          5    1    3    3  502    0  0.24527443099E+02  0.96439066569E+02 -0.19628325547E+03  0.22010606035E+03  0.41800000000E+01 0. -1.
         -5    1    3    3    0  502 -0.59837629696E+02  0.15058662404E+03 -0.70595266937E+03  0.72432279894E+03  0.41800000000E+01 0. -1.
        -11    1    1    2    0    0  0.39441718193E+02 -0.19409520098E+03 -0.56126507028E+03  0.59518658864E+03  0.00000000000E+00 0. -1.
         11    1    1    2    0    0 -0.41315315960E+01 -0.52930489630E+02 -0.57795075022E+02  0.78479149986E+02  0.00000000000E+00 0.  1.
</event>
<event>
 7    1  0.2820496E-009  0.1092843E+03  0.7561462E-02  0.1261901E+00
          2   -1    0    0  501    0  0.00000000000E+00  0.00000000000E+00  0.65957480520E+03  0.65957480520E+03  0.00000000000E+00 0.  1.
         -2   -1    0    0    0  501 -0.00000000000E+00 -0.00000000000E+00 -0.38021775872E+02  0.38021775872E+02  0.00000000000E+00 0. -1.
         25    2    1    2    0    0 -0.52061865962E+01 -0.52556521558E+02  0.56222966309E+03  0.57839378480E+03  0.12509150209E+03 0.  0.
          5    1    3    3  502    0 -0.15300817634E+02  0.37820713354E+02  0.24303590447E+03  0.24647199565E+03  0.41800000000E+01 0. -1.
         -5    1    3    3    0  502  0.10094631038E+02 -0.90377234912E+02  0.31919375862E+03  0.33192178914E+03  0.41800000000E+01 0. -1.
        -11    1    1    2    0    0  0.60469526402E+01 -0.16441457466E+02 -0.10995382867E+02  0.20682978611E+02  0.00000000000E+00 0. -1.
         11    1    1    2    0    0 -0.84076604401E+00  0.68997979024E+02  0.70318749102E+02  0.98519817662E+02  0.00000000000E+00 0.  1.
</event>
<event>
 7    1  0.2820496E-009  0.2145664E+03  0.7561462E-02  0.1138000E+00
         -1   -1    0    0    0  501 -0.00000000000E+00  0.00000000000E+00  0.43985737264E+02  0.43985737264E+02  0.00000000000E+00 0.  1.
          1   -1    0    0  501    0  0.00000000000E+00 -0.00000000000E+00 -0.14523990451E+04  0.14523990451E+04  0.00000000000E+00 0. -1.
         25    2    1    2    0    0  0.14671376260E+03  0.13562168210E+03 -0.10569131125E+04  0.10828809851E+04  0.12509089353E+03 0.  0.
          5    1    3    3  502    0  0.56763692714E+02 -0.88240709259E+01 -0.16225942874E+03  0.17217890595E+03  0.41800000000E+01 0. -1.
         -5    1    3    3    0  502  0.89950069888E+02  0.14444575302E+03 -0.89465368377E+03  0.91070207913E+03  0.41800000000E+01 0. -1.
        -11    1    1    2    0    0 -0.53775933782E+02 -0.66355688335E+02 -0.23109441594E+03  0.24637280188E+03  0.00000000000E+00 0. -1.
         11    1    1    2    0    0 -0.92937828819E+02 -0.69265993763E+02 -0.12040577939E+03  0.16713099542E+03  0.00000000000E+00 0.  1.
</event>
<event>
 7    1  0.2820496E-009  0.1230479E+03  0.7561462E-02  0.1238152E+00
         -2   -1    0    0    0  501 -0.00000000000E+00  0.00000000000E+00  0.82411449279E+02  0.82411449279E+02  0.00000000000E+00 0.  1.
          2   -1    0    0  501    0  0.00000000000E+00 -0.00000000000E+00 -0.26131294262E+03  0.26131294262E+03  0.00000000000E+00 0. -1.
         25    2    1    2    0    0 -0.42294998911E+02  0.77043354164E+02 -0.15656327375E+03  0.21882592326E+03  0.12509268824E+03 0.  0.
          5    1    3    3  502    0 -0.66573122496E+01  0.10606084579E+03 -0.11614452578E+03  0.15748093880E+03  0.41800000000E+01 0. -1.
         -5    1    3    3    0  502 -0.35637686662E+02 -0.29017491630E+02 -0.40418747970E+02  0.61344984461E+02  0.41800000000E+01 0. -1.
        -11    1    1    2    0    0  0.22922131929E+02 -0.12292179817E+02  0.29787843327E+02  0.39545384395E+02  0.00000000000E+00 0.  1.
         11    1    1    2    0    0  0.19372866983E+02 -0.64751174347E+02 -0.52126062918E+02  0.85353084243E+02  0.00000000000E+00 0. -1.
</event>
<event>
 7    1  0.2820496E-009  0.1333059E+03  0.7561462E-02  0.1222631E+00
          2   -1    0    0  501    0  0.00000000000E+00  0.00000000000E+00  0.27756252996E+03  0.27756252996E+03  0.00000000000E+00 0.  1.
         -2   -1    0    0    0  501 -0.00000000000E+00 -0.00000000000E+00 -0.71687786444E+02  0.71687786444E+02  0.00000000000E+00 0. -1.
         25    2    1    2    0    0 -0.36900468662E+02  0.81469004023E+02  0.10208072043E+03  0.18457545686E+03  0.12509509418E+03 0.  0.
          5    1    3    3  502    0 -0.21989406826E+02 -0.26397814211E+02 -0.92824836221E+00  0.34622429908E+02  0.41800000000E+01 0. -1.
         -5    1    3    3    0  502 -0.14911061835E+02  0.10786681823E+03  0.10300896879E+03  0.14995302695E+03  0.41800000000E+01 0. -1.
        -11    1    1    2    0    0  0.64487771329E+02 -0.54206839290E+02  0.90580313636E+02  0.12370063579E+03  0.00000000000E+00 0.  1.
         11    1    1    2    0    0 -0.27587302668E+02 -0.27262164734E+02  0.13213709447E+02  0.40974223749E+02  0.00000000000E+00 0. -1.
</event>
<event>
 7    1  0.2820496E-009  0.1138161E+03  0.7561462E-02  0.1253662E+00
         -2   -1    0    0    0  501 -0.00000000000E+00  0.00000000000E+00  0.22686336361E+03  0.22686336361E+03  0.00000000000E+00 0. -1.
          2   -1    0    0  501    0  0.00000000000E+00 -0.00000000000E+00 -0.98186009362E+02  0.98186009362E+02  0.00000000000E+00 0.  1.
         25    2    1    2    0    0 -0.76721168827E+02 -0.20093577659E+02  0.40571335479E+00  0.14810950035E+03  0.12508545031E+03 0.  0.
          5    1    3    3  502    0 -0.89873879733E+02 -0.22454260342E+02  0.43769419717E+02  0.10254141879E+03  0.41800000000E+01 0. -1.
         -5    1    3    3    0  502  0.13152710906E+02  0.23606826832E+01 -0.43363706363E+02  0.45568081553E+02  0.41800000000E+01 0. -1.
        -11    1    1    2    0    0  0.97764158348E+02  0.20330605624E+02  0.11380561966E+03  0.15140304900E+03  0.00000000000E+00 0.  1.
         11    1    1    2    0    0 -0.21042989521E+02 -0.23702796497E+00  0.14466021236E+02  0.25536823621E+02  0.00000000000E+00 0. -1.
</event>
<event>
 7    1  0.2820496E-009  0.1232878E+03  0.7561462E-02  0.1237770E+00
          1   -1    0    0  501    0  0.00000000000E+00  0.00000000000E+00  0.50486957743E+03  0.50486957743E+03  0.00000000000E+00 0. -1.
         -1   -1    0    0    0  501 -0.00000000000E+00 -0.00000000000E+00 -0.46678992966E+02  0.46678992966E+02  0.00000000000E+00 0.  1.
         25    2    1    2    0    0 -0.40970977609E+02  0.53610507523E+02  0.39771493317E+03  0.42234709466E+03  0.12508873960E+03 0.  0.
          5    1    3    3  502    0  0.41484695459E+02  0.32507121497E+02  0.10619996960E+03  0.11863219988E+03  0.41800000000E+01 0. -1.
         -5    1    3    3    0  502 -0.82455673069E+02  0.21103386026E+02  0.29151496357E+03  0.30371489478E+03  0.41800000000E+01 0. -1.
        -11    1    1    2    0    0  0.20706028266E+01  0.22722515189E+02  0.31223121648E+02  0.38671480681E+02  0.00000000000E+00 0. -1.
         11    1    1    2    0    0  0.38900374783E+02 -0.76333022712E+02  0.29252529645E+02  0.90529995058E+02  0.00000000000E+00 0.  1.
</event>
<event>
 7    1  0.2820496E-009  0.1018648E+03  0.7561462E-02  0.1276423E+00
         -1   -1    0    0    0  501 -0.00000000000E+00  0.00000000000E+00  0.22650794521E+02  0.22650794521E+02  0.00000000000E+00 0.  1.
          1   -1    0    0  501    0  0.00000000000E+00 -0.00000000000E+00 -0.59657576714E+03  0.59657576714E+03  0.00000000000E+00 0. -1.
         25    2    1    2    0    0  0.32532427155E+02 -0.32993849193E+02 -0.32499761481E+03  0.35130802443E+03  0.12508767123E+03 0.  0.
          5    1    3    3  502    0 -0.31187442185E+02 -0.25227974597E+02 -0.24669711978E+03  0.24997209556E+03  0.41800000000E+01 0.  1.
         -5    1    3    3    0  502  0.63719869340E+02 -0.77658745961E+01 -0.78300495036E+02  0.10133592887E+03  0.41800000000E+01 0.  1.
        -11    1    1    2    0    0  0.25027492538E+02  0.33118128726E+02 -0.10513044307E+03  0.11302918160E+03  0.00000000000E+00 0. -1.
         11    1    1    2    0    0 -0.57559919694E+02 -0.12427953257E+00 -0.14379691473E+03  0.15488935563E+03  0.00000000000E+00 0.  1.
</event>
<event>
 7    1  0.2820496E-009  0.1645899E+03  0.7561462E-02  0.1183610E+00
          3   -1    0    0  501    0  0.00000000000E+00  0.00000000000E+00  0.13561947565E+04  0.13561947565E+04  0.00000000000E+00 0. -1.
         -3   -1    0    0    0  501 -0.00000000000E+00 -0.00000000000E+00 -0.24171411470E+02  0.24171411470E+02  0.00000000000E+00 0.  1.
         25    2    1    2    0    0  0.59891834528E+02  0.10943943284E+03  0.42785905705E+03  0.46289815492E+03  0.12508919948E+03 0.  0.
          5    1    3    3  502    0  0.56615803721E+02 -0.68204505843E+01  0.10277693101E+03  0.11761138434E+03  0.41800000000E+01 0.  1.
         -5    1    3    3    0  502  0.32760308075E+01  0.11625988343E+03  0.32508212603E+03  0.34528677058E+03  0.41800000000E+01 0.  1.
        -11    1    1    2    0    0 -0.25907615940E+02 -0.11780644624E+03  0.71070798049E+03  0.72087127622E+03  0.00000000000E+00 0.  1.
         11    1    1    2    0    0 -0.33984218589E+02  0.83670133923E+01  0.19345630748E+03  0.19659673683E+03  0.00000000000E+00 0. -1.
</event>
<event>
 7    1  0.2820496E-009  0.1253320E+03  0.7561462E-02  0.1234551E+00
         -2   -1    0    0    0  501 -0.00000000000E+00  0.00000000000E+00  0.68333693738E+02  0.68333693738E+02  0.00000000000E+00 0.  1.
          2   -1    0    0  501    0  0.00000000000E+00 -0.00000000000E+00 -0.24800056434E+03  0.24800056434E+03  0.00000000000E+00 0. -1.
         25    2    1    2    0    0 -0.64436744868E+02 -0.10721523509E+02 -0.65157236229E+02  0.15543539548E+03  0.12509057351E+03 0.  0.
          5    1    3    3  502    0 -0.59689121875E+02  0.51233026762E+02 -0.38823304636E+02  0.87819904830E+02  0.41800000000E+01 0.  1.
         -5    1    3    3    0  502 -0.47476229932E+01 -0.61954550271E+02 -0.26333931594E+02  0.67615490655E+02  0.41800000000E+01 0.  1.
        -11    1    1    2    0    0  0.12204649073E+02  0.45338836878E+02 -0.68975894180E+02  0.83440023768E+02  0.00000000000E+00 0. -1.
         11    1    1    2    0    0  0.52232095795E+02 -0.34617313370E+02 -0.45533740192E+02  0.77458838824E+02  0.00000000000E+00 0.  1.
</event>
<event>
 7    1  0.2820496E-009  0.1495826E+03  0.7561462E-02  0.1200987E+00
         -1   -1    0    0    0  501 -0.00000000000E+00  0.00000000000E+00  0.13911244869E+04  0.13911244869E+04  0.00000000000E+00 0.  1.
          1   -1    0    0  501    0  0.00000000000E+00 -0.00000000000E+00 -0.17540541091E+02  0.17540541091E+02  0.00000000000E+00 0. -1.
         25    2    1    2    0    0  0.92173435192E+02  0.55283694494E+02  0.59824422031E+03  0.62056090512E+03  0.12508981092E+03 0.  0.
          5    1    3    3  502    0  0.10651834362E+03  0.64109690038E+01  0.31149064249E+03  0.32928885618E+03  0.41800000000E+01 0. -1.
         -5    1    3    3    0  502 -0.14344908431E+02  0.48872725491E+02  0.28675357782E+03  0.29127204893E+03  0.41800000000E+01 0. -1.
        -11    1    1    2    0    0 -0.94402128612E+02 -0.75529413862E+02  0.66271420924E+03  0.67365167362E+03  0.00000000000E+00 0.  1.
         11    1    1    2    0    0  0.22286934204E+01  0.20245719368E+02  0.11262551631E+03  0.11445244930E+03  0.00000000000E+00 0. -1.
</event>
<event>
 7    1  0.2820496E-009  0.9113996E+02  0.7561462E-02  0.1300114E+00
          2   -1    0    0  501    0  0.00000000000E+00  0.00000000000E+00  0.64836095828E+03  0.64836095828E+03  0.00000000000E+00 0. -1.
         -2   -1    0    0    0  501 -0.00000000000E+00 -0.00000000000E+00 -0.19577315894E+02  0.19577315894E+02  0.00000000000E+00 0.  1.
         25    2    1    2    0    0  0.10126697477E+01 -0.18182346289E+02  0.29757340511E+03  0.32330847032E+03  0.12508721893E+03 0.  0.
          5    1    3    3  502    0 -0.41462387326E+02 -0.16311504001E+01  0.28842621924E+02  0.50706601679E+02  0.41800000000E+01 0.  1.
         -5    1    3    3    0  502  0.42475057074E+02 -0.16551195889E+02  0.26873078318E+03  0.27260186864E+03  0.41800000000E+01 0.  1.
        -11    1    1    2    0    0 -0.20142427405E+02 -0.33834019156E+02  0.12160386858E+03  0.12782002616E+03  0.00000000000E+00 0. -1.
         11    1    1    2    0    0  0.19129757657E+02  0.52016365446E+02  0.20960636870E+03  0.21680977769E+03  0.00000000000E+00 0.  1.
</event>
<event>
 7    1  0.2820496E-009  0.1613928E+03  0.7561462E-02  0.1187133E+00
         -1   -1    0    0    0  501 -0.00000000000E+00  0.00000000000E+00  0.69858655163E+02  0.69858655163E+02  0.00000000000E+00 0.  1.
          1   -1    0    0  501    0  0.00000000000E+00 -0.00000000000E+00 -0.46331966019E+03  0.46331966019E+03  0.00000000000E+00 0. -1.
         25    2    1    2    0    0  0.12739107714E+03 -0.60617898035E+02 -0.24212054814E+03  0.30687646348E+03  0.12509111842E+03 0.  0.
          5    1    3    3  502    0 -0.84173807277E+01  0.18638718385E+02 -0.72937926860E+02  0.75866116916E+02  0.41800000000E+01 0.  1.
         -5    1    3    3    0  502  0.13580845787E+03 -0.79256616420E+02 -0.16918262128E+03  0.23101034656E+03  0.41800000000E+01 0.  1.
        -11    1    1    2    0    0 -0.68734511446E+02  0.15118075089E+02 -0.13199917346E+03  0.14958867288E+03  0.00000000000E+00 0. -1.
         11    1    1    2    0    0 -0.58656565698E+02  0.45499822947E+02 -0.19341283427E+02  0.76713179000E+02  0.00000000000E+00 0.  1.
</event>
<event>
 7    1  0.2820496E-009  0.9680393E+02  0.7561462E-02  0.1287164E+00
         -2   -1    0    0    0  501 -0.00000000000E+00  0.00000000000E+00  0.24832209978E+02  0.24832209978E+02  0.00000000000E+00 0. -1.
          2   -1    0    0  501    0  0.00000000000E+00 -0.00000000000E+00 -0.52959742911E+03  0.52959742911E+03  0.00000000000E+00 0.  1.
         25    2    1    2    0    0 -0.85340261787E+01  0.28170608936E+02 -0.35855065933E+03  0.38088323927E+03  0.12508818425E+03 0.  0.
          5    1    3    3  502    0  0.33673435291E+02  0.58396184613E+02 -0.26842283807E+03  0.27678928270E+03  0.41800000000E+01 0. -1.
         -5    1    3    3    0  502 -0.42207461470E+02 -0.30225575677E+02 -0.90127821261E+02  0.10409395657E+03  0.41800000000E+01 0. -1.
        -11    1    1    2    0    0  0.37101445169E+02 -0.54782243382E+01 -0.12677721966E+03  0.13220813742E+03  0.00000000000E+00 0.  1.
         11    1    1    2    0    0 -0.28567418990E+02 -0.22692384598E+02 -0.19437340147E+02  0.41338262403E+02  0.00000000000E+00 0. -1.
</event>
<event>
 7    1  0.2820496E-009  0.1420583E+03  0.7561462E-02  0.1210586E+00
         -2   -1    0    0    0  501 -0.00000000000E+00  0.00000000000E+00  0.15177123555E+03  0.15177123555E+03  0.00000000000E+00 0.  1.
          2   -1    0    0  501    0  0.00000000000E+00 -0.00000000000E+00 -0.15353104730E+03  0.15353104730E+03  0.00000000000E+00 0. -1.
         25    2    1    2    0    0  0.39443755588E+02  0.90534780974E+02  0.40764931797E+02  0.16450444177E+03  0.12509026851E+03 0.  0.
          5    1    3    3  502    0  0.73591873020E+02  0.18642966098E+02  0.24438243917E+01  0.76070813307E+02  0.41800000000E+01 0. -1.
         -5    1    3    3    0  502 -0.34148117432E+02  0.71891814876E+02  0.38321107405E+02  0.88433628463E+02  0.41800000000E+01 0. -1.
        -11    1    1    2    0    0  0.23623857627E+02 -0.44233192912E+02  0.30741872940E+01  0.50240547687E+02  0.00000000000E+00 0.  1.
         11    1    1    2    0    0 -0.63067613215E+02 -0.46301588061E+02 -0.45598930837E+02  0.90557293396E+02  0.00000000000E+00 0. -1.
</event>
<event>
 7    1  0.2820496E-009  0.2554798E+03  0.7561462E-02  0.1109890E+00
          2   -1    0    0  501    0  0.00000000000E+00  0.00000000000E+00  0.11375335616E+04  0.11375335616E+04  0.00000000000E+00 0. -1.
         -2   -1    0    0    0  501 -0.00000000000E+00 -0.00000000000E+00 -0.73861412320E+02  0.73861412320E+02  0.00000000000E+00 0.  1.
         25    2    1    2    0    0  0.24771404014E+03  0.15449780081E+01  0.32695140861E+03  0.42884613689E+03  0.12508858019E+03 0.  0.
          5    1    3    3  502    0  0.49990833889E+02 -0.10163109910E+02  0.58110969301E+01  0.51513236391E+02  0.41800000000E+01 0.  1.
         -5    1    3    3    0  502  0.19772320625E+03  0.11708087918E+02  0.32114031168E+03  0.37733290050E+03  0.41800000000E+01 0.  1.
        -11    1    1    2    0    0 -0.51728016696E+02 -0.35524562978E+02  0.13663807424E+03  0.15035872312E+03  0.00000000000E+00 0.  1.
         11    1    1    2    0    0 -0.19598602344E+03  0.33979584970E+02  0.60008266645E+03  0.63219011394E+03  0.00000000000E+00 0. -1.
</event>
<event>
 7    1  0.2820496E-009  0.9498846E+02  0.7561462E-02  0.1291202E+00
         -2   -1    0    0    0  501 -0.00000000000E+00  0.00000000000E+00  0.11449604970E+03  0.11449604970E+03  0.00000000000E+00 0.  1.
          2   -1    0    0  501    0  0.00000000000E+00 -0.00000000000E+00 -0.12084781223E+03  0.12084781223E+03  0.00000000000E+00 0. -1.
         25    2    1    2    0    0  0.36347808956E+02  0.22564393563E+02 -0.91786016492E+01  0.13252508731E+03  0.12509331303E+03 0.  0.
          5    1    3    3  502    0  0.22088280327E+02 -0.28368359403E+02  0.44290747686E+02  0.57199638754E+02  0.41800000000E+01 0. -1.
         -5    1    3    3    0  502  0.14259528629E+02  0.50932752967E+02 -0.53469349335E+02  0.75325448553E+02  0.41800000000E+01 0. -1.
        -11    1    1    2    0    0 -0.25409556343E+02  0.34373786417E+02  0.11323504914E+02  0.44220182154E+02  0.00000000000E+00 0. -1.
         11    1    1    2    0    0 -0.10938252614E+02 -0.56938179980E+02 -0.84966657951E+01  0.58598592469E+02  0.00000000000E+00 0.  1.
</event>
<event>
 7    1  0.2820496E-009  0.8926612E+02  0.7561462E-02  0.1304639E+00
          2   -1    0    0  501    0  0.00000000000E+00  0.00000000000E+00  0.10457314105E+04  0.10457314105E+04  0.00000000000E+00 0. -1.
         -2   -1    0    0    0  501 -0.00000000000E+00 -0.00000000000E+00 -0.20117449590E+02  0.20117449590E+02  0.00000000000E+00 0.  1.
         25    2    1    2    0    0 -0.42557936778E+02 -0.19208791064E+02  0.86088086200E+03  0.87117365517E+03  0.12509006065E+03 0.  0.
          5    1    3    3  502    0 -0.37197520140E+02 -0.47823627652E+02  0.18623405889E+03  0.19588606882E+03  0.41800000000E+01 0.  1.
         -5    1    3    3    0  502 -0.53604166375E+01  0.28614836588E+02  0.67464680310E+03  0.67528758635E+03  0.41800000000E+01 0.  1.
        -11    1    1    2    0    0  0.51803965459E+02 -0.14208792864E+02  0.45165344434E+02  0.70181542942E+02  0.00000000000E+00 0.  1.
         11    1    1    2    0    0 -0.92460286809E+01  0.33417583928E+02  0.11956775453E+03  0.12449366203E+03  0.00000000000E+00 0. -1.
</event>
<event>
 7    1  0.2820496E-009  0.1331457E+03  0.7561462E-02  0.1222861E+00
          2   -1    0    0  501    0  0.00000000000E+00  0.00000000000E+00  0.91197916483E+03  0.91197916483E+03  0.00000000000E+00 0.  1.
         -2   -1    0    0    0  501 -0.00000000000E+00 -0.00000000000E+00 -0.21591319600E+02  0.21591319600E+02  0.00000000000E+00 0. -1.
         25    2    1    2    0    0 -0.70424999467E+02  0.46858651706E+02  0.60574034870E+03  0.62427942344E+03  0.12509202492E+03 0.  0.
          5    1    3    3  502    0 -0.20867190471E+02 -0.40618912748E+02  0.12563752238E+03  0.13374451444E+03  0.41800000000E+01 0. -1.
         -5    1    3    3    0  502 -0.49557808996E+02  0.87477564454E+02  0.48010282632E+03  0.49053490900E+03  0.41800000000E+01 0. -1.
        -11    1    1    2    0    0  0.23474708150E+02  0.24793673159E+02  0.10175250950E+03  0.10732828770E+03  0.00000000000E+00 0.  1.
         11    1    1    2    0    0  0.46950291316E+02 -0.71652324865E+02  0.18289498703E+03  0.20196277328E+03  0.00000000000E+00 0. -1.
</event>
<event>
 7    1  0.2820496E-009  0.1236693E+03  0.7561462E-02  0.1237164E+00
         -4   -1    0    0    0  501 -0.00000000000E+00  0.00000000000E+00  0.16533261964E+03  0.16533261964E+03  0.00000000000E+00 0.  1.
          4   -1    0    0  501    0  0.00000000000E+00 -0.00000000000E+00 -0.13013850576E+03  0.13013850576E+03  0.00000000000E+00 0. -1.
         25    2    1    2    0    0 -0.97591007408E+02  0.59616659120E+01  0.39322939436E+02  0.16356496949E+03  0.12509060513E+03 0.  0.
          5    1    3    3  502    0 -0.25339934228E+01 -0.31386078937E+02  0.51621458872E+02  0.60611504599E+02  0.41800000000E+01 0. -1.
         -5    1    3    3    0  502 -0.95057013985E+02  0.37347744849E+02 -0.12298519435E+02  0.10295346489E+03  0.41800000000E+01 0. -1.
        -11    1    1    2    0    0  0.75148203233E+02 -0.29595450907E+02  0.28635533283E+02  0.85692105411E+02  0.00000000000E+00 0.  1.
         11    1    1    2    0    0  0.22442804175E+02  0.23633784995E+02 -0.32764358839E+02  0.46214050488E+02  0.00000000000E+00 0. -1.
</event>
<event>
 7    1  0.2820496E-009  0.1103590E+03  0.7561462E-02  0.1259907E+00
         -1   -1    0    0    0  501 -0.00000000000E+00  0.00000000000E+00  0.11075472952E+03  0.11075472952E+03  0.00000000000E+00 0.  1.
          1   -1    0    0  501    0  0.00000000000E+00 -0.00000000000E+00 -0.11721477969E+03  0.11721477969E+03  0.00000000000E+00 0. -1.
         25    2    1    2    0    0 -0.21100275664E+02  0.19330208588E+02 -0.21042276405E+02  0.13003305561E+03  0.12508772744E+03 0.  0.
          5    1    3    3  502    0  0.46619120353E+02  0.33894379518E+02 -0.18173832831E+02  0.60579963232E+02  0.41800000000E+01 0.  1.
         -5    1    3    3    0  502 -0.67719396018E+02 -0.14564170930E+02 -0.28684435739E+01  0.69453092375E+02  0.41800000000E+01 0.  1.
        -11    1    1    2    0    0  0.48830255916E+02 -0.36459894358E+02  0.21489924338E+02  0.64618376933E+02  0.00000000000E+00 0.  1.
         11    1    1    2    0    0 -0.27729980252E+02  0.17129685771E+02 -0.69076981033E+01  0.33318076662E+02  0.00000000000E+00 0. -1.
</event>
<event>
 7    1  0.2820496E-009  0.1106217E+03  0.7561462E-02  0.1259423E+00
         -2   -1    0    0    0  501 -0.00000000000E+00  0.00000000000E+00  0.14005872588E+02  0.14005872588E+02  0.00000000000E+00 0.  1.
          2   -1    0    0  501    0  0.00000000000E+00 -0.00000000000E+00 -0.93909913884E+03  0.93909913884E+03  0.00000000000E+00 0. -1.
         25    2    1    2    0    0 -0.33174766354E+02 -0.11828507189E+02 -0.48074345477E+03  0.49799727041E+03  0.12508610364E+03 0.  0.
          5    1    3    3  502    0 -0.76451109033E+02  0.49657815400E+01 -0.36954241403E+03  0.37742350116E+03  0.41800000000E+01 0. -1.
         -5    1    3    3    0  502  0.43276342679E+02 -0.16794288729E+02 -0.11120104074E+03  0.12057376925E+03  0.41800000000E+01 0. -1.
        -11    1    1    2    0    0  0.62206855236E+02  0.23665309803E+02 -0.28080106677E+03  0.28858097447E+03  0.00000000000E+00 0.  1.
         11    1    1    2    0    0 -0.29032088882E+02 -0.11836802614E+02 -0.16354874471E+03  0.16652676655E+03  0.00000000000E+00 0. -1.
</event>
<event>
 7    1  0.2820496E-009  0.2877780E+03  0.7561462E-02  0.1091515E+00
          1   -1    0    0  501    0  0.00000000000E+00  0.00000000000E+00  0.51764184836E+03  0.51764184836E+03  0.00000000000E+00 0. -1.
         -1   -1    0    0    0  501 -0.00000000000E+00 -0.00000000000E+00 -0.26011645812E+03  0.26011645812E+03  0.00000000000E+00 0.  1.
         25    2    1    2    0    0  0.24556803224E+03  0.11627316084E+03  0.36447837283E+03  0.47149988606E+03  0.12507818317E+03 0.  0.
          5    1    3    3  502    0  0.20803608680E+02  0.53402684844E+02  0.33594013462E+02  0.66563255803E+02  0.41800000000E+01 0.  1.
         -5    1    3    3    0  502  0.22476442356E+03  0.62870475991E+02  0.33088435936E+03  0.40493663025E+03  0.41800000000E+01 0.  1.
        -11    1    1    2    0    0 -0.12557802052E+03 -0.10581981894E+03 -0.42391198806E+02  0.16960155381E+03  0.00000000000E+00 0. -1.
         11    1    1    2    0    0 -0.11999001172E+03 -0.10453341891E+02 -0.64561783778E+02  0.13665686662E+03  0.00000000000E+00 0.  1.
</event>
<event>
 7    1  0.2820496E-009  0.1183084E+03  0.7561462E-02  0.1245914E+00
          2   -1    0    0  501    0  0.00000000000E+00  0.00000000000E+00  0.33186717266E+02  0.33186717266E+02  0.00000000000E+00 0. -1.
         -2   -1    0    0    0  501 -0.00000000000E+00 -0.00000000000E+00 -0.89166010589E+03  0.89166010589E+03  0.00000000000E+00 0.  1.
         25    2    1    2    0    0 -0.20913024294E+02 -0.70039775135E+02 -0.80436022532E+03  0.81730472593E+03  0.12509483706E+03 0.  0.
          5    1    3    3  502    0  0.30813484224E+01  0.35826955873E+02 -0.19177393106E+03  0.19516090415E+03  0.41800000000E+01 0. -1.
         -5    1    3    3    0  502 -0.23994372716E+02 -0.10586673101E+03 -0.61258629427E+03  0.62214382178E+03  0.41800000000E+01 0. -1.
        -11    1    1    2    0    0 -0.17306821736E+02  0.38568860540E+02 -0.16559643227E+02  0.45401595409E+02  0.00000000000E+00 0.  1.
         11    1    1    2    0    0  0.38219846030E+02  0.31470914595E+02 -0.37553520072E+02  0.62140501815E+02  0.00000000000E+00 0. -1.
</event>
<event>
 7    1  0.2820496E-009  0.1113529E+03  0.7561462E-02  0.1258085E+00
         -2   -1    0    0    0  501 -0.00000000000E+00  0.00000000000E+00  0.37211885275E+02  0.37211885275E+02  0.00000000000E+00 0. -1.
          2   -1    0    0  501    0  0.00000000000E+00 -0.00000000000E+00 -0.37753659912E+03  0.37753659912E+03  0.00000000000E+00 0.  1.
         25    2    1    2    0    0  0.34803449472E+02  0.22012730348E+02 -0.23772816541E+03  0.27176859376E+03  0.12509055734E+03 0.  0.
          5    1    3    3  502    0  0.35387010945E+02 -0.44199793087E+02 -0.62687287801E+02  0.84575591658E+02  0.41800000000E+01 0. -1.
         -5    1    3    3    0  502 -0.58356147314E+00  0.66212523435E+02 -0.17504087760E+03  0.18719300210E+03  0.41800000000E+01 0. -1.
        -11    1    1    2    0    0 -0.14987960167E+02  0.35617605778E+02 -0.40062464449E+02  0.55661960521E+02  0.00000000000E+00 0.  1.
         11    1    1    2    0    0 -0.19815489305E+02 -0.57630336126E+02 -0.62534083989E+02  0.87317930111E+02  0.00000000000E+00 0. -1.
</event>
<event>
 7    1  0.2820496E-009  0.1070786E+03  0.7561462E-02  0.1266077E+00
         -2   -1    0    0    0  501 -0.00000000000E+00  0.00000000000E+00  0.12634064973E+03  0.12634064973E+03  0.00000000000E+00 0. -1.
          2   -1    0    0  501    0  0.00000000000E+00 -0.00000000000E+00 -0.13978126477E+03  0.13978126477E+03  0.00000000000E+00 0.  1.
         25    2    1    2    0    0  0.19700755860E+02  0.74272177764E+02 -0.11069706784E+02  0.14722263837E+03  0.12508993033E+03 0.  0.
          5    1    3    3  502    0  0.53750745257E+01  0.10292842516E+03  0.16851143319E+02  0.10452074227E+03  0.41800000000E+01 0.  1.
         -5    1    3    3    0  502  0.14325681334E+02 -0.28656247399E+02 -0.27920850103E+02  0.42701896107E+02  0.41800000000E+01 0.  1.
        -11    1    1    2    0    0  0.13486606578E+01 -0.25973865133E+02 -0.44430998918E+02  0.51483727724E+02  0.00000000000E+00 0.  1.
         11    1    1    2    0    0 -0.21049416517E+02 -0.48298312631E+02  0.42060090664E+02  0.67415548395E+02  0.00000000000E+00 0. -1.
</event>
<event>
 7    1  0.2820496E-009  0.1340482E+03  0.7561462E-02  0.1221570E+00
         -2   -1    0    0    0  501 -0.00000000000E+00  0.00000000000E+00  0.47252505435E+02  0.47252505435E+02  0.00000000000E+00 0.  1.
          2   -1    0    0  501    0  0.00000000000E+00 -0.00000000000E+00 -0.75673280201E+03  0.75673280201E+03  0.00000000000E+00 0. -1.
         25    2    1    2    0    0  0.10605528472E+03 -0.23163218056E+02 -0.60997662814E+03  0.63206294587E+03  0.12509125700E+03 0.  0.
          5    1    3    3  502    0  0.15974228875E+02 -0.33488165781E+02 -0.39283829957E+02  0.54197093387E+02  0.41800000000E+01 0.  1.
         -5    1    3    3    0  502  0.90081055841E+02  0.10324947725E+02 -0.57069279818E+03  0.57786585248E+03  0.41800000000E+01 0.  1.
        -11    1    1    2    0    0 -0.11499115157E+03  0.39320320512E+02 -0.83086237656E+02  0.14721540487E+03  0.00000000000E+00 0. -1.
         11    1    1    2    0    0  0.89358668510E+01 -0.16157102456E+02 -0.16417430781E+02  0.24706956704E+02  0.00000000000E+00 0.  1.
</event>
<event>
 7    1  0.2820496E-009  0.1021988E+03  0.7561462E-02  0.1275739E+00
          2   -1    0    0  501    0  0.00000000000E+00  0.00000000000E+00  0.75327388934E+03  0.75327388934E+03  0.00000000000E+00 0. -1.
         -2   -1    0    0    0  501 -0.00000000000E+00 -0.00000000000E+00 -0.18453744694E+02  0.18453744694E+02  0.00000000000E+00 0.  1.
         25    2    1    2    0    0  0.14747105838E+02  0.25379718666E+02  0.52467268788E+03  0.54017500272E+03  0.12508395941E+03 0.  0.
          5    1    3    3  502    0 -0.36217288855E+02 -0.31746975794E+02  0.26686216471E+03  0.27120554906E+03  0.41800000000E+01 0. -1.
         -5    1    3    3    0  502  0.50964394693E+02  0.57126694461E+02  0.25781052317E+03  0.26896945366E+03  0.41800000000E+01 0. -1.
        -11    1    1    2    0    0 -0.41749911767E+02  0.82339527110E+00  0.17551458234E+03  0.18041369606E+03  0.00000000000E+00 0. -1.
         11    1    1    2    0    0  0.27002805928E+02 -0.26203113937E+02  0.34632874422E+02  0.51138935253E+02  0.00000000000E+00 0.  1.
</event>
<event>
 7    1  0.2820496E-009  0.7572200E+02  0.7561462E-02  0.1341650E+00
         -2   -1    0    0    0  501 -0.00000000000E+00  0.00000000000E+00  0.66015278626E+03  0.66015278626E+03  0.00000000000E+00 0.  1.
          2   -1    0    0  501    0  0.00000000000E+00 -0.00000000000E+00 -0.56624516920E+02  0.56624516920E+02  0.00000000000E+00 0. -1.
         25    2    1    2    0    0 -0.61444986586E+02  0.31440077511E+02  0.58702900782E+03  0.60416432289E+03  0.12509000032E+03 0.  0.
          5    1    3    3  502    0 -0.21402978080E+02  0.20155586934E+02  0.54163694133E+03  0.54245035143E+03  0.41800000000E+01 0. -1.
         -5    1    3    3    0  502 -0.40042008506E+02  0.11284490577E+02  0.45392066485E+02  0.61713971454E+02  0.41800000000E+01 0. -1.
        -11    1    1    2    0    0  0.27648566192E+02  0.72320233434E+01  0.45426071174E+02  0.53668177875E+02  0.00000000000E+00 0.  1.
         11    1    1    2    0    0  0.33796420394E+02 -0.38672100855E+02 -0.28926809648E+02  0.58944802420E+02  0.00000000000E+00 0. -1.
</event>
<event>
 7    1  0.2820496E-009  0.1085323E+03  0.7561462E-02  0.1263312E+00
         -1   -1    0    0    0  501 -0.00000000000E+00  0.00000000000E+00  0.52772321263E+02  0.52772321263E+02  0.00000000000E+00 0. -1.
          1   -1    0    0  501    0  0.00000000000E+00 -0.00000000000E+00 -0.26546054196E+03  0.26546054196E+03  0.00000000000E+00 0.  1.
         25    2    1    2    0    0  0.52572851568E+01 -0.71416809235E+01 -0.63000694123E+02  0.14034659953E+03  0.12509771336E+03 0.  0.
          5    1    3    3  502    0  0.64513822059E+02  0.74392188161E+00 -0.40750770965E+02  0.76424370398E+02  0.41800000000E+01 0. -1.
         -5    1    3    3    0  502 -0.59256536902E+02 -0.78856028051E+01 -0.22249923158E+02  0.63922229136E+02  0.41800000000E+01 0. -1.
        -11    1    1    2    0    0 -0.39210750829E+02  0.31831821488E+02 -0.57133125438E+02  0.76255766091E+02  0.00000000000E+00 0. -1.
         11    1    1    2    0    0  0.33953465672E+02 -0.24690140565E+02 -0.92554401136E+02  0.10163049760E+03  0.00000000000E+00 0.  1.
</event>
<event>
 7    1  0.2820496E-009  0.8381384E+02  0.7561462E-02  0.1318564E+00
         -2   -1    0    0    0  501 -0.00000000000E+00  0.00000000000E+00  0.24204232552E+02  0.24204232552E+02  0.00000000000E+00 0.  1.
          2   -1    0    0  501    0  0.00000000000E+00 -0.00000000000E+00 -0.60461606824E+03  0.60461606824E+03  0.00000000000E+00 0. -1.
         25    2    1    2    0    0 -0.40623788043E+01 -0.14071080156E+02 -0.46023172353E+03  0.47715348588E+03  0.12509081313E+03 0.  0.
          5    1    3    3  502    0 -0.15060584666E+02 -0.64654656640E+02 -0.17465086600E+03  0.18688885262E+03  0.41800000000E+01 0.  1.
         -5    1    3    3    0  502  0.10998205862E+02  0.50583576484E+02 -0.28558085752E+03  0.29026463327E+03  0.41800000000E+01 0.  1.
        -11    1    1    2    0    0 -0.11418588587E+01 -0.17319780965E+02  0.83466019917E+01  0.19259917423E+02  0.00000000000E+00 0.  1.
         11    1    1    2    0    0  0.52042376630E+01  0.31390861120E+02 -0.12852671415E+03  0.13240689748E+03  0.00000000000E+00 0. -1.
</event>
<event>
 7    1  0.2820496E-009  0.1231433E+03  0.7561462E-02  0.1238000E+00
          1   -1    0    0  501    0  0.00000000000E+00  0.00000000000E+00  0.51502843776E+03  0.51502843776E+03  0.00000000000E+00 0. -1.
         -1   -1    0    0    0  501 -0.00000000000E+00 -0.00000000000E+00 -0.42634045037E+02  0.42634045037E+02  0.00000000000E+00 0.  1.
         25    2    1    2    0    0 -0.84027684742E+02  0.47393679842E+02  0.20078300772E+03  0.25547419857E+03  0.12508571963E+03 0.  0.
          5    1    3    3  502    0 -0.95111398438E+02  0.60730390047E+00  0.17852880799E+03  0.20232783944E+03  0.41800000000E+01 0.  1.
         -5    1    3    3    0  502  0.11083713696E+02  0.46786375942E+02  0.22254199728E+02  0.53146359128E+02  0.41800000000E+01 0.  1.
        -11    1    1    2    0    0  0.31538003515E+02  0.81706504019E+00  0.13321301062E+02  0.34245734377E+02  0.00000000000E+00 0.  1.
         11    1    1    2    0    0  0.52489681226E+02 -0.48210744882E+02  0.25829008394E+03  0.26794254985E+03  0.00000000000E+00 0. -1.
</event>
<event>
 7    1  0.2820496E-009  0.1602483E+03  0.7561462E-02  0.1188417E+00
         -2   -1    0    0    0  501 -0.00000000000E+00  0.00000000000E+00  0.72402464859E+02  0.72402464859E+02  0.00000000000E+00 0.  1.
          2   -1    0    0  501    0  0.00000000000E+00 -0.00000000000E+00 -0.38554564876E+03  0.38554564876E+03  0.00000000000E+00 0. -1.
         25    2    1    2    0    0 -0.55327018676E+02  0.11153952742E+03 -0.20025835767E+03  0.26693306291E+03  0.12509078738E+03 0.  0.
          5    1    3    3  502    0 -0.50849731035E+02  0.13915125289E+03 -0.16828291868E+03  0.22424401764E+03  0.41800000000E+01 0.  1.
         -5    1    3    3    0  502 -0.44772876410E+01 -0.27611725469E+02 -0.31975438994E+02  0.42689045279E+02  0.41800000000E+01 0.  1.
        -11    1    1    2    0    0 -0.12322744047E+02  0.13495666008E+01  0.59003172303E+01  0.13728987372E+02  0.00000000000E+00 0.  1.
         11    1    1    2    0    0  0.67649762723E+02 -0.11288909402E+03 -0.11878514346E+03  0.17728606333E+03  0.00000000000E+00 0. -1.
</event>
<event>
 7    1  0.2820496E-009  0.1681731E+03  0.7561462E-02  0.1179767E+00
         -2   -1    0    0    0  501 -0.00000000000E+00  0.00000000000E+00  0.17233077093E+03  0.17233077093E+03  0.00000000000E+00 0.  1.
          2   -1    0    0  501    0  0.00000000000E+00 -0.00000000000E+00 -0.17707090080E+03  0.17707090080E+03  0.00000000000E+00 0. -1.
         25    2    1    2    0    0  0.31364015416E+02  0.13269118771E+03 -0.13811706328E+02  0.18555023397E+03  0.12508986104E+03 0.  0.
          5    1    3    3  502    0  0.72878647362E+02  0.59928339014E+02  0.17434107332E+02  0.96042300872E+02  0.41800000000E+01 0. -1.
         -5    1    3    3    0  502 -0.41514631946E+02  0.72762848692E+02 -0.31245813660E+02  0.89507933093E+02  0.41800000000E+01 0. -1.
        -11    1    1    2    0    0  0.26175964479E+02 -0.58854848278E+02 -0.17115552758E+02  0.66648454059E+02  0.00000000000E+00 0.  1.
         11    1    1    2    0    0 -0.57539979895E+02 -0.73836339427E+02  0.26187129216E+02  0.97202983714E+02  0.00000000000E+00 0. -1.
</event>
<event>
 7    1  0.2820496E-009  0.2065559E+03  0.7561462E-02  0.1144323E+00
          2   -1    0    0  501    0  0.00000000000E+00  0.00000000000E+00  0.17230655769E+04  0.17230655769E+04  0.00000000000E+00 0. -1.
         -2   -1    0    0    0  501 -0.00000000000E+00 -0.00000000000E+00 -0.26965285193E+02  0.26965285193E+02  0.00000000000E+00 0.  1.
         25    2    1    2    0    0 -0.18220315163E+03  0.18233806560E+01  0.72989523187E+03  0.76262426197E+03  0.12508957694E+03 0.  0.
          5    1    3    3  502    0 -0.11623931283E+03  0.52932656841E+02  0.32548448457E+03  0.34967279864E+03  0.41800000000E+01 0.  1.
         -5    1    3    3    0  502 -0.65963838802E+02 -0.51109276185E+02  0.40441074730E+03  0.41295146334E+03  0.41800000000E+01 0.  1.
        -11    1    1    2    0    0  0.12270668840E+03  0.39977767864E+02  0.67777861373E+03  0.68995579752E+03  0.00000000000E+00 0. -1.
         11    1    1    2    0    0  0.59496463235E+02 -0.41801148520E+02  0.28842644611E+03  0.29745080261E+03  0.00000000000E+00 0.  1.
</event>
<event>
 7    1  0.2820496E-009  0.8488935E+02  0.7561462E-02  0.1315722E+00
          3   -1    0    0  501    0  0.00000000000E+00  0.00000000000E+00  0.72260474016E+02  0.72260474016E+02  0.00000000000E+00 0. -1.
         -3   -1    0    0    0  501 -0.00000000000E+00 -0.00000000000E+00 -0.19674329213E+03  0.19674329213E+03  0.00000000000E+00 0.  1.
         25    2    1    2    0    0  0.17593133443E+02 -0.48920097915E+02 -0.72016206652E+02  0.15341481338E+03  0.12508827531E+03 0.  0.
          5    1    3    3  502    0  0.52248823119E+02  0.58511648827E+01  0.46377775919E+01  0.52944848936E+02  0.41800000000E+01 0.  1.
         -5    1    3    3    0  502 -0.34655689676E+02 -0.54771262798E+02 -0.76653984244E+02  0.10046996445E+03  0.41800000000E+01 0.  1.
        -11    1    1    2    0    0 -0.11800424567E+02  0.28095631091E+02 -0.77048275139E+02  0.82855604568E+02  0.00000000000E+00 0.  1.
         11    1    1    2    0    0 -0.57927088758E+01  0.20824466824E+02  0.24581663680E+02  0.32733348193E+02  0.00000000000E+00 0. -1.
</event>
<event>
 7    1  0.2820496E-009  0.1053933E+03  0.7561462E-02  0.1269347E+00
         -2   -1    0    0    0  501 -0.00000000000E+00  0.00000000000E+00  0.20832726611E+02  0.20832726611E+02  0.00000000000E+00 0. -1.
          2   -1    0    0  501    0  0.00000000000E+00 -0.00000000000E+00 -0.58720673503E+03  0.58720673503E+03  0.00000000000E+00 0.  1.
         25    2    1    2    0    0 -0.72960329109E+01  0.22911853452E+01 -0.32597360119E+03  0.34923521530E+03  0.12509182750E+03 0.  0.
          5    1    3    3  502    0 -0.59822724805E+02 -0.25973965134E+02 -0.17950775805E+03  0.19103380033E+03  0.41800000000E+01 0. -1.
         -5    1    3    3    0  502  0.52526691894E+02  0.28265150479E+02 -0.14646584314E+03  0.15820141497E+03  0.41800000000E+01 0. -1.
        -11    1    1    2    0    0  0.45303262229E+02 -0.11060615049E+02 -0.18667934578E+03  0.19241595806E+03  0.00000000000E+00 0.  1.
         11    1    1    2    0    0 -0.38007229318E+02  0.87694297042E+01 -0.53721061448E+02  0.66388288281E+02  0.00000000000E+00 0. -1.
</event>
<event>
 7    1  0.2820496E-009  0.1201735E+03  0.7561462E-02  0.1242811E+00
          1   -1    0    0  501    0  0.00000000000E+00  0.00000000000E+00  0.34289063819E+02  0.34289063819E+02  0.00000000000E+00 0. -1.
         -1   -1    0    0    0  501 -0.00000000000E+00 -0.00000000000E+00 -0.45815840956E+03  0.45815840956E+03  0.00000000000E+00 0.  1.
         25    2    1    2    0    0  0.87583701478E+01  0.53958773330E+02 -0.17964968723E+03  0.22560703362E+03  0.12504505279E+03 0.  0.
          5    1    3    3  502    0 -0.57050022740E+02  0.28564372312E+02 -0.10405542593E+03  0.12212957269E+03  0.41800000000E+01 0. -1.
         -5    1    3    3    0  502  0.65808392888E+02  0.25394401018E+02 -0.75594261298E+02  0.10347746092E+03  0.41800000000E+01 0. -1.
        -11    1    1    2    0    0 -0.47519193417E+02 -0.46082052959E+02 -0.12848825482E+03  0.14453671151E+03  0.00000000000E+00 0. -1.
         11    1    1    2    0    0  0.38760823269E+02 -0.78767203707E+01 -0.11573140369E+03  0.12230372825E+03  0.00000000000E+00 0.  1.
</event>
<event>
 7    1  0.2820496E-009  0.1415721E+03  0.7561462E-02  0.1211229E+00
         -1   -1    0    0    0  501 -0.00000000000E+00  0.00000000000E+00  0.15283794692E+03  0.15283794692E+03  0.00000000000E+00 0.  1.
          1   -1    0    0  501    0  0.00000000000E+00 -0.00000000000E+00 -0.15065902069E+03  0.15065902069E+03  0.00000000000E+00 0. -1.
         25    2    1    2    0    0  0.68508332793E+02  0.61265590441E+02 -0.51337586233E+02  0.16348905185E+03  0.12508500341E+03 0.  0.
          5    1    3    3  502    0 -0.14556615267E+02 -0.28421501997E+02 -0.45225181476E+01  0.32520799409E+02  0.41800000000E+01 0.  1.
         -5    1    3    3    0  502  0.83064948060E+02  0.89687092439E+02 -0.46815068085E+02  0.13096825244E+03  0.41800000000E+01 0.  1.
        -11    1    1    2    0    0 -0.84571479205E+02 -0.70494030264E+02  0.50912068790E+02  0.12130037983E+03  0.00000000000E+00 0. -1.
         11    1    1    2    0    0  0.16063146412E+02  0.92284398226E+01  0.26044436749E+01  0.18707535943E+02  0.00000000000E+00 0.  1.
</event>
<event>
 7    1  0.2820496E-009  0.1843792E+03  0.7561462E-02  0.1163631E+00
          1   -1    0    0  501    0  0.00000000000E+00  0.00000000000E+00  0.44109686381E+03  0.44109686381E+03  0.00000000000E+00 0. -1.
         -1   -1    0    0    0  501 -0.00000000000E+00 -0.00000000000E+00 -0.11378561054E+03  0.11378561054E+03  0.00000000000E+00 0.  1.
         25    2    1    2    0    0  0.10221808356E+03 -0.10817292951E+03  0.12697200943E+02  0.19482986204E+03  0.12509011530E+03 0.  0.
          5    1    3    3  502    0  0.87035863040E+02 -0.21644695455E+01  0.28994779780E+01  0.87211270809E+02  0.41800000000E+01 0. -1.
         -5    1    3    3    0  502  0.15182220524E+02 -0.10600845996E+03  0.97977229653E+01  0.10761859124E+03  0.41800000000E+01 0. -1.
        -11    1    1    2    0    0  0.16660024425E+01 -0.13975028749E+02  0.34997096567E+02  0.37720998937E+02  0.00000000000E+00 0.  1.
         11    1    1    2    0    0 -0.10388408601E+03  0.12214795826E+03  0.27961695576E+03  0.32233161337E+03  0.00000000000E+00 0. -1.
</event>
<event>
 7    1  0.2820496E-009  0.1104207E+03  0.7561462E-02  0.1259793E+00
          1   -1    0    0  501    0  0.00000000000E+00  0.00000000000E+00  0.48020786764E+02  0.48020786764E+02  0.00000000000E+00 0. -1.
         -1   -1    0    0    0  501 -0.00000000000E+00 -0.00000000000E+00 -0.27462911743E+03  0.27462911743E+03  0.00000000000E+00 0.  1.
         25    2    1    2    0    0 -0.14612670125E+02 -0.10683238813E+02 -0.16552283204E+03  0.20826363667E+03  0.12509305622E+03 0.  0.
          5    1    3    3  502    0  0.39214288233E+02 -0.46070024075E+02 -0.65921453073E+02  0.89572975250E+02  0.41800000000E+01 0. -1.
         -5    1    3    3    0  502 -0.53826958358E+02  0.35386785262E+02 -0.99601378966E+02  0.11869066142E+03  0.41800000000E+01 0. -1.
        -11    1    1    2    0    0  0.22626674517E+02  0.50337491856E+02 -0.43509332002E+02  0.70277247081E+02  0.00000000000E+00 0.  1.
         11    1    1    2    0    0 -0.80140043921E+01 -0.39654253043E+02 -0.17576166622E+02  0.44109020437E+02  0.00000000000E+00 0. -1.
</event>
<event>
 7    1  0.2820496E-009  0.1065677E+03  0.7561462E-02  0.1267061E+00
         -1   -1    0    0    0  501 -0.00000000000E+00  0.00000000000E+00  0.20989105028E+03  0.20989105028E+03  0.00000000000E+00 0.  1.
          1   -1    0    0  501    0  0.00000000000E+00 -0.00000000000E+00 -0.99600024779E+02  0.99600024779E+02  0.00000000000E+00 0. -1.
         25    2    1    2    0    0 -0.94660541211E+02 -0.93611172557E+01  0.78946036450E+02  0.17586412174E+03  0.12508982398E+03 0.  0.
          5    1    3    3  502    0  0.70924752508E+01 -0.11267893068E+02  0.72470437878E+02  0.73801797984E+02  0.41800000000E+01 0.  1.
         -5    1    3    3    0  502 -0.10175301646E+03  0.19067758128E+01  0.64755985718E+01  0.10206232375E+03  0.41800000000E+01 0.  1.
        -11    1    1    2    0    0  0.25146917478E+02  0.11777299721E+02  0.53794196632E+02  0.60538317111E+02  0.00000000000E+00 0.  1.
         11    1    1    2    0    0  0.69513623733E+02 -0.24161824649E+01 -0.22449207581E+02  0.73088636211E+02  0.00000000000E+00 0. -1.
</event>
<event>
 7    1  0.2820496E-009  0.7944771E+02  0.7561462E-02  0.1330626E+00
          1   -1    0    0  501    0  0.00000000000E+00  0.00000000000E+00  0.43492792555E+02  0.43492792555E+02  0.00000000000E+00 0. -1.
         -1   -1    0    0    0  501 -0.00000000000E+00 -0.00000000000E+00 -0.39153122689E+03  0.39153122689E+03  0.00000000000E+00 0.  1.
         25    2    1    2    0    0  0.42549145436E+01 -0.57420651024E+02 -0.26699753161E+03  0.30041744823E+03  0.12509087037E+03 0.  0.
          5    1    3    3  502    0  0.71150630967E+01 -0.36549186422E+02 -0.27496783479E+03  0.27750900836E+03  0.41800000000E+01 0. -1.
         -5    1    3    3    0  502 -0.28601485531E+01 -0.20871464603E+02  0.79703031792E+01  0.22908439868E+02  0.41800000000E+01 0. -1.
        -11    1    1    2    0    0  0.14312163003E+02  0.73809008500E+02 -0.80051096732E+02  0.10982160914E+03  0.00000000000E+00 0.  1.
         11    1    1    2    0    0 -0.18567077546E+02 -0.16388357475E+02 -0.98980599007E+00  0.24784962079E+02  0.00000000000E+00 0. -1.
</event>
<event>
 7    1  0.2820496E-009  0.1051030E+03  0.7561462E-02  0.1269917E+00
         -2   -1    0    0    0  501 -0.00000000000E+00  0.00000000000E+00  0.19733396547E+02  0.19733396547E+02  0.00000000000E+00 0.  1.
          2   -1    0    0  501    0  0.00000000000E+00 -0.00000000000E+00 -0.64739444904E+03  0.64739444904E+03  0.00000000000E+00 0. -1.
         25    2    1    2    0    0 -0.37584834679E+02  0.13730569263E+01 -0.36017101012E+03  0.38312363217E+03  0.12508419530E+03 0.  0.
          5    1    3    3  502    0  0.26495064763E+01 -0.50885193772E+02 -0.24555570566E+03  0.25082145006E+03  0.41800000000E+01 0. -1.
         -5    1    3    3    0  502 -0.40234341155E+02  0.52258250699E+02 -0.11461530446E+03  0.13230218211E+03  0.41800000000E+01 0. -1.
        -11    1    1    2    0    0  0.21419336497E+02  0.41760131541E+02 -0.16681902620E+03  0.17329536654E+03  0.00000000000E+00 0. -1.
         11    1    1    2    0    0  0.16165498182E+02 -0.43133188467E+02 -0.10067101617E+03  0.11070884687E+03  0.00000000000E+00 0.  1.
</event>
<event>
 7    1  0.2907302E-009  0.1422611E+03  0.7561462E-02  0.1210318E+00
         -1   -1    0    0    0  501 -0.00000000000E+00  0.00000000000E+00  0.13239723606E+02  0.13239723606E+02  0.00000000000E+00 0.  1.
          1   -1    0    0  501    0  0.00000000000E+00 -0.00000000000E+00 -0.24073734078E+04  0.24073734078E+04  0.00000000000E+00 0. -1.
         25    2    1    2    0    0 -0.21415791506E+02 -0.13100734187E+03 -0.15844627857E+04  0.15949261628E+04  0.12508231623E+03 0.  0.
          5    1    3    3  502    0 -0.23599255115E+02 -0.80946262467E+02 -0.14299028703E+04  0.14323927231E+04  0.41800000000E+01 0. -1.
         -5    1    3    3    0  502  0.21834636089E+01 -0.50061079406E+02 -0.15455991540E+03  0.16253343974E+03  0.41800000000E+01 0. -1.
        -11    1    1    2    0    0 -0.20185737520E+02  0.11396534094E+02 -0.45196553152E+02  0.50794422975E+02  0.00000000000E+00 0.  1.
         11    1    1    2    0    0  0.41601529026E+02  0.11961080778E+03 -0.76447434536E+03  0.77489254563E+03  0.00000000000E+00 0. -1.
</event>
<event>
 7    1  0.2820496E-009  0.1488577E+03  0.7561462E-02  0.1201884E+00
          4   -1    0    0  501    0  0.00000000000E+00  0.00000000000E+00  0.71969530445E+02  0.71969530445E+02  0.00000000000E+00 0. -1.
         -4   -1    0    0    0  501 -0.00000000000E+00 -0.00000000000E+00 -0.46815590096E+03  0.46815590096E+03  0.00000000000E+00 0.  1.
         25    2    1    2    0    0 -0.53254252668E+02 -0.10288355202E+03 -0.73490628071E+02  0.18565972031E+03  0.12509044179E+03 0.  0.
          5    1    3    3  502    0  0.28373845047E+02  0.86087900040E+01 -0.25477619687E+02  0.39316254310E+02  0.41800000000E+01 0.  1.
         -5    1    3    3    0  502 -0.81628097715E+02 -0.11149234203E+03 -0.48013008384E+02  0.14634346600E+03  0.41800000000E+01 0.  1.
        -11    1    1    2    0    0  0.63928902173E+02  0.69276279853E+02 -0.29479748501E+03  0.30950228537E+03  0.00000000000E+00 0.  1.
         11    1    1    2    0    0 -0.10674649504E+02  0.33607272169E+02 -0.27898257435E+02  0.44963425722E+02  0.00000000000E+00 0. -1.
</event>
<event>
 7    1  0.2820496E-009  0.1029914E+03  0.7561462E-02  0.1274128E+00
          1   -1    0    0  501    0  0.00000000000E+00  0.00000000000E+00  0.29149122761E+03  0.29149122761E+03  0.00000000000E+00 0. -1.
         -1   -1    0    0    0  501 -0.00000000000E+00 -0.00000000000E+00 -0.41205636190E+02  0.41205636190E+02  0.00000000000E+00 0.  1.
         25    2    1    2    0    0  0.34009838995E+01 -0.89933142716E+01  0.14013223086E+03  0.18808754400E+03  0.12508971056E+03 0.  0.
          5    1    3    3  502    0  0.18310844932E+02 -0.63341650924E+02  0.95256818604E+02  0.11592577657E+03  0.41800000000E+01 0.  1.
         -5    1    3    3    0  502 -0.14909861033E+02  0.54348336652E+02  0.44875412258E+02  0.72161767427E+02  0.41800000000E+01 0.  1.
        -11    1    1    2    0    0  0.37216679957E+02 -0.10041300991E+02  0.18909902833E+02  0.42935922230E+02  0.00000000000E+00 0.  1.
         11    1    1    2    0    0 -0.40617663857E+02  0.19034615263E+02  0.91243457724E+02  0.10167339757E+03  0.00000000000E+00 0. -1.
</event>
<event>
 7    1  0.2820496E-009  0.2085948E+03  0.7561462E-02  0.1142684E+00
         -1   -1    0    0    0  501 -0.00000000000E+00  0.00000000000E+00  0.15524189129E+03  0.15524189129E+03  0.00000000000E+00 0.  1.
          1   -1    0    0  501    0  0.00000000000E+00 -0.00000000000E+00 -0.32681887359E+03  0.32681887359E+03  0.00000000000E+00 0. -1.
         25    2    1    2    0    0  0.52750309658E+02  0.18240860835E+03 -0.10712596120E+03  0.25134759695E+03  0.12507656598E+03 0.  0.
          5    1    3    3  502    0  0.71101370850E+02  0.15690817799E+03 -0.12689056178E+03  0.21399595399E+03  0.41800000000E+01 0.  1.
         -5    1    3    3    0  502 -0.18351061193E+02  0.25500430366E+02  0.19764600575E+02  0.37351642958E+02  0.41800000000E+01 0.  1.
        -11    1    1    2    0    0  0.23677120150E+02 -0.90996552826E+02 -0.59876795962E+02  0.11147290855E+03  0.00000000000E+00 0.  1.
         11    1    1    2    0    0 -0.76427429808E+02 -0.91412055526E+02 -0.45742251314E+01  0.11924025938E+03  0.00000000000E+00 0. -1.
</event>
<event>
 7    1  0.2820496E-009  0.9833281E+02  0.7561462E-02  0.1283841E+00
          1   -1    0    0  501    0  0.00000000000E+00  0.00000000000E+00  0.30841163601E+03  0.30841163601E+03  0.00000000000E+00 0. -1.
         -1   -1    0    0    0  501 -0.00000000000E+00 -0.00000000000E+00 -0.75312393526E+02  0.75312393526E+02  0.00000000000E+00 0.  1.
         25    2    1    2    0    0  0.57577103572E+01 -0.39072798721E+02  0.25145498524E+03  0.28361304599E+03  0.12508763098E+03 0.  0.
          5    1    3    3  502    0  0.48497105333E+02 -0.38438923072E+02  0.56226216256E+02  0.83716066720E+02  0.41800000000E+01 0.  1.
         -5    1    3    3    0  502 -0.42739394976E+02 -0.63387564904E+00  0.19522876899E+03  0.19989697927E+03  0.41800000000E+01 0.  1.
        -11    1    1    2    0    0  0.94262276427E+01  0.62811092878E+02  0.47193881391E+01  0.63689557861E+02  0.00000000000E+00 0. -1.
         11    1    1    2    0    0 -0.15183938000E+02 -0.23738294157E+02 -0.23075130900E+02  0.36421425682E+02  0.00000000000E+00 0.  1.
</event>
<event>
 7    1  0.2820496E-009  0.1307613E+03  0.7561462E-02  0.1226331E+00
         -1   -1    0    0    0  501 -0.00000000000E+00  0.00000000000E+00  0.29394540759E+03  0.29394540759E+03  0.00000000000E+00 0.  1.
          1   -1    0    0  501    0  0.00000000000E+00 -0.00000000000E+00 -0.86504929814E+02  0.86504929814E+02  0.00000000000E+00 0. -1.
         25    2    1    2    0    0 -0.19816578539E+02 -0.10549971179E+03  0.16190911743E+03  0.23105182809E+03  0.12508996356E+03 0.  0.
          5    1    3    3  502    0 -0.71154068056E+01  0.22773207491E+02  0.21396012014E+00  0.24223256849E+02  0.41800000000E+01 0.  1.
         -5    1    3    3    0  502 -0.12701171734E+02 -0.12827291928E+03  0.16169515731E+03  0.20682857124E+03  0.41800000000E+01 0.  1.
        -11    1    1    2    0    0  0.28483055274E+01  0.54689136929E+02  0.71340796296E+02  0.89936220504E+02  0.00000000000E+00 0.  1.
         11    1    1    2    0    0  0.16968273012E+02  0.50810574861E+02 -0.25809435948E+02  0.59462288812E+02  0.00000000000E+00 0. -1.
</event>
<event>
 7    1  0.2820496E-009  0.1812207E+03  0.7561462E-02  0.1166627E+00
          3   -1    0    0  501    0  0.00000000000E+00  0.00000000000E+00  0.12702275504E+03  0.12702275504E+03  0.00000000000E+00 0. -1.
         -3   -1    0    0    0  501 -0.00000000000E+00 -0.00000000000E+00 -0.29430292417E+03  0.29430292417E+03  0.00000000000E+00 0.  1.
         25    2    1    2    0    0 -0.12897283781E+03 -0.73274011911E+02 -0.15107597422E+03  0.24591854117E+03  0.12509558421E+03 0.  0.
          5    1    3    3  502    0  0.11035989796E+02  0.20296267939E+02 -0.76864818750E+01  0.24703966618E+02  0.41800000000E+01 0. -1.
         -5    1    3    3    0  502 -0.14000882760E+03 -0.93570279851E+02 -0.14338949235E+03  0.22121457455E+03  0.41800000000E+01 0. -1.
        -11    1    1    2    0    0  0.69303628030E+02 -0.79174195321E+01 -0.25385972311E+02  0.74230222823E+02  0.00000000000E+00 0. -1.
         11    1    1    2    0    0  0.59669209777E+02  0.81191431443E+02  0.91817774023E+01  0.10117691521E+03  0.00000000000E+00 0.  1.
</event>
<event>
 7    1  0.2853852E-009  0.2340618E+03  0.7561462E-02  0.1123813E+00
         -2   -1    0    0    0  501 -0.00000000000E+00  0.00000000000E+00  0.17011076657E+03  0.17011076657E+03  0.00000000000E+00 0.  1.
          2   -1    0    0  501    0  0.00000000000E+00 -0.00000000000E+00 -0.39788253690E+03  0.39788253690E+03  0.00000000000E+00 0. -1.
         25    2    1    2    0    0  0.20306930266E+03 -0.76821156983E+02 -0.21857222724E+03  0.33250624709E+03  0.12509178225E+03 0.  0.
          5    1    3    3  502    0  0.52750483253E+02 -0.65680908207E+02 -0.26694217902E+02  0.88468349457E+02  0.41800000000E+01 0. -1.
         -5    1    3    3    0  502  0.15031881941E+03 -0.11140248776E+02 -0.19187800934E+03  0.24403789763E+03  0.41800000000E+01 0. -1.
        -11    1    1    2    0    0 -0.71063732973E+02  0.71602562483E+02  0.12343512221E+02  0.10163337735E+03  0.00000000000E+00 0. -1.
         11    1    1    2    0    0 -0.13200556969E+03  0.52185944999E+01 -0.21543055303E+02  0.13385367903E+03  0.00000000000E+00 0.  1.
</event>
<event>
 7    1  0.2820496E-009  0.1024326E+03  0.7561462E-02  0.1275262E+00
         -1   -1    0    0    0  501 -0.00000000000E+00  0.00000000000E+00  0.44020046496E+02  0.44020046496E+02  0.00000000000E+00 0.  1.
          1   -1    0    0  501    0  0.00000000000E+00 -0.00000000000E+00 -0.41725790761E+03  0.41725790761E+03  0.00000000000E+00 0. -1.
         25    2    1    2    0    0 -0.96932135741E+01 -0.40113541611E+02 -0.32590257138E+03  0.35151515223E+03  0.12508941444E+03 0.  0.
          5    1    3    3  502    0 -0.20126158145E+02 -0.82366063292E+02 -0.17663505704E+03  0.19597613732E+03  0.41800000000E+01 0.  1.
         -5    1    3    3    0  502  0.10432944571E+02  0.42252521681E+02 -0.14926751434E+03  0.15553901491E+03  0.41800000000E+01 0.  1.
        -11    1    1    2    0    0  0.36491993963E+02  0.31191859461E+02 -0.61618643683E+02  0.78111810690E+02  0.00000000000E+00 0. -1.
         11    1    1    2    0    0 -0.26798780388E+02  0.89216821505E+01  0.14283353954E+02  0.31650991183E+02  0.00000000000E+00 0.  1.
</event>
<event>
 7    1  0.2820496E-009  0.1491297E+03  0.7561462E-02  0.1201546E+00
         -1   -1    0    0    0  501 -0.00000000000E+00  0.00000000000E+00  0.11639666611E+03  0.11639666611E+03  0.00000000000E+00 0.  1.
          1   -1    0    0  501    0  0.00000000000E+00 -0.00000000000E+00 -0.22630922011E+03  0.22630922011E+03  0.00000000000E+00 0. -1.
         25    2    1    2    0    0 -0.10944284828E+03 -0.47856509761E+02 -0.67468397492E+02  0.18568657146E+03  0.12513806613E+03 0.  0.
          5    1    3    3  502    0 -0.10872856423E+03  0.15022109171E+02 -0.39348905245E+02  0.11667636088E+03  0.41800000000E+01 0.  1.
         -5    1    3    3    0  502 -0.71428404605E+00 -0.62878618932E+02 -0.28119492247E+02  0.69010210583E+02  0.41800000000E+01 0.  1.
        -11    1    1    2    0    0  0.46869845056E+02  0.41321074924E+02  0.22677258317E+02  0.66471585307E+02  0.00000000000E+00 0.  1.
         11    1    1    2    0    0  0.62573003219E+02  0.65354348370E+01 -0.65121414826E+02  0.90547729454E+02  0.00000000000E+00 0. -1.
</event>
<event>
 7    1  0.2820496E-009  0.1193549E+03  0.7561462E-02  0.1244165E+00
         -3   -1    0    0    0  501 -0.00000000000E+00  0.00000000000E+00  0.44252295279E+03  0.44252295279E+03  0.00000000000E+00 0.  1.
          3   -1    0    0  501    0  0.00000000000E+00 -0.00000000000E+00 -0.44067312946E+02  0.44067312946E+02  0.00000000000E+00 0. -1.
         25    2    1    2    0    0 -0.78625624052E+02 -0.24624524728E+02  0.17337901188E+03  0.22911919863E+03  0.12508784690E+03 0.  0.
          5    1    3    3  502    0  0.31036606581E+02  0.12761394026E+02  0.41149970215E+02  0.53262712795E+02  0.41800000000E+01 0.  1.
         -5    1    3    3    0  502 -0.10966223063E+03 -0.37385918753E+02  0.13222904167E+03  0.17585648583E+03  0.41800000000E+01 0.  1.
        -11    1    1    2    0    0  0.40275482343E+02  0.30015920823E+02  0.29828543902E+02  0.58419277744E+02  0.00000000000E+00 0. -1.
         11    1    1    2    0    0  0.38350141709E+02 -0.53913960956E+01  0.19524808406E+03  0.19905178937E+03  0.00000000000E+00 0.  1.
</event>
<event>
 7    1  0.2820496E-009  0.3222875E+03  0.7561462E-02  0.1074601E+00
         -1   -1    0    0    0  501 -0.00000000000E+00  0.00000000000E+00  0.14616470476E+03  0.14616470476E+03  0.00000000000E+00 0.  1.
          1   -1    0    0  501    0  0.00000000000E+00 -0.00000000000E+00 -0.77192501696E+03  0.77192501696E+03  0.00000000000E+00 0. -1.
         25    2    1    2    0    0  0.16879707954E+03 -0.26658956516E+03 -0.30166820844E+03  0.45410763174E+03  0.12509029903E+03 0.  0.
          5    1    3    3  502    0  0.52172170025E+02 -0.16882892175E+03 -0.10567779477E+03  0.20593787620E+03  0.41800000000E+01 0. -1.
         -5    1    3    3    0  502  0.11662490952E+03 -0.97760643409E+02 -0.19599041366E+03  0.24816975555E+03  0.41800000000E+01 0. -1.
        -11    1    1    2    0    0 -0.15356566670E+02  0.27312430702E+02 -0.91445732102E+02  0.96664962268E+02  0.00000000000E+00 0. -1.
         11    1    1    2    0    0 -0.15344051287E+03  0.23927713445E+03 -0.23264637166E+03  0.36731712771E+03  0.00000000000E+00 0.  1.
</event>
<event>
 7    1  0.2820496E-009  0.2690989E+03  0.7561462E-02  0.1101796E+00
          2   -1    0    0  501    0  0.00000000000E+00  0.00000000000E+00  0.42221233228E+03  0.42221233228E+03  0.00000000000E+00 0. -1.
         -2   -1    0    0    0  501 -0.00000000000E+00 -0.00000000000E+00 -0.19155306231E+03  0.19155306231E+03  0.00000000000E+00 0.  1.
         25    2    1    2    0    0 -0.20594778890E+03  0.13831463131E+03  0.21365820351E+03  0.35050375786E+03  0.12513044136E+03 0.  0.
          5    1    3    3  502    0  0.25608509039E+01  0.49393779609E+02  0.53135644215E+02  0.72712945942E+02  0.41800000000E+01 0. -1.
         -5    1    3    3    0  502 -0.20850863981E+03  0.88920851704E+02  0.16052255930E+03  0.27779081192E+03  0.41800000000E+01 0. -1.
        -11    1    1    2    0    0  0.19719171466E+02 -0.53869161584E+02  0.12609022896E+02  0.58734314939E+02  0.00000000000E+00 0. -1.
         11    1    1    2    0    0  0.18622861744E+03 -0.84445469729E+02  0.43920435611E+01  0.20452732179E+03  0.00000000000E+00 0.  1.
</event>
<event>
 7    1  0.2820496E-009  0.1075847E+03  0.7561462E-02  0.1265109E+00
          2   -1    0    0  501    0  0.00000000000E+00  0.00000000000E+00  0.14690470313E+03  0.14690470313E+03  0.00000000000E+00 0. -1.
         -2   -1    0    0    0  501 -0.00000000000E+00 -0.00000000000E+00 -0.88676646926E+02  0.88676646926E+02  0.00000000000E+00 0.  1.
         25    2    1    2    0    0 -0.72878287675E-01  0.26618191358E+02  0.28119865646E+01  0.12791862844E+03  0.12508690903E+03 0.  0.
          5    1    3    3  502    0  0.34670104581E+02  0.63515939212E+02 -0.15033861390E+02  0.74025536634E+02  0.41800000000E+01 0.  1.
         -5    1    3    3    0  502 -0.34742982868E+02 -0.36897747854E+02  0.17845847954E+02  0.53893091807E+02  0.41800000000E+01 0.  1.
        -11    1    1    2    0    0  0.41983096894E+02  0.37199958069E+00  0.19943979982E+02  0.46480976173E+02  0.00000000000E+00 0.  1.
         11    1    1    2    0    0 -0.41910218606E+02 -0.26990190939E+02  0.35472089653E+02  0.61181745438E+02  0.00000000000E+00 0. -1.
</event>
<event>
 7    1  0.2820496E-009  0.2135527E+03  0.7561462E-02  0.1138783E+00
          1   -1    0    0  501    0  0.00000000000E+00  0.00000000000E+00  0.15485392971E+04  0.15485392971E+04  0.00000000000E+00 0. -1.
         -1   -1    0    0    0  501 -0.00000000000E+00 -0.00000000000E+00 -0.40298895807E+02  0.40298895807E+02  0.00000000000E+00 0.  1.
         25    2    1    2    0    0 -0.11611217693E+03 -0.17058305977E+03  0.10598163930E+04  0.10869407021E+04  0.12509470512E+03 0.  0.
          5    1    3    3  502    0 -0.10174169168E+03 -0.84666754156E+02  0.84138942126E+03  0.85174729920E+03  0.41800000000E+01 0.  1.
         -5    1    3    3    0  502 -0.14370485247E+02 -0.85916305609E+02  0.21842697170E+03  0.23519340293E+03  0.41800000000E+01 0.  1.
        -11    1    1    2    0    0  0.63088143279E+02  0.73629016614E+02  0.30979137210E+03  0.32461059770E+03  0.00000000000E+00 0.  1.
         11    1    1    2    0    0  0.53024033649E+02  0.96954043151E+02  0.13863263622E+03  0.17728689306E+03  0.00000000000E+00 0. -1.
</event>
<event>
 7    1  0.3136861E-009  0.1048090E+03  0.7561462E-02  0.1270496E+00
         -2   -1    0    0    0  501 -0.00000000000E+00  0.00000000000E+00  0.36676116569E+02  0.36676116569E+02  0.00000000000E+00 0. -1.
          2   -1    0    0  501    0  0.00000000000E+00 -0.00000000000E+00 -0.34665017627E+03  0.34665017627E+03  0.00000000000E+00 0.  1.
         25    2    1    2    0    0 -0.75540970037E+01  0.12565691563E+02 -0.13116779270E+03  0.18184584265E+03  0.12509180493E+03 0.  0.
          5    1    3    3  502    0 -0.41326392783E+02 -0.43273292807E+02 -0.71443245257E+02  0.93284823544E+02  0.41800000000E+01 0.  1.
         -5    1    3    3    0  502  0.33772295779E+02  0.55838984370E+02 -0.59724547440E+02  0.88561019103E+02  0.41800000000E+01 0.  1.
        -11    1    1    2    0    0  0.26129347410E+02 -0.41984673744E+02 -0.60364052313E+02  0.78033803169E+02  0.00000000000E+00 0. -1.
         11    1    1    2    0    0 -0.18575250407E+02  0.29418982180E+02 -0.11844221469E+03  0.12344664702E+03  0.00000000000E+00 0.  1.
</event>
<event>
 7    1  0.2820496E-009  0.7321227E+02  0.7561462E-02  0.1349498E+00
          2   -1    0    0  501    0  0.00000000000E+00  0.00000000000E+00  0.90678472792E+03  0.90678472792E+03  0.00000000000E+00 0. -1.
         -2   -1    0    0    0  501 -0.00000000000E+00 -0.00000000000E+00 -0.15065370484E+02  0.15065370484E+02  0.00000000000E+00 0.  1.
         25    2    1    2    0    0  0.34501117105E+02  0.51930111032E+01  0.58001994366E+03  0.59438043760E+03  0.12509066756E+03 0.  0.
          5    1    3    3  502    0  0.19133748894E+02  0.18176790481E+02  0.57151965953E+03  0.57214394140E+03  0.41800000000E+01 0.  1.
         -5    1    3    3    0  502  0.15367368211E+02 -0.12983779378E+02  0.85002841323E+01  0.22236496194E+02  0.41800000000E+01 0.  1.
        -11    1    1    2    0    0 -0.50807172709E+02  0.30959680066E+02  0.16109532987E+03  0.17173111510E+03  0.00000000000E+00 0.  1.
         11    1    1    2    0    0  0.16306055604E+02 -0.36152691169E+02  0.15060408390E+03  0.15573854570E+03  0.00000000000E+00 0. -1.
</event>
<event>
 7    1  0.2820496E-009  0.8070947E+02  0.7561462E-02  0.1327050E+00
          2   -1    0    0  501    0  0.00000000000E+00  0.00000000000E+00  0.74185536011E+03  0.74185536011E+03  0.00000000000E+00 0. -1.
         -2   -1    0    0    0  501 -0.00000000000E+00 -0.00000000000E+00 -0.26042412606E+02  0.26042412606E+02  0.00000000000E+00 0.  1.
         25    2    1    2    0    0 -0.27056489619E+02  0.38693093906E+02  0.60801082392E+03  0.62253857680E+03  0.12509160028E+03 0.  0.
          5    1    3    3  502    0  0.10640878497E+02  0.33693004286E+02  0.41194096070E+02  0.54432277042E+02  0.41800000000E+01 0. -1.
         -5    1    3    3    0  502 -0.37697368116E+02  0.50000896194E+01  0.56681672785E+03  0.56810629976E+03  0.41800000000E+01 0. -1.
        -11    1    1    2    0    0 -0.20390599867E+02 -0.34338253540E+02  0.81921638055E+02  0.91137516977E+02  0.00000000000E+00 0. -1.
         11    1    1    2    0    0  0.47447089486E+02 -0.43548403655E+01  0.25880485531E+02  0.54221678936E+02  0.00000000000E+00 0.  1.
</event>
<event>
 7    1  0.2820496E-009  0.1486706E+03  0.7561462E-02  0.1202116E+00
         -2   -1    0    0    0  501 -0.00000000000E+00  0.00000000000E+00  0.87161039704E+02  0.87161039704E+02  0.00000000000E+00 0.  1.
          2   -1    0    0  501    0  0.00000000000E+00 -0.00000000000E+00 -0.38452805256E+03  0.38452805256E+03  0.00000000000E+00 0. -1.
         25    2    1    2    0    0  0.83065653994E+02  0.95432559838E+02 -0.25473220571E+03  0.31071408118E+03  0.12508983679E+03 0.  0.
          5    1    3    3  502    0 -0.20202113223E+02 -0.78622033153E+01 -0.71115761278E+01  0.23194536742E+02  0.41800000000E+01 0.  1.
         -5    1    3    3    0  502  0.10326776722E+03  0.10329476315E+03 -0.24762062958E+03  0.28751954444E+03  0.41800000000E+01 0.  1.
        -11    1    1    2    0    0 -0.30330253163E+01 -0.16349132615E+02  0.24756498954E+02  0.29822434848E+02  0.00000000000E+00 0.  1.
         11    1    1    2    0    0 -0.80032628678E+02 -0.79083427223E+02 -0.67391306098E+02  0.13115257623E+03  0.00000000000E+00 0. -1.
</event>
<event>
 7    1  0.2820496E-009  0.1241701E+03  0.7561462E-02  0.1236372E+00
         -2   -1    0    0    0  501 -0.00000000000E+00  0.00000000000E+00  0.24801761221E+03  0.24801761221E+03  0.00000000000E+00 0.  1.
          2   -1    0    0  501    0  0.00000000000E+00 -0.00000000000E+00 -0.19043906503E+03  0.19043906503E+03  0.00000000000E+00 0. -1.
         25    2    1    2    0    0 -0.63485056059E+01 -0.71302238439E+02 -0.14534029438E+03  0.20468357505E+03  0.12508897630E+03 0.  0.
          5    1    3    3  502    0 -0.42389383909E+02  0.14300280195E+02 -0.77526328452E+02  0.89605590703E+02  0.41800000000E+01 0.  1.
         -5    1    3    3    0  502  0.36040878303E+02 -0.85602518635E+02 -0.67813965928E+02  0.11507798434E+03  0.41800000000E+01 0.  1.
        -11    1    1    2    0    0 -0.33279892722E+02  0.56597460903E+01  0.99215826727E+02  0.10480154702E+03  0.00000000000E+00 0. -1.
         11    1    1    2    0    0  0.39628398328E+02  0.65642492349E+02  0.10370301483E+03  0.12897155516E+03  0.00000000000E+00 0.  1.
</event>
<event>
 7    1  0.2820496E-009  0.1100592E+03  0.7561462E-02  0.1260460E+00
         -2   -1    0    0    0  501 -0.00000000000E+00  0.00000000000E+00  0.70263010185E+03  0.70263010185E+03  0.00000000000E+00 0.  1.
          2   -1    0    0  501    0  0.00000000000E+00 -0.00000000000E+00 -0.21703645288E+02  0.21703645288E+02  0.00000000000E+00 0. -1.
         25    2    1    2    0    0 -0.32843058551E+02  0.36073810582E+02  0.52537568526E+03  0.54226091050E+03  0.12508916057E+03 0.  0.
          5    1    3    3  502    0 -0.42109687218E+02 -0.39536199128E+02  0.21850200960E+03  0.22604631694E+03  0.41800000000E+01 0. -1.
         -5    1    3    3    0  502  0.92666286665E+01  0.75610009710E+02  0.30687367566E+03  0.31621459357E+03  0.41800000000E+01 0. -1.
        -11    1    1    2    0    0  0.39331194913E+02 -0.54026578907E+02  0.80454991837E+02  0.10458881314E+03  0.00000000000E+00 0. -1.
         11    1    1    2    0    0 -0.64881363615E+01  0.17952768326E+02  0.75095779463E+02  0.77484023496E+02  0.00000000000E+00 0.  1.
</event>
<event>
 7    1  0.2820496E-009  0.1029206E+03  0.7561462E-02  0.1274272E+00
         -1   -1    0    0    0  501 -0.00000000000E+00  0.00000000000E+00  0.28681921229E+02  0.28681921229E+02  0.00000000000E+00 0.  1.
          1   -1    0    0  501    0  0.00000000000E+00 -0.00000000000E+00 -0.47389034687E+03  0.47389034687E+03  0.00000000000E+00 0. -1.
         25    2    1    2    0    0  0.38075671285E+02  0.92899137994E+01 -0.23498254928E+03  0.26907324381E+03  0.12509017879E+03 0.  0.
          5    1    3    3  502    0  0.72888211999E+02 -0.15403923664E+02 -0.85113644243E+02  0.11318912116E+03  0.41800000000E+01 0.  1.
         -5    1    3    3    0  502 -0.34812540714E+02  0.24693837463E+02 -0.14986890503E+03  0.15588412266E+03  0.41800000000E+01 0.  1.
        -11    1    1    2    0    0  0.21286096070E+02  0.12988213020E+02 -0.17111431073E+02  0.30242232668E+02  0.00000000000E+00 0.  1.
         11    1    1    2    0    0 -0.59361767355E+02 -0.22278126820E+02 -0.19311444529E+03  0.20325679162E+03  0.00000000000E+00 0. -1.
</event>
<event>
 7    1  0.2820496E-009  0.1241350E+03  0.7561462E-02  0.1236427E+00
          2   -1    0    0  501    0  0.00000000000E+00  0.00000000000E+00  0.56480771863E+03  0.56480771863E+03  0.00000000000E+00 0. -1.
         -2   -1    0    0    0  501 -0.00000000000E+00 -0.00000000000E+00 -0.28686923790E+02  0.28686923790E+02  0.00000000000E+00 0.  1.
         25    2    1    2    0    0  0.19233627811E+02  0.58738585440E+02  0.24325029834E+03  0.28042257469E+03  0.12508380748E+03 0.  0.
          5    1    3    3  502    0 -0.63705336432E+01  0.94651749608E+02  0.17366555937E+03  0.19793114034E+03  0.41800000000E+01 0. -1.
         -5    1    3    3    0  502  0.25604161454E+02 -0.35913164168E+02  0.69584738967E+02  0.82491434352E+02  0.41800000000E+01 0. -1.
        -11    1    1    2    0    0 -0.30910298646E+02 -0.79439622928E+02  0.20433879301E+03  0.22140560648E+03  0.00000000000E+00 0.  1.
         11    1    1    2    0    0  0.11676670835E+02  0.20701037488E+02  0.88531703498E+02  0.91666461256E+02  0.00000000000E+00 0. -1.
</event>
<event>
 7    1  0.2820496E-009  0.2041287E+03  0.7561462E-02  0.1146302E+00
         -1   -1    0    0    0  501 -0.00000000000E+00  0.00000000000E+00  0.45713953019E+03  0.45713953019E+03  0.00000000000E+00 0.  1.
          1   -1    0    0  501    0  0.00000000000E+00 -0.00000000000E+00 -0.11711165831E+03  0.11711165831E+03  0.00000000000E+00 0. -1.
         25    2    1    2    0    0 -0.25020761638E+02  0.17541380963E+03  0.30306112456E+03  0.37267887853E+03  0.12508980037E+03 0.  0.
          5    1    3    3  502    0  0.36140927716E+00 -0.19662134086E+02  0.29786606580E+02  0.35936672982E+02  0.41800000000E+01 0. -1.
         -5    1    3    3    0  502 -0.25382170915E+02  0.19507594371E+03  0.27327451798E+03  0.33674220554E+03  0.41800000000E+01 0. -1.
        -11    1    1    2    0    0 -0.25738711945E+02 -0.62264116480E+02  0.38402605073E+02  0.77550380850E+02  0.00000000000E+00 0.  1.
         11    1    1    2    0    0  0.50759473583E+02 -0.11314969315E+03 -0.14358577564E+01  0.12402192913E+03  0.00000000000E+00 0. -1.
</event>
<event>
 7    1  0.2820496E-009  0.9410383E+02  0.7561462E-02  0.1293207E+00
         -1   -1    0    0    0  501 -0.00000000000E+00  0.00000000000E+00  0.22007333874E+03  0.22007333874E+03  0.00000000000E+00 0.  1.
          1   -1    0    0  501    0  0.00000000000E+00 -0.00000000000E+00 -0.73177165977E+02  0.73177165977E+02  0.00000000000E+00 0. -1.
         25    2    1    2    0    0 -0.62426860077E+02  0.58615735211E+00  0.10601602628E+03  0.17545504221E+03  0.12509043756E+03 0.  0.
          5    1    3    3  502    0 -0.39084943528E+02 -0.21962911328E+02 -0.17023818983E+02  0.48138187516E+02  0.41800000000E+01 0. -1.
         -5    1    3    3    0  502 -0.23341916549E+02  0.22549068680E+02  0.12303984527E+03  0.12731685470E+03  0.41800000000E+01 0. -1.
        -11    1    1    2    0    0  0.42070888322E+02  0.44347317801E+02  0.23648098291E+02  0.65542938546E+02  0.00000000000E+00 0. -1.
         11    1    1    2    0    0  0.20355971754E+02 -0.44933475153E+02  0.17232048187E+02  0.52252523960E+02  0.00000000000E+00 0.  1.
</event>
<event>
 7    1  0.2820496E-009  0.2100060E+03  0.7561462E-02  0.1141561E+00
         -2   -1    0    0    0  501 -0.00000000000E+00  0.00000000000E+00  0.21726093267E+03  0.21726093267E+03  0.00000000000E+00 0.  1.
          2   -1    0    0  501    0  0.00000000000E+00 -0.00000000000E+00 -0.26956180026E+03  0.26956180026E+03  0.00000000000E+00 0. -1.
         25    2    1    2    0    0  0.11504737072E+03 -0.15100025860E+03  0.77562525493E+02  0.24020779109E+03  0.12508741716E+03 0.  0.
          5    1    3    3  502    0  0.14041408536E+03 -0.11381154133E+03  0.72211651627E+02  0.19468224710E+03  0.41800000000E+01 0. -1.
         -5    1    3    3    0  502 -0.25366714637E+02 -0.37188717277E+02  0.53508738662E+01  0.45525543987E+02  0.41800000000E+01 0. -1.
        -11    1    1    2    0    0 -0.87989915926E+02  0.83571077639E+02 -0.33426039525E+02  0.12587156327E+03  0.00000000000E+00 0.  1.
         11    1    1    2    0    0 -0.27057454795E+02  0.67429180964E+02 -0.96437353564E+02  0.12074337857E+03  0.00000000000E+00 0. -1.
</event>
<event>
 7    1  0.2820496E-009  0.9472670E+02  0.7561462E-02  0.1291793E+00
          2   -1    0    0  501    0  0.00000000000E+00  0.00000000000E+00  0.23576997463E+03  0.23576997463E+03  0.00000000000E+00 0.  1.
         -2   -1    0    0    0  501 -0.00000000000E+00 -0.00000000000E+00 -0.52463551412E+02  0.52463551412E+02  0.00000000000E+00 0. -1.
         25    2    1    2    0    0  0.28914517182E+02  0.46629627532E+01  0.11825283000E+03  0.17461455287E+03  0.12509483501E+03 0.  0.
          5    1    3    3  502    0 -0.29663917465E+02  0.45231474722E+02  0.69538578901E+02  0.88198189667E+02  0.41800000000E+01 0.  1.
         -5    1    3    3    0  502  0.58578434647E+02 -0.40568511969E+02  0.48714251099E+02  0.86416363203E+02  0.41800000000E+01 0.  1.
        -11    1    1    2    0    0 -0.34692544779E+02  0.18938705153E+02  0.76992790278E+02  0.86545577420E+02  0.00000000000E+00 0.  1.
         11    1    1    2    0    0  0.57780275968E+01 -0.23601667906E+02 -0.11939197064E+02  0.27073395749E+02  0.00000000000E+00 0. -1.
</event>
<event>
 7    1  0.2820496E-009  0.8594985E+02  0.7561462E-02  0.1312967E+00
         -2   -1    0    0    0  501 -0.00000000000E+00  0.00000000000E+00  0.12923977585E+02  0.12923977585E+02  0.00000000000E+00 0.  1.
          2   -1    0    0  501    0  0.00000000000E+00 -0.00000000000E+00 -0.11923385972E+04  0.11923385972E+04  0.00000000000E+00 0. -1.
         25    2    1    2    0    0 -0.21597697730E+02 -0.56253636578E+02 -0.67883252816E+03  0.69288644742E+03  0.12508835100E+03 0.  0.
          5    1    3    3  502    0 -0.12786107623E+02 -0.14616062578E+02 -0.92025202258E+01  0.21892295721E+02  0.41800000000E+01 0.  1.
         -5    1    3    3    0  502 -0.88115901066E+01 -0.41637574000E+02 -0.66963000793E+03  0.67099415170E+03  0.41800000000E+01 0.  1.
        -11    1    1    2    0    0 -0.31427217533E+02  0.45287879732E+02 -0.25860252170E+03  0.26441241703E+03  0.00000000000E+00 0. -1.
         11    1    1    2    0    0  0.53024915263E+02  0.10965756846E+02 -0.24197956980E+03  0.24796371037E+03  0.00000000000E+00 0.  1.
</event>
<event>
 7    1  0.2820496E-009  0.1401771E+03  0.7561462E-02  0.1213091E+00
         -1   -1    0    0    0  501 -0.00000000000E+00  0.00000000000E+00  0.18954741443E+03  0.18954741443E+03  0.00000000000E+00 0.  1.
          1   -1    0    0  501    0  0.00000000000E+00 -0.00000000000E+00 -0.14331203354E+03  0.14331203354E+03  0.00000000000E+00 0. -1.
         25    2    1    2    0    0  0.10827761741E+03 -0.15830814174E+02 -0.33202417682E+02  0.16948980257E+03  0.12509890298E+03 0.  0.
          5    1    3    3  502    0  0.34162688894E+02  0.52581892250E+02  0.11516314868E+01  0.62854939027E+02  0.41800000000E+01 0.  1.
         -5    1    3    3    0  502  0.74114928514E+02 -0.68412706424E+02 -0.34354049169E+02  0.10663486354E+03  0.41800000000E+01 0.  1.
        -11    1    1    2    0    0 -0.86836401396E+02  0.28817117914E+02  0.96552940755E+02  0.13301675556E+03  0.00000000000E+00 0.  1.
         11    1    1    2    0    0 -0.21441216012E+02 -0.12986303740E+02 -0.17115142186E+02  0.30352889829E+02  0.00000000000E+00 0. -1.
</event>
<event>
 7    1  0.3081545E-009  0.2045759E+03  0.7561462E-02  0.1145935E+00
          2   -1    0    0  501    0  0.00000000000E+00  0.00000000000E+00  0.55346089301E+03  0.55346089301E+03  0.00000000000E+00 0.  1.
         -2   -1    0    0    0  501 -0.00000000000E+00 -0.00000000000E+00 -0.11420026285E+03  0.11420026285E+03  0.00000000000E+00 0. -1.
         25    2    1    2    0    0 -0.14493874036E+03 -0.99346897144E+02  0.41538525320E+03  0.46804816801E+03  0.12508850697E+03 0.  0.
          5    1    3    3  502    0  0.86558640991E+01 -0.52143481426E+02  0.77812722604E+02  0.94160282697E+02  0.41800000000E+01 0.  1.
         -5    1    3    3    0  502 -0.15359460446E+03 -0.47203415718E+02  0.33757253059E+03  0.37388788531E+03  0.41800000000E+01 0.  1.
        -11    1    1    2    0    0  0.49902127751E+02  0.85989413661E+02 -0.45400784847E+01  0.99523936460E+02  0.00000000000E+00 0. -1.
         11    1    1    2    0    0  0.95036612606E+02  0.13357483483E+02  0.28415455447E+02  0.10008905139E+03  0.00000000000E+00 0.  1.
</event>
<event>
 7    1  0.2820496E-009  0.8439434E+02  0.7561462E-02  0.1317024E+00
         -2   -1    0    0    0  501 -0.00000000000E+00  0.00000000000E+00  0.85338103286E+02  0.85338103286E+02  0.00000000000E+00 0.  1.
          2   -1    0    0  501    0  0.00000000000E+00 -0.00000000000E+00 -0.19763511209E+03  0.19763511209E+03  0.00000000000E+00 0. -1.
         25    2    1    2    0    0  0.57109412914E+02  0.90557334786E+01 -0.10477520231E+03  0.17311488882E+03  0.12508968926E+03 0.  0.
          5    1    3    3  502    0  0.27165628897E+02  0.10218120994E+02 -0.13028220285E+03  0.13354140245E+03  0.41800000000E+01 0.  1.
         -5    1    3    3    0  502  0.29943784017E+02 -0.11623875150E+01  0.25507000545E+02  0.39573486362E+02  0.41800000000E+01 0.  1.
        -11    1    1    2    0    0 -0.53816385024E+02 -0.46801215011E+02 -0.93219063508E+01  0.71926733288E+02  0.00000000000E+00 0. -1.
         11    1    1    2    0    0 -0.32930278901E+01  0.37745481532E+02  0.18000998506E+01  0.37931593274E+02  0.00000000000E+00 0.  1.
</event>
<event>
 7    1  0.2820496E-009  0.9097806E+02  0.7561462E-02  0.1300500E+00
          1   -1    0    0  501    0  0.00000000000E+00  0.00000000000E+00  0.56164618016E+03  0.56164618016E+03  0.00000000000E+00 0. -1.
         -1   -1    0    0    0  501 -0.00000000000E+00 -0.00000000000E+00 -0.34820012028E+02  0.34820012028E+02  0.00000000000E+00 0.  1.
         25    2    1    2    0    0  0.35909880482E+02  0.32024925713E+02  0.44645823606E+03  0.46614124023E+03  0.12509030301E+03 0.  0.
          5    1    3    3  502    0 -0.27152791557E+02 -0.31651101025E+02  0.18603191977E+03  0.19069455645E+03  0.41800000000E+01 0.  1.
         -5    1    3    3    0  502  0.63062672039E+02  0.63676026737E+02  0.26042631629E+03  0.27544668378E+03  0.41800000000E+01 0.  1.
        -11    1    1    2    0    0 -0.24220051837E+02 -0.29847192141E+02  0.10013389225E+03  0.10725792356E+03  0.00000000000E+00 0. -1.
         11    1    1    2    0    0 -0.11689828645E+02 -0.21777335715E+01 -0.19765960183E+02  0.23067028400E+02  0.00000000000E+00 0.  1.
</event>
<event>
 7    1  0.2820496E-009  0.7611077E+02  0.7561462E-02  0.1340465E+00
         -2   -1    0    0    0  501 -0.00000000000E+00  0.00000000000E+00  0.35287413846E+02  0.35287413846E+02  0.00000000000E+00 0.  1.
          2   -1    0    0  501    0  0.00000000000E+00 -0.00000000000E+00 -0.40020949368E+03  0.40020949368E+03  0.00000000000E+00 0. -1.
         25    2    1    2    0    0  0.42514079746E+02 -0.26377485105E+02 -0.19067336627E+03  0.23346726957E+03  0.12508962651E+03 0.  0.
          5    1    3    3  502    0 -0.19077105183E+02 -0.34436669874E+02 -0.78837297978E+01  0.40366394064E+02  0.41800000000E+01 0.  1.
         -5    1    3    3    0  502  0.61591184930E+02  0.80591847697E+01 -0.18278963647E+03  0.19310087551E+03  0.41800000000E+01 0.  1.
        -11    1    1    2    0    0 -0.34237991061E+02  0.18346756902E+02 -0.18329948725E+03  0.18737007645E+03  0.00000000000E+00 0. -1.
         11    1    1    2    0    0 -0.82760886855E+01  0.80307282023E+01  0.90507736856E+01  0.14659561511E+02  0.00000000000E+00 0.  1.
</event>
<event>
 7    1  0.2820496E-009  0.1770068E+03  0.7561462E-02  0.1170732E+00
         -2   -1    0    0    0  501 -0.00000000000E+00  0.00000000000E+00  0.57791888152E+02  0.57791888152E+02  0.00000000000E+00 0.  1.
          2   -1    0    0  501    0  0.00000000000E+00 -0.00000000000E+00 -0.71291004508E+03  0.71291004508E+03  0.00000000000E+00 0. -1.
         25    2    1    2    0    0  0.14941637925E+03  0.69408859630E+02 -0.24457051136E+03  0.32031987196E+03  0.12508893302E+03 0.  0.
          5    1    3    3  502    0  0.12668119588E+03  0.89529959307E+02 -0.24460035253E+03  0.28967316732E+03  0.41800000000E+01 0.  1.
         -5    1    3    3    0  502  0.22735183367E+02 -0.20121099677E+02  0.29841176599E-01  0.30646704642E+02  0.41800000000E+01 0.  1.
        -11    1    1    2    0    0 -0.60664042903E+02 -0.46746648664E+02 -0.28410511062E+03  0.29424664679E+03  0.00000000000E+00 0. -1.
         11    1    1    2    0    0 -0.88752336348E+02 -0.22662210967E+02 -0.12644253495E+03  0.15613541449E+03  0.00000000000E+00 0.  1.
</event>
<event>
 7    1  0.2820496E-009  0.1195095E+03  0.7561462E-02  0.1243908E+00
          2   -1    0    0  501    0  0.00000000000E+00  0.00000000000E+00  0.56103396140E+03  0.56103396140E+03  0.00000000000E+00 0. -1.
         -2   -1    0    0    0  501 -0.00000000000E+00 -0.00000000000E+00 -0.27584032995E+02  0.27584032995E+02  0.00000000000E+00 0.  1.
         25    2    1    2    0    0 -0.28648532755E+02  0.52824019214E+02  0.26117764057E+03  0.29575349123E+03  0.12508098258E+03 0.  0.
          5    1    3    3  502    0  0.23263555008E+01 -0.39718587660E+02  0.93512931637E+02  0.10171095771E+03  0.41800000000E+01 0. -1.
         -5    1    3    3    0  502 -0.30974888256E+02  0.92542606874E+02  0.16766470894E+03  0.19404253351E+03  0.41800000000E+01 0. -1.
        -11    1    1    2    0    0  0.53763543175E+02 -0.53989359019E+02  0.15241535323E+03  0.17039897113E+03  0.00000000000E+00 0.  1.
         11    1    1    2    0    0 -0.25115010420E+02  0.11653398050E+01  0.11985693461E+03  0.12246553205E+03  0.00000000000E+00 0. -1.
</event>
<event>
 6    1  0.2820496E-009  0.1666936E+03  0.7561462E-02  0.1181340E+00
          2   -1    0    0  501    0  0.00000000000E+00  0.00000000000E+00  0.42857586762E+03  0.42857586762E+03  0.00000000000E+00 0. -1.
         -2   -1    0    0    0  501 -0.00000000000E+00 -0.00000000000E+00 -0.85148817996E+02  0.85148817996E+02  0.00000000000E+00 0.  1.
          5    1    1    2  502    0 -0.11427273931E+03 -0.77439274966E+01  0.87596920624E+02  0.14425297316E+03  0.41800000000E+01 0. -1.
         -5    1    1    2    0  502 -0.27794205252E+02  0.60725228067E+02  0.14962612825E+03  0.16390705239E+03  0.41800000000E+01 0. -1.
        -11    1    1    2    0    0  0.36450483156E+02 -0.17593708029E+02 -0.12910634278E+02  0.42483652879E+02  0.00000000000E+00 0.  1.
         11    1    1    2    0    0  0.10561646141E+03 -0.35387592541E+02  0.11911463503E+03  0.16308100719E+03  0.00000000000E+00 0. -1.
</event>
<event>
 7    1  0.2820496E-009  0.1110393E+03  0.7561462E-02  0.1258657E+00
         -1   -1    0    0    0  501 -0.00000000000E+00  0.00000000000E+00  0.14410082140E+03  0.14410082140E+03  0.00000000000E+00 0.  1.
          1   -1    0    0  501    0  0.00000000000E+00 -0.00000000000E+00 -0.11746393732E+03  0.11746393732E+03  0.00000000000E+00 0. -1.
         25    2    1    2    0    0  0.48962164907E+02 -0.14629280193E+02  0.66166488022E+02  0.15045561168E+03  0.12509027747E+03 0.  0.
          5    1    3    3  502    0  0.53472235579E+02 -0.65017219263E+02  0.38802431141E+02  0.92788037166E+02  0.41800000000E+01 0.  1.
         -5    1    3    3    0  502 -0.45100706728E+01  0.50387939070E+02  0.27364056881E+02  0.57667574513E+02  0.41800000000E+01 0.  1.
        -11    1    1    2    0    0  0.15241444455E+02 -0.10040581150E+02  0.14769423820E+02  0.23478730350E+02  0.00000000000E+00 0.  1.
         11    1    1    2    0    0 -0.64203609361E+02  0.24669861343E+02 -0.54299027762E+02  0.87630416692E+02  0.00000000000E+00 0. -1.
</event>
<event>
 7    1  0.2820496E-009  0.1778081E+03  0.7561462E-02  0.1169941E+00
         -2   -1    0    0    0  501 -0.00000000000E+00  0.00000000000E+00  0.54507744903E+02  0.54507744903E+02  0.00000000000E+00 0.  1.
          2   -1    0    0  501    0  0.00000000000E+00 -0.00000000000E+00 -0.78678783018E+03  0.78678783018E+03  0.00000000000E+00 0. -1.
         25    2    1    2    0    0  0.15411849347E+03  0.39400588561E+01 -0.20781994522E+03  0.28741011840E+03  0.12508961759E+03 0.  0.
          5    1    3    3  502    0  0.94870341117E+02 -0.47824212044E+02 -0.65910722797E+02  0.12509689309E+03  0.41800000000E+01 0. -1.
         -5    1    3    3    0  502  0.59248152356E+02  0.51764270900E+02 -0.14190922243E+03  0.16231322531E+03  0.41800000000E+01 0. -1.
        -11    1    1    2    0    0 -0.32507855627E+02  0.30011727318E+02 -0.21782439285E+03  0.22227219929E+03  0.00000000000E+00 0. -1.
         11    1    1    2    0    0 -0.12161063785E+03 -0.33951786174E+02 -0.30663574720E+03  0.33161325740E+03  0.00000000000E+00 0.  1.
</event>
<event>
 7    1  0.2820496E-009  0.1128007E+03  0.7561462E-02  0.1255470E+00
          2   -1    0    0  501    0  0.00000000000E+00  0.00000000000E+00  0.47112572239E+03  0.47112572239E+03  0.00000000000E+00 0. -1.
         -2   -1    0    0    0  501 -0.00000000000E+00 -0.00000000000E+00 -0.39017047572E+02  0.39017047572E+02  0.00000000000E+00 0.  1.
         25    2    1    2    0    0  0.58678018726E+02 -0.20242262510E+01  0.33712833367E+03  0.36434904008E+03  0.12508997669E+03 0.  0.
          5    1    3    3  502    0 -0.71290972415E+01  0.51226509624E+02  0.15524401733E+03  0.16368615285E+03  0.41800000000E+01 0.  1.
         -5    1    3    3    0  502  0.65807115967E+02 -0.53250735875E+02  0.18188431634E+03  0.20066288723E+03  0.41800000000E+01 0.  1.
        -11    1    1    2    0    0  0.14307182498E+02  0.67467210930E+01  0.64750615496E+02  0.66654751696E+02  0.00000000000E+00 0. -1.
         11    1    1    2    0    0 -0.72985201224E+02 -0.47224948420E+01  0.30229725647E+02  0.79138978183E+02  0.00000000000E+00 0.  1.
</event>
<event>
 7    1  0.2820496E-009  0.1166401E+03  0.7561462E-02  0.1248745E+00
         -1   -1    0    0    0  501 -0.00000000000E+00  0.00000000000E+00  0.32334482564E+02  0.32334482564E+02  0.00000000000E+00 0.  1.
          1   -1    0    0  501    0  0.00000000000E+00 -0.00000000000E+00 -0.45690472744E+03  0.45690472744E+03  0.00000000000E+00 0. -1.
         25    2    1    2    0    0 -0.29978822146E+02  0.19935365796E+02 -0.29512545073E+03  0.32255670565E+03  0.12509055961E+03 0.  0.
          5    1    3    3  502    0  0.27451378822E+02  0.55795119589E+02 -0.14332787526E+03  0.15629147704E+03  0.41800000000E+01 0.  1.
         -5    1    3    3    0  502 -0.57430200968E+02 -0.35859753793E+02 -0.15179757547E+03  0.16626522861E+03  0.41800000000E+01 0.  1.
        -11    1    1    2    0    0 -0.34439193450E+02  0.34022383704E+01 -0.59088867755E+02  0.68477204703E+02  0.00000000000E+00 0. -1.
         11    1    1    2    0    0  0.64418015596E+02 -0.23337604167E+02 -0.70355926393E+02  0.98205299654E+02  0.00000000000E+00 0.  1.
</event>
<event>
 7    1  0.2886210E-009  0.9582621E+02  0.7561462E-02  0.1289326E+00
          1   -1    0    0  501    0  0.00000000000E+00  0.00000000000E+00  0.34584871504E+03  0.34584871504E+03  0.00000000000E+00 0. -1.
         -1   -1    0    0    0  501 -0.00000000000E+00 -0.00000000000E+00 -0.55063607614E+02  0.55063607614E+02  0.00000000000E+00 0.  1.
         25    2    1    2    0    0 -0.32105017571E+02 -0.52870277627E+02  0.24346753531E+03  0.28060972630E+03  0.12505750410E+03 0.  0.
          5    1    3    3  502    0 -0.13012315527E+02 -0.74796467049E+02  0.23911907113E+03  0.25091678783E+03  0.41800000000E+01 0.  1.
         -5    1    3    3    0  502 -0.19092702044E+02  0.21926189422E+02  0.43484641825E+01  0.29692938464E+02  0.41800000000E+01 0.  1.
        -11    1    1    2    0    0  0.11917190207E+02  0.62677792382E+02 -0.43723147042E+01  0.63950310525E+02  0.00000000000E+00 0.  1.
         11    1    1    2    0    0  0.20187827364E+02 -0.98075147553E+01  0.51689886813E+02  0.56352285828E+02  0.00000000000E+00 0. -1.
</event>
<event>
 7    1  0.2820496E-009  0.2424060E+03  0.7561462E-02  0.1118200E+00
          2   -1    0    0  501    0  0.00000000000E+00  0.00000000000E+00  0.38905730304E+03  0.38905730304E+03  0.00000000000E+00 0. -1.
         -2   -1    0    0    0  501 -0.00000000000E+00 -0.00000000000E+00 -0.18788205168E+03  0.18788205168E+03  0.00000000000E+00 0.  1.
         25    2    1    2    0    0  0.17637023971E+03 -0.16270197801E+03  0.37157566892E+02  0.27314343013E+03  0.12509297959E+03 0.  0.
          5    1    3    3  502    0  0.15771705172E+03 -0.16124487032E+03 -0.62622642751E+01  0.22567956257E+03  0.41800000000E+01 0. -1.
         -5    1    3    3    0  502  0.18653187986E+02 -0.14571076868E+01  0.43419831168E+02  0.47463867557E+02  0.41800000000E+01 0. -1.
        -11    1    1    2    0    0 -0.55786513002E+02  0.47278721822E+02  0.50688589429E+01  0.73301472707E+02  0.00000000000E+00 0.  1.
         11    1    1    2    0    0 -0.12058372670E+03  0.11542325618E+03  0.15894882552E+03  0.23049445188E+03  0.00000000000E+00 0. -1.
</event>
<event>
 7    1  0.2820496E-009  0.1356263E+03  0.7561462E-02  0.1219338E+00
         -1   -1    0    0    0  501 -0.00000000000E+00  0.00000000000E+00  0.33163438039E+02  0.33163438039E+02  0.00000000000E+00 0.  1.
          1   -1    0    0  501    0  0.00000000000E+00 -0.00000000000E+00 -0.59502738474E+03  0.59502738474E+03  0.00000000000E+00 0. -1.
         25    2    1    2    0    0  0.85828120046E+02 -0.27185293195E+02 -0.32910304779E+03  0.36340326526E+03  0.12509041044E+03 0.  0.
          5    1    3    3  502    0  0.11132794194E+03 -0.65798931561E+00 -0.19822992657E+03  0.22739155612E+03  0.41800000000E+01 0.  1.
         -5    1    3    3    0  502 -0.25499821890E+02 -0.26527303879E+02 -0.13087312121E+03  0.13601170914E+03  0.41800000000E+01 0.  1.
        -11    1    1    2    0    0 -0.95510897043E+02  0.16749039611E+01 -0.15183226142E+03  0.17938275381E+03  0.00000000000E+00 0.  1.
         11    1    1    2    0    0  0.96827769963E+01  0.25510389234E+02 -0.80928637493E+02  0.85404803704E+02  0.00000000000E+00 0. -1.
</event>
<event>
 7    1  0.2820496E-009  0.6511340E+02  0.7561462E-02  0.1377545E+00
         -2   -1    0    0    0  501 -0.00000000000E+00  0.00000000000E+00  0.13055736965E+03  0.13055736965E+03  0.00000000000E+00 0.  1.
          2   -1    0    0  501    0  0.00000000000E+00 -0.00000000000E+00 -0.97863980661E+02  0.97863980661E+02  0.00000000000E+00 0. -1.
         25    2    1    2    0    0 -0.20283559107E+02 -0.16942011486E+02  0.86375509840E+01  0.12814458771E+03  0.12509186044E+03 0.  0.
          5    1    3    3  502    0 -0.30926920338E+02  0.24523596525E+01  0.62425447352E+02  0.69834786078E+02  0.41800000000E+01 0. -1.
         -5    1    3    3    0  502  0.10643361231E+02 -0.19394371139E+02 -0.53787896368E+02  0.58309801628E+02  0.41800000000E+01 0. -1.
        -11    1    1    2    0    0 -0.27057991638E+02  0.42019847217E+01 -0.20360806212E+02  0.34122632031E+02  0.00000000000E+00 0. -1.
         11    1    1    2    0    0  0.47341550745E+02  0.12740026765E+02  0.44416644221E+02  0.66154130580E+02  0.00000000000E+00 0.  1.
</event>
<event>
 7    1  0.2820496E-009  0.1541307E+03  0.7561462E-02  0.1195487E+00
          3   -1    0    0  501    0  0.00000000000E+00  0.00000000000E+00  0.14635429265E+03  0.14635429265E+03  0.00000000000E+00 0. -1.
         -3   -1    0    0    0  501 -0.00000000000E+00 -0.00000000000E+00 -0.19312598588E+03  0.19312598588E+03  0.00000000000E+00 0.  1.
         25    2    1    2    0    0  0.12635270631E+02  0.12598363778E+03 -0.10241648046E+02  0.17827964536E+03  0.12508882262E+03 0.  0.
          5    1    3    3  502    0  0.74937143873E+01 -0.19643045670E+02 -0.23611904955E+02  0.31890428880E+02  0.41800000000E+01 0. -1.
         -5    1    3    3    0  502  0.51415562438E+01  0.14562668345E+03  0.13370256909E+02  0.14638921648E+03  0.41800000000E+01 0. -1.
        -11    1    1    2    0    0  0.21300777742E+02 -0.18096493302E+02 -0.39112218945E+02  0.48072568821E+02  0.00000000000E+00 0.  1.
         11    1    1    2    0    0 -0.33936048373E+02 -0.10788714448E+03  0.25821737598E+01  0.11312806435E+03  0.00000000000E+00 0. -1.
</event>
<event>
 7    1  0.2820496E-009  0.1701721E+03  0.7561462E-02  0.1177668E+00
          2   -1    0    0  501    0  0.00000000000E+00  0.00000000000E+00  0.49614940412E+02  0.49614940412E+02  0.00000000000E+00 0. -1.
         -2   -1    0    0    0  501 -0.00000000000E+00 -0.00000000000E+00 -0.70915651936E+03  0.70915651936E+03  0.00000000000E+00 0.  1.
         25    2    1    2    0    0  0.20608239846E+02 -0.13724664184E+03 -0.47975613961E+03  0.51485367490E+03  0.12508802025E+03 0.  0.
          5    1    3    3  502    0 -0.32693814507E+02 -0.12677013915E+03 -0.36577177830E+03  0.38851772146E+03  0.41800000000E+01 0. -1.
         -5    1    3    3    0  502  0.53302054353E+02 -0.10476502696E+02 -0.11398436131E+03  0.12633595344E+03  0.41800000000E+01 0. -1.
        -11    1    1    2    0    0 -0.44612269826E+02  0.10919571400E+03 -0.16778014742E+03  0.20509543252E+03  0.00000000000E+00 0.  1.
         11    1    1    2    0    0  0.24004029981E+02  0.28050927844E+02 -0.12005291918E+02  0.38822352354E+02  0.00000000000E+00 0. -1.
</event>
<event>
 7    1  0.2820496E-009  0.1442194E+03  0.7561462E-02  0.1207762E+00
         -1   -1    0    0    0  501 -0.00000000000E+00  0.00000000000E+00  0.57137642208E+02  0.57137642208E+02  0.00000000000E+00 0.  1.
          1   -1    0    0  501    0  0.00000000000E+00 -0.00000000000E+00 -0.66068580922E+03  0.66068580922E+03  0.00000000000E+00 0. -1.
         25    2    1    2    0    0  0.86005129498E+02  0.41925498854E+02 -0.55437410014E+03  0.57631056926E+03  0.12509436269E+03 0.  0.
          5    1    3    3  502    0 -0.15315762731E+02  0.52296466984E+02 -0.22380741569E+03  0.23038386394E+03  0.41800000000E+01 0.  1.
         -5    1    3    3    0  502  0.10132089223E+03 -0.10370968130E+02 -0.33056668445E+03  0.34592670532E+03  0.41800000000E+01 0.  1.
        -11    1    1    2    0    0 -0.31232099105E+02  0.28739176086E+02 -0.23396231641E+02  0.48464088887E+02  0.00000000000E+00 0.  1.
         11    1    1    2    0    0 -0.54773030393E+02 -0.70664674940E+02 -0.25777835234E+02  0.93048793287E+02  0.00000000000E+00 0. -1.
</event>
<event>
 7    1  0.2820496E-009  0.1561361E+03  0.7561462E-02  0.1193129E+00
         -2   -1    0    0    0  501 -0.00000000000E+00  0.00000000000E+00  0.16149853307E+02  0.16149853307E+02  0.00000000000E+00 0.  1.
          2   -1    0    0  501    0  0.00000000000E+00 -0.00000000000E+00 -0.25678202747E+04  0.25678202747E+04  0.00000000000E+00 0. -1.
         25    2    1    2    0    0  0.13711332653E+03  0.35645528719E+02 -0.19576598365E+04  0.19667613605E+04  0.12509015135E+03 0.  0.
          5    1    3    3  502    0  0.22579367418E+02 -0.13923649002E+02 -0.10726020076E+04  0.10729381319E+04  0.41800000000E+01 0.  1.
         -5    1    3    3    0  502  0.11453395911E+03  0.49569177722E+02 -0.88505782889E+03  0.89382322863E+03  0.41800000000E+01 0.  1.
        -11    1    1    2    0    0 -0.14114320844E+03 -0.46789850308E+02 -0.58047866385E+03  0.59922130684E+03  0.00000000000E+00 0. -1.
         11    1    1    2    0    0  0.40298819143E+01  0.11144321588E+02 -0.13531921068E+02  0.17987460624E+02  0.00000000000E+00 0.  1.
</event>
<event>
 7    1  0.2820496E-009  0.2035546E+03  0.7561462E-02  0.1146774E+00
         -1   -1    0    0    0  501 -0.00000000000E+00  0.00000000000E+00  0.17167600355E+03  0.17167600355E+03  0.00000000000E+00 0.  1.
          1   -1    0    0  501    0  0.00000000000E+00 -0.00000000000E+00 -0.31563762536E+03  0.31563762536E+03  0.00000000000E+00 0. -1.
         25    2    1    2    0    0  0.94902829716E+02 -0.16643642670E+03 -0.15257988372E+03  0.27501933788E+03  0.12508950423E+03 0.  0.
          5    1    3    3  502    0  0.17316779258E+02 -0.10168611093E+03 -0.13874137004E+03  0.17293517907E+03  0.41800000000E+01 0.  1.
         -5    1    3    3    0  502  0.77586050458E+02 -0.64750315772E+02 -0.13838513686E+02  0.10208415881E+03  0.41800000000E+01 0.  1.
        -11    1    1    2    0    0  0.84276009735E+00  0.58276781439E+02 -0.25898354688E+02  0.63777882335E+02  0.00000000000E+00 0. -1.
         11    1    1    2    0    0 -0.95745589813E+02  0.10815964526E+03  0.34516616604E+02  0.14851640870E+03  0.00000000000E+00 0.  1.
</event>
<event>
 7    1  0.2820496E-009  0.8630529E+02  0.7561462E-02  0.1312054E+00
         -2   -1    0    0    0  501 -0.00000000000E+00  0.00000000000E+00  0.21688856099E+03  0.21688856099E+03  0.00000000000E+00 0.  1.
          2   -1    0    0  501    0  0.00000000000E+00 -0.00000000000E+00 -0.60404654927E+02  0.60404654927E+02  0.00000000000E+00 0. -1.
         25    2    1    2    0    0 -0.10223077987E+02  0.32362648146E+02  0.69465835410E+02  0.14703884560E+03  0.12507224915E+03 0.  0.
          5    1    3    3  502    0  0.36135973215E+02  0.49562931637E+01  0.83512671875E+02  0.91226159438E+02  0.41800000000E+01 0.  1.
         -5    1    3    3    0  502 -0.46359051202E+02  0.27406354982E+02 -0.14046836466E+02  0.55812686160E+02  0.41800000000E+01 0.  1.
        -11    1    1    2    0    0  0.35400710128E+02 -0.41993956558E+02  0.20750295727E+02  0.58713520059E+02  0.00000000000E+00 0. -1.
         11    1    1    2    0    0 -0.25177632141E+02  0.96313084124E+01  0.66267774923E+02  0.71540850255E+02  0.00000000000E+00 0.  1.
</event>
<event>
 7    1  0.2820496E-009  0.2475230E+03  0.7561462E-02  0.1114880E+00
         -1   -1    0    0    0  501 -0.00000000000E+00  0.00000000000E+00  0.54290618458E+02  0.54290618458E+02  0.00000000000E+00 0.  1.
          1   -1    0    0  501    0  0.00000000000E+00 -0.00000000000E+00 -0.13963615156E+04  0.13963615156E+04  0.00000000000E+00 0. -1.
         25    2    1    2    0    0 -0.16314057341E+03 -0.16446023209E+03 -0.95115839051E+03  0.98692017276E+03  0.12508848439E+03 0.  0.
          5    1    3    3  502    0  0.94848126757E+01 -0.61060969561E+02 -0.21465033404E+03  0.22340689779E+03  0.41800000000E+01 0.  1.
         -5    1    3    3    0  502 -0.17262538609E+03 -0.10339926253E+03 -0.73650805648E+03  0.76351327498E+03  0.41800000000E+01 0.  1.
        -11    1    1    2    0    0  0.52424816844E+02  0.59231652084E+02 -0.60044026294E+02  0.99307779772E+02  0.00000000000E+00 0.  1.
         11    1    1    2    0    0  0.11071575656E+03  0.10522858001E+03 -0.33086848037E+03  0.36442418156E+03  0.00000000000E+00 0. -1.
</event>
<event>
 7    1  0.2820496E-009  0.9853530E+02  0.7561462E-02  0.1283406E+00
          2   -1    0    0  501    0  0.00000000000E+00  0.00000000000E+00  0.13876444542E+03  0.13876444542E+03  0.00000000000E+00 0. -1.
         -2   -1    0    0    0  501 -0.00000000000E+00 -0.00000000000E+00 -0.95411491396E+02  0.95411491396E+02  0.00000000000E+00 0.  1.
         25    2    1    2    0    0  0.89018276729E+01  0.30270864919E+02  0.46983185550E+02  0.13729501993E+03  0.12508770912E+03 0.  0.
          5    1    3    3  502    0 -0.10423945435E+02 -0.38551823338E+02  0.51783149749E+02  0.65527617987E+02  0.41800000000E+01 0. -1.
         -5    1    3    3    0  502  0.19325773108E+02  0.68822688257E+02 -0.47999641991E+01  0.71767401942E+02  0.41800000000E+01 0. -1.
        -11    1    1    2    0    0  0.21852580082E+02 -0.45881699370E+02  0.20488702659E+02  0.54794639610E+02  0.00000000000E+00 0. -1.
         11    1    1    2    0    0 -0.30754407755E+02  0.15610834451E+02 -0.24118934187E+02  0.42086277276E+02  0.00000000000E+00 0.  1.
</event>
<event>
 7    1  0.2820496E-009  0.1770341E+03  0.7561462E-02  0.1170705E+00
         -2   -1    0    0    0  501 -0.00000000000E+00  0.00000000000E+00  0.77984128743E+02  0.77984128743E+02  0.00000000000E+00 0. -1.
          2   -1    0    0  501    0  0.00000000000E+00 -0.00000000000E+00 -0.45930089925E+03  0.45930089925E+03  0.00000000000E+00 0.  1.
         25    2    1    2    0    0 -0.12913119059E+03 -0.83538067893E+02 -0.17340091916E+03  0.26337923921E+03  0.12508905513E+03 0.  0.
          5    1    3    3  502    0 -0.31368212040E+01 -0.60117924826E+02 -0.96653330232E+02  0.11394447410E+03  0.41800000000E+01 0.  1.
         -5    1    3    3    0  502 -0.12599436939E+03 -0.23420143067E+02 -0.76747588926E+02  0.14943476512E+03  0.41800000000E+01 0.  1.
        -11    1    1    2    0    0  0.93634868389E+02  0.89477007535E+02 -0.19796345855E+03  0.23656532793E+03  0.00000000000E+00 0.  1.
         11    1    1    2    0    0  0.35496322204E+02 -0.59389396419E+01 -0.99523927951E+01  0.37340460849E+02  0.00000000000E+00 0. -1.
</event>
<event>
 7    1  0.2965195E-009  0.1422803E+03  0.7561462E-02  0.1210293E+00
         -2   -1    0    0    0  501 -0.00000000000E+00  0.00000000000E+00  0.67862298757E+02  0.67862298757E+02  0.00000000000E+00 0.  1.
          2   -1    0    0  501    0  0.00000000000E+00 -0.00000000000E+00 -0.37922866439E+03  0.37922866439E+03  0.00000000000E+00 0. -1.
         25    2    1    2    0    0  0.94408533507E+02  0.55614513962E+02 -0.22779684117E+03  0.28203704790E+03  0.12509016819E+03 0.  0.
          5    1    3    3  502    0  0.69673900639E+02  0.89670383944E+02 -0.20397680429E+03  0.23349355296E+03  0.41800000000E+01 0. -1.
         -5    1    3    3    0  502  0.24734632869E+02 -0.34055869982E+02 -0.23820036879E+02  0.48543494933E+02  0.41800000000E+01 0. -1.
        -11    1    1    2    0    0 -0.70150190297E+02 -0.24515757220E+01 -0.96917294873E+01  0.70858937635E+02  0.00000000000E+00 0.  1.
         11    1    1    2    0    0 -0.24258343210E+02 -0.53162938240E+02 -0.73877794982E+02  0.94194977621E+02  0.00000000000E+00 0. -1.
</event>
<event>
 7    1  0.2820496E-009  0.1150795E+03  0.7561462E-02  0.1251442E+00
          1   -1    0    0  501    0  0.00000000000E+00  0.00000000000E+00  0.45199394701E+03  0.45199394701E+03  0.00000000000E+00 0. -1.
         -1   -1    0    0    0  501 -0.00000000000E+00 -0.00000000000E+00 -0.41819426778E+02  0.41819426778E+02  0.00000000000E+00 0.  1.
         25    2    1    2    0    0  0.37619015468E+02 -0.60819851243E+02  0.30542267293E+03  0.33771087985E+03  0.12510549387E+03 0.  0.
          5    1    3    3  502    0 -0.61403112138E+01  0.35606420380E+02  0.56837796860E+02  0.67479835107E+02  0.41800000000E+01 0.  1.
         -5    1    3    3    0  502  0.43759326681E+02 -0.96426271624E+02  0.24858487607E+03  0.27023104474E+03  0.41800000000E+01 0.  1.
        -11    1    1    2    0    0 -0.17046722843E+02 -0.58643131571E+01 -0.10871458996E+02  0.21051592557E+02  0.00000000000E+00 0.  1.
         11    1    1    2    0    0 -0.20572292624E+02  0.66684164400E+02  0.11562330630E+03  0.13505090138E+03  0.00000000000E+00 0. -1.
</event>
<event>
 7    1  0.2820496E-009  0.2144858E+03  0.7561462E-02  0.1138062E+00
          2   -1    0    0  501    0  0.00000000000E+00  0.00000000000E+00  0.11737589193E+04  0.11737589193E+04  0.00000000000E+00 0. -1.
         -2   -1    0    0    0  501 -0.00000000000E+00 -0.00000000000E+00 -0.42789849699E+02  0.42789849699E+02  0.00000000000E+00 0.  1.
         25    2    1    2    0    0  0.27864892072E+02 -0.19168236636E+03  0.65526581523E+03  0.69465044482E+03  0.12508944838E+03 0.  0.
          5    1    3    3  502    0 -0.42479932618E+02 -0.78282951279E+02  0.17831330817E+03  0.19936367123E+03  0.41800000000E+01 0. -1.
         -5    1    3    3    0  502  0.70344824689E+02 -0.11339941508E+03  0.47695250707E+03  0.49528677359E+03  0.41800000000E+01 0. -1.
        -11    1    1    2    0    0 -0.47698088670E+02  0.17146111509E+03  0.34543472684E+03  0.38858611936E+03  0.00000000000E+00 0.  1.
         11    1    1    2    0    0  0.19833196598E+02  0.20221251272E+02  0.13026852757E+03  0.13331220486E+03  0.00000000000E+00 0. -1.
</event>
<event>
 6    1  0.2820496E-009  0.9714782E+02  0.7561462E-02  0.1286411E+00
          2   -1    0    0  501    0  0.00000000000E+00  0.00000000000E+00  0.67551019265E+02  0.67551019265E+02  0.00000000000E+00 0.  1.
         -2   -1    0    0    0  501 -0.00000000000E+00 -0.00000000000E+00 -0.24494826709E+03  0.24494826709E+03  0.00000000000E+00 0. -1.
          5    1    1    2  502    0  0.27150202772E+02  0.14535174072E+02  0.31434954103E+02  0.44204451533E+02  0.41800000000E+01 0.  1.
         -5    1    1    2    0  502 -0.24272003240E+02 -0.60555418722E+02 -0.68334012584E+02  0.94567957331E+02  0.41800000000E+01 0.  1.
        -11    1    1    2    0    0  0.29525092440E+02  0.56532994542E+02 -0.11376781867E+03  0.13042556161E+03  0.00000000000E+00 0.  1.
         11    1    1    2    0    0 -0.32403291972E+02 -0.10512749892E+02 -0.26730370674E+02  0.43301315884E+02  0.00000000000E+00 0. -1.
</event>
<event>
 7    1  0.2820496E-009  0.1215239E+03  0.7561462E-02  0.1240604E+00
          2   -1    0    0  501    0  0.00000000000E+00  0.00000000000E+00  0.95705258262E+03  0.95705258262E+03  0.00000000000E+00 0.  1.
         -2   -1    0    0    0  501 -0.00000000000E+00 -0.00000000000E+00 -0.21010305349E+02  0.21010305349E+02  0.00000000000E+00 0. -1.
         25    2    1    2    0    0 -0.54688921457E+02  0.67155298890E+02  0.48452359073E+03  0.50785156447E+03  0.12509751902E+03 0.  0.
          5    1    3    3  502    0  0.19960713553E+02  0.49868134026E+02  0.33976706771E+03  0.34401219975E+03  0.41800000000E+01 0.  1.
         -5    1    3    3    0  502 -0.74649635011E+02  0.17287164864E+02  0.14475652302E+03  0.16383936472E+03  0.41800000000E+01 0.  1.
        -11    1    1    2    0    0 -0.26795476013E+01 -0.53360953095E+02  0.96325017031E+02  0.11015026190E+03  0.00000000000E+00 0. -1.
         11    1    1    2    0    0  0.57368469059E+02 -0.13794345796E+02  0.35519366951E+03  0.36006106160E+03  0.00000000000E+00 0.  1.
</event>
<event>
 7    1  0.2820496E-009  0.7474038E+02  0.7561462E-02  0.1344677E+00
          2   -1    0    0  501    0  0.00000000000E+00  0.00000000000E+00  0.56559448023E+03  0.56559448023E+03  0.00000000000E+00 0. -1.
         -2   -1    0    0    0  501 -0.00000000000E+00 -0.00000000000E+00 -0.29440080707E+02  0.29440080707E+02  0.00000000000E+00 0.  1.
         25    2    1    2    0    0  0.20024993554E+02  0.25949281699E+02  0.43994423634E+03  0.45855671607E+03  0.12509582399E+03 0.  0.
          5    1    3    3  502    0  0.47561823098E+02  0.39371163384E+02  0.41280398156E+03  0.41741683616E+03  0.41800000000E+01 0. -1.
         -5    1    3    3    0  502 -0.27536829545E+02 -0.13421881685E+02  0.27140254783E+02  0.41139879910E+02  0.41800000000E+01 0. -1.
        -11    1    1    2    0    0 -0.32263824997E+02 -0.53305504248E+01  0.10573605917E+03  0.11067738423E+03  0.00000000000E+00 0. -1.
         11    1    1    2    0    0  0.12238831443E+02 -0.20618731274E+02 -0.95258959892E+01  0.25800460632E+02  0.00000000000E+00 0.  1.
</event>
<event>
 7    1  0.2820496E-009  0.1439904E+03  0.7561462E-02  0.1208058E+00
          3   -1    0    0  501    0  0.00000000000E+00  0.00000000000E+00  0.20648562808E+03  0.20648562808E+03  0.00000000000E+00 0. -1.
         -3   -1    0    0    0  501 -0.00000000000E+00 -0.00000000000E+00 -0.39779091493E+03  0.39779091493E+03  0.00000000000E+00 0.  1.
         25    2    1    2    0    0  0.75822581739E+02  0.74473874395E+02  0.15810584367E+03  0.22790212539E+03  0.12508596678E+03 0.  0.
          5    1    3    3  502    0  0.10253339355E+03  0.60850655977E+02  0.15754796998E+03  0.19762270712E+03  0.41800000000E+01 0.  1.
         -5    1    3    3    0  502 -0.26710811811E+02  0.13623218418E+02  0.55787369727E+00  0.30279418269E+02  0.41800000000E+01 0.  1.
        -11    1    1    2    0    0 -0.50718050427E+02  0.87568694359E+01 -0.15736834394E+03  0.16557112996E+03  0.00000000000E+00 0.  1.
         11    1    1    2    0    0 -0.25104531313E+02 -0.83230743831E+02 -0.19204278657E+03  0.21080328765E+03  0.00000000000E+00 0. -1.
</event>
<event>
 7    1  0.2820496E-009  0.1079292E+03  0.7561462E-02  0.1264453E+00
          2   -1    0    0  501    0  0.00000000000E+00  0.00000000000E+00  0.47190348627E+03  0.47190348627E+03  0.00000000000E+00 0. -1.
         -2   -1    0    0    0  501 -0.00000000000E+00 -0.00000000000E+00 -0.25818523248E+02  0.25818523248E+02  0.00000000000E+00 0.  1.
         25    2    1    2    0    0 -0.75570125874E+01  0.17031608477E+02  0.23636127889E+03  0.26806716906E+03  0.12508464673E+03 0.  0.
          5    1    3    3  502    0  0.49221165188E+02  0.38077061470E+02  0.88846263281E+02  0.10855282867E+03  0.41800000000E+01 0. -1.
         -5    1    3    3    0  502 -0.56778177775E+02 -0.21045452994E+02  0.14751501560E+03  0.15951434040E+03  0.41800000000E+01 0. -1.
        -11    1    1    2    0    0  0.21785947628E+02  0.33684996228E+02  0.76157614216E+02  0.86077225141E+02  0.00000000000E+00 0.  1.
         11    1    1    2    0    0 -0.14228935041E+02 -0.50716604705E+02  0.13356606992E+03  0.14357761532E+03  0.00000000000E+00 0. -1.
</event>
<event>
 7    1  0.2820496E-009  0.1241499E+03  0.7561462E-02  0.1236404E+00
         -2   -1    0    0    0  501 -0.00000000000E+00  0.00000000000E+00  0.19775796595E+03  0.19775796595E+03  0.00000000000E+00 0.  1.
          2   -1    0    0  501    0  0.00000000000E+00 -0.00000000000E+00 -0.97123926510E+02  0.97123926510E+02  0.00000000000E+00 0. -1.
         25    2    1    2    0    0 -0.44463962456E+02 -0.73498497548E+02  0.62955599929E+02  0.16429657007E+03  0.12510348626E+03 0.  0.
          5    1    3    3  502    0 -0.48084359142E+02  0.87548732334E+01  0.65483478645E+02  0.81818773976E+02  0.41800000000E+01 0. -1.
         -5    1    3    3    0  502  0.36203966859E+01 -0.82253370782E+02 -0.25278787165E+01  0.82477796090E+02  0.41800000000E+01 0. -1.
        -11    1    1    2    0    0  0.59206395774E+02  0.21872004224E+02  0.43388959228E+02  0.76592321105E+02  0.00000000000E+00 0.  1.
         11    1    1    2    0    0 -0.14742433318E+02  0.51626493324E+02 -0.57105197149E+01  0.53993001292E+02  0.00000000000E+00 0. -1.
</event>
<event>
 7    1  0.2820496E-009  0.1405640E+03  0.7561462E-02  0.1212572E+00
         -2   -1    0    0    0  501 -0.00000000000E+00  0.00000000000E+00  0.63716451934E+02  0.63716451934E+02  0.00000000000E+00 0.  1.
          2   -1    0    0  501    0  0.00000000000E+00 -0.00000000000E+00 -0.47489726805E+03  0.47489726805E+03  0.00000000000E+00 0. -1.
         25    2    1    2    0    0 -0.92963001480E+02 -0.34071667796E+02 -0.35221122202E+03  0.38665725450E+03  0.12509232331E+03 0.  0.
          5    1    3    3  502    0  0.22886675016E+02 -0.73103889718E+01 -0.15058057725E+03  0.15254253284E+03  0.41800000000E+01 0.  1.
         -5    1    3    3    0  502 -0.11584967650E+03 -0.26761278825E+02 -0.20163064477E+03  0.23411472166E+03  0.41800000000E+01 0.  1.
        -11    1    1    2    0    0  0.30487918351E+01 -0.28219567948E+02 -0.23848624244E+02  0.37072847546E+02  0.00000000000E+00 0. -1.
         11    1    1    2    0    0  0.89914209645E+02  0.62291235745E+02 -0.35120969851E+02  0.11488361794E+03  0.00000000000E+00 0.  1.
</event>
<event>
 7    1  0.2911615E-009  0.1901852E+03  0.7561462E-02  0.1158294E+00
         -2   -1    0    0    0  501 -0.00000000000E+00  0.00000000000E+00  0.30872582805E+02  0.30872582805E+02  0.00000000000E+00 0.  1.
          2   -1    0    0  501    0  0.00000000000E+00 -0.00000000000E+00 -0.15983380483E+04  0.15983380483E+04  0.00000000000E+00 0. -1.
         25    2    1    2    0    0 -0.11146519511E+03 -0.12909385805E+03 -0.11473265871E+04  0.11666600320E+04  0.12509044282E+03 0.  0.
          5    1    3    3  502    0 -0.75048037692E+01 -0.75278301448E+02 -0.70594494837E+03  0.70999921640E+03  0.41800000000E+01 0.  1.
         -5    1    3    3    0  502 -0.10396039134E+03 -0.53815556602E+02 -0.44138163869E+03  0.45666081556E+03  0.41800000000E+01 0.  1.
        -11    1    1    2    0    0  0.10756697814E+03  0.70210212467E+02 -0.33654238353E+03  0.36022340934E+03  0.00000000000E+00 0. -1.
         11    1    1    2    0    0  0.38982169698E+01  0.58883645583E+02 -0.83596494855E+02  0.10232718976E+03  0.00000000000E+00 0.  1.
</event>
<event>
 7    1  0.2820496E-009  0.1396567E+03  0.7561462E-02  0.1213792E+00
         -4   -1    0    0    0  501 -0.00000000000E+00  0.00000000000E+00  0.15083405122E+03  0.15083405122E+03  0.00000000000E+00 0.  1.
          4   -1    0    0  501    0  0.00000000000E+00 -0.00000000000E+00 -0.18325624979E+03  0.18325624979E+03  0.00000000000E+00 0. -1.
         25    2    1    2    0    0  0.81759623851E+02 -0.93042215942E+02 -0.38236887956E+02  0.18014185717E+03  0.12509012377E+03 0.  0.
          5    1    3    3  502    0  0.11761471962E+02 -0.34498685269E+02 -0.73560370669E+02  0.82201533081E+02  0.41800000000E+01 0.  1.
         -5    1    3    3    0  502  0.69998151889E+02 -0.58543530673E+02  0.35323482713E+02  0.97940324088E+02  0.41800000000E+01 0.  1.
        -11    1    1    2    0    0 -0.12670149425E+02  0.79963325287E+02 -0.10848579556E+02  0.81684501319E+02  0.00000000000E+00 0. -1.
         11    1    1    2    0    0 -0.69089474426E+02  0.13078890655E+02  0.16663268937E+02  0.72263942522E+02  0.00000000000E+00 0.  1.
</event>
<event>
 7    1  0.2820496E-009  0.1214450E+03  0.7561462E-02  0.1240732E+00
         -2   -1    0    0    0  501 -0.00000000000E+00  0.00000000000E+00  0.23784998589E+02  0.23784998589E+02  0.00000000000E+00 0.  1.
          2   -1    0    0  501    0  0.00000000000E+00 -0.00000000000E+00 -0.93970858839E+03  0.93970858839E+03  0.00000000000E+00 0. -1.
         25    2    1    2    0    0 -0.61150187810E+01  0.85390780317E+02 -0.67556131898E+03  0.69235799583E+03  0.12509004710E+03 0.  0.
          5    1    3    3  502    0 -0.21195009186E+02  0.96300787171E+02 -0.66108307670E+03  0.66840958755E+03  0.41800000000E+01 0. -1.
         -5    1    3    3    0  502  0.15079990405E+02 -0.10910006854E+02 -0.14478242274E+02  0.23948408288E+02  0.41800000000E+01 0. -1.
        -11    1    1    2    0    0 -0.36363881169E+02 -0.86067825082E+01 -0.81205326350E+02  0.89390791396E+02  0.00000000000E+00 0. -1.
         11    1    1    2    0    0  0.42478899950E+02 -0.76783997809E+02 -0.15915694448E+03  0.18174479975E+03  0.00000000000E+00 0.  1.
</event>
<event>
 7    1  0.2820496E-009  0.6105663E+02  0.7561462E-02  0.1393450E+00
          1   -1    0    0  501    0  0.00000000000E+00  0.00000000000E+00  0.10550593292E+03  0.10550593292E+03  0.00000000000E+00 0. -1.
         -1   -1    0    0    0  501 -0.00000000000E+00 -0.00000000000E+00 -0.22303632908E+03  0.22303632908E+03  0.00000000000E+00 0.  1.
         25    2    1    2    0    0  0.20744390430E+02  0.24413174095E+02 -0.17909177710E+03  0.22078748730E+03  0.12508763776E+03 0.  0.
          5    1    3    3  502    0  0.34010297860E+02  0.42279016956E+02 -0.16845410059E+02  0.56968902705E+02  0.41800000000E+01 0. -1.
         -5    1    3    3    0  502 -0.13265907430E+02 -0.17865842861E+02 -0.16224636704E+03  0.16381858460E+03  0.41800000000E+01 0. -1.
        -11    1    1    2    0    0 -0.10946947085E+02 -0.31244229473E+02  0.79548900862E+02  0.86163015002E+02  0.00000000000E+00 0. -1.
         11    1    1    2    0    0 -0.97974433452E+01  0.68310553783E+01 -0.17987519927E+02  0.21591759697E+02  0.00000000000E+00 0.  1.
</event>
<event>
 7    1  0.2820496E-009  0.1186985E+03  0.7561462E-02  0.1245260E+00
         -1   -1    0    0    0  501 -0.00000000000E+00  0.00000000000E+00  0.17999736490E+03  0.17999736490E+03  0.00000000000E+00 0.  1.
          1   -1    0    0  501    0  0.00000000000E+00 -0.00000000000E+00 -0.10617715209E+03  0.10617715209E+03  0.00000000000E+00 0. -1.
         25    2    1    2    0    0  0.14786905942E+02  0.52418264987E+02 -0.24105087712E+02  0.13854736153E+03  0.12509192237E+03 0.  0.
          5    1    3    3  502    0 -0.32254767447E+02 -0.27959102286E+02 -0.12018200864E+02  0.44542013602E+02  0.41800000000E+01 0. -1.
         -5    1    3    3    0  502  0.47041673389E+02  0.80377367273E+02 -0.12086886849E+02  0.94005347926E+02  0.41800000000E+01 0. -1.
        -11    1    1    2    0    0 -0.45712844600E+02 -0.68690214302E+01  0.74758149032E+02  0.87895554288E+02  0.00000000000E+00 0.  1.
         11    1    1    2    0    0  0.30925938658E+02 -0.45549243556E+02  0.23167151495E+02  0.59731601174E+02  0.00000000000E+00 0. -1.
</event>
<event>
 7    1  0.2820496E-009  0.1003576E+03  0.7561462E-02  0.1279546E+00
          1   -1    0    0  501    0  0.00000000000E+00  0.00000000000E+00  0.24821589957E+03  0.24821589957E+03  0.00000000000E+00 0. -1.
         -1   -1    0    0    0  501 -0.00000000000E+00 -0.00000000000E+00 -0.76888264236E+02  0.76888264236E+02  0.00000000000E+00 0.  1.
         25    2    1    2    0    0  0.13581216744E+02 -0.55723579177E+02  0.22676096309E+02  0.13946931014E+03  0.12509163202E+03 0.  0.
          5    1    3    3  502    0 -0.85356416966E+01  0.39056515979E+02  0.68839680680E+01  0.40781491340E+02  0.41800000000E+01 0.  1.
         -5    1    3    3    0  502  0.22116858440E+02 -0.94780095156E+02  0.15792128241E+02  0.98687818799E+02  0.41800000000E+01 0.  1.
        -11    1    1    2    0    0  0.79843966971E+01  0.16915704210E+02 -0.97745994935E+01  0.21105317690E+02  0.00000000000E+00 0.  1.
         11    1    1    2    0    0 -0.21565613441E+02  0.38807874967E+02  0.15842613852E+03  0.16452953598E+03  0.00000000000E+00 0. -1.
</event>
<event>
 7    1  0.2820496E-009  0.6651267E+02  0.7561462E-02  0.1372370E+00
         -2   -1    0    0    0  501 -0.00000000000E+00  0.00000000000E+00  0.25799943268E+02  0.25799943268E+02  0.00000000000E+00 0.  1.
          2   -1    0    0  501    0  0.00000000000E+00 -0.00000000000E+00 -0.64389737408E+03  0.64389737408E+03  0.00000000000E+00 0. -1.
         25    2    1    2    0    0  0.38315622255E+02 -0.30354680874E+02 -0.48031762631E+03  0.49874156217E+03  0.12509448479E+03 0.  0.
          5    1    3    3  502    0  0.84056983388E+01 -0.18118573688E+01  0.55801167116E+01  0.11070171372E+02  0.41800000000E+01 0.  1.
         -5    1    3    3    0  502  0.29909923916E+02 -0.28542823505E+02 -0.48589774303E+03  0.48767139080E+03  0.41800000000E+01 0.  1.
        -11    1    1    2    0    0 -0.26636956309E+02  0.51371289830E+02 -0.40205728102E+02  0.70463021737E+02  0.00000000000E+00 0.  1.
         11    1    1    2    0    0 -0.11678665946E+02 -0.21016608955E+02 -0.97574076392E+02  0.10049273344E+03  0.00000000000E+00 0. -1.
</event>
<event>
 7    1  0.2820496E-009  0.1201395E+03  0.7561462E-02  0.1242867E+00
          2   -1    0    0  501    0  0.00000000000E+00  0.00000000000E+00  0.20856166149E+03  0.20856166149E+03  0.00000000000E+00 0. -1.
         -2   -1    0    0    0  501 -0.00000000000E+00 -0.00000000000E+00 -0.12476408771E+03  0.12476408771E+03  0.00000000000E+00 0.  1.
         25    2    1    2    0    0  0.42556624296E+02  0.71620919369E+02 -0.42465991408E+02  0.15617764496E+03  0.12508986369E+03 0.  0.
          5    1    3    3  502    0  0.29009204370E+02  0.10224311811E+03 -0.55539436487E+02  0.11998871007E+03  0.41800000000E+01 0. -1.
         -5    1    3    3    0  502  0.13547419926E+02 -0.30622198741E+02  0.13073445079E+02  0.36188934892E+02  0.41800000000E+01 0. -1.
        -11    1    1    2    0    0 -0.42661292472E+02 -0.17595525705E+02  0.11220388223E+03  0.12132312058E+03  0.00000000000E+00 0. -1.
         11    1    1    2    0    0  0.10466817560E+00 -0.54025393665E+02  0.14059682955E+02  0.55824983662E+02  0.00000000000E+00 0.  1.
</event>
<event>
 7    1  0.2820496E-009  0.1467520E+03  0.7561462E-02  0.1204522E+00
         -2   -1    0    0    0  501 -0.00000000000E+00  0.00000000000E+00  0.38645763632E+02  0.38645763632E+02  0.00000000000E+00 0.  1.
          2   -1    0    0  501    0  0.00000000000E+00 -0.00000000000E+00 -0.71867340998E+03  0.71867340998E+03  0.00000000000E+00 0. -1.
         25    2    1    2    0    0 -0.96529449666E+02  0.42538097918E+02 -0.20810704683E+03  0.26472933952E+03  0.12508259606E+03 0.  0.
          5    1    3    3  502    0 -0.11786872769E+03  0.17039769734E+02 -0.19543728281E+03  0.22890302451E+03  0.41800000000E+01 0. -1.
         -5    1    3    3    0  502  0.21339278026E+02  0.25498328184E+02 -0.12669764023E+02  0.35826315011E+02  0.41800000000E+01 0. -1.
        -11    1    1    2    0    0  0.11366520275E+03 -0.47186320211E+02 -0.42334492335E+03  0.44087101431E+03  0.00000000000E+00 0.  1.
         11    1    1    2    0    0 -0.17135753084E+02  0.46482222928E+01 -0.48575676167E+02  0.51718819778E+02  0.00000000000E+00 0. -1.
</event>
<event>
 7    1  0.2820496E-009  0.9151930E+02  0.7561462E-02  0.1299214E+00
         -1   -1    0    0    0  501 -0.00000000000E+00  0.00000000000E+00  0.44843936694E+02  0.44843936694E+02  0.00000000000E+00 0.  1.
          1   -1    0    0  501    0  0.00000000000E+00 -0.00000000000E+00 -0.29999017773E+03  0.29999017773E+03  0.00000000000E+00 0. -1.
         25    2    1    2    0    0  0.74670013507E+01 -0.23013266099E+02 -0.20118588733E+03  0.23813371919E+03  0.12508613205E+03 0.  0.
          5    1    3    3  502    0  0.16843730643E+02 -0.55375905055E+02 -0.33420377501E+02  0.66967127420E+02  0.41800000000E+01 0.  1.
         -5    1    3    3    0  502 -0.93767292921E+01  0.32362638956E+02 -0.16776550983E+03  0.17116659177E+03  0.41800000000E+01 0.  1.
        -11    1    1    2    0    0 -0.78501537330E+01 -0.33567343033E+02 -0.12974857360E+02  0.36833929406E+02  0.00000000000E+00 0.  1.
         11    1    1    2    0    0  0.38315238229E+00  0.56580609132E+02 -0.40985496344E+02  0.69866465819E+02  0.00000000000E+00 0. -1.
</event>
<event>
 7    1  0.2820496E-009  0.1062884E+03  0.7561462E-02  0.1267602E+00
          1   -1    0    0  501    0  0.00000000000E+00  0.00000000000E+00  0.52494232381E+02  0.52494232381E+02  0.00000000000E+00 0. -1.
         -1   -1    0    0    0  501 -0.00000000000E+00 -0.00000000000E+00 -0.31670461564E+03  0.31670461564E+03  0.00000000000E+00 0.  1.
         25    2    1    2    0    0  0.46484212840E+02  0.56649990686E+01 -0.80279058905E+02  0.15583919247E+03  0.12509297484E+03 0.  0.
          5    1    3    3  502    0  0.56710215247E+02 -0.45272452789E+02 -0.73342276215E+02  0.10325795551E+03  0.41800000000E+01 0.  1.
         -5    1    3    3    0  502 -0.10226002407E+02  0.50937451857E+02 -0.69367826906E+01  0.52581236967E+02  0.41800000000E+01 0.  1.
        -11    1    1    2    0    0  0.44113801963E+01  0.26958021673E+02 -0.12839538406E+03  0.13126907426E+03  0.00000000000E+00 0.  1.
         11    1    1    2    0    0 -0.50895593036E+02 -0.32623020741E+02 -0.55535940291E+02  0.82090581291E+02  0.00000000000E+00 0. -1.
</event>
<event>
 7    1  0.2820496E-009  0.1379606E+03  0.7561462E-02  0.1216100E+00
          1   -1    0    0  501    0  0.00000000000E+00  0.00000000000E+00  0.52356120266E+03  0.52356120266E+03  0.00000000000E+00 0. -1.
         -1   -1    0    0    0  501 -0.00000000000E+00 -0.00000000000E+00 -0.48396310930E+02  0.48396310930E+02  0.00000000000E+00 0.  1.
         25    2    1    2    0    0 -0.30317135094E+02 -0.81472797651E+02  0.11601687465E+03  0.19147242458E+03  0.12507928979E+03 0.  0.
          5    1    3    3  502    0 -0.81048881627E+01  0.33714033157E+02  0.27630951714E+02  0.44533887507E+02  0.41800000000E+01 0. -1.
         -5    1    3    3    0  502 -0.22212246932E+02 -0.11518683081E+03  0.88385922932E+02  0.14693853708E+03  0.41800000000E+01 0. -1.
        -11    1    1    2    0    0  0.29452192216E+02 -0.10774243995E+02  0.12359677592E+03  0.12751344626E+03  0.00000000000E+00 0. -1.
         11    1    1    2    0    0  0.86494287819E+00  0.92247041646E+02  0.23555124116E+03  0.25297164274E+03  0.00000000000E+00 0.  1.
</event>
<event>
 7    1  0.2820496E-009  0.1748537E+03  0.7561462E-02  0.1172879E+00
          2   -1    0    0  501    0  0.00000000000E+00  0.00000000000E+00  0.45797158063E+03  0.45797158063E+03  0.00000000000E+00 0. -1.
         -2   -1    0    0    0  501 -0.00000000000E+00 -0.00000000000E+00 -0.89341851453E+02  0.89341851453E+02  0.00000000000E+00 0.  1.
         25    2    1    2    0    0  0.71582005345E+02  0.13018501188E+03  0.30557554357E+03  0.36207176522E+03  0.12508968596E+03 0.  0.
          5    1    3    3  502    0  0.27559520449E+02 -0.21959252320E+02  0.48554282021E+02  0.60139227069E+02  0.41800000000E+01 0. -1.
         -5    1    3    3    0  502  0.44022484896E+02  0.15214426420E+03  0.25702126155E+03  0.30193253815E+03  0.41800000000E+01 0. -1.
        -11    1    1    2    0    0 -0.22136957070E+01 -0.48777789963E+02  0.61173866247E+02  0.78271419777E+02  0.00000000000E+00 0. -1.
         11    1    1    2    0    0 -0.69368309638E+02 -0.81407221917E+02  0.18803193667E+01  0.10697024709E+03  0.00000000000E+00 0.  1.
</event>
<event>
 7    1  0.2820496E-009  0.1902029E+03  0.7561462E-02  0.1158278E+00
         -2   -1    0    0    0  501 -0.00000000000E+00  0.00000000000E+00  0.58587953293E+02  0.58587953293E+02  0.00000000000E+00 0.  1.
          2   -1    0    0  501    0  0.00000000000E+00 -0.00000000000E+00 -0.75379614924E+03  0.75379614924E+03  0.00000000000E+00 0. -1.
         25    2    1    2    0    0 -0.10322874386E+03  0.14799487303E+03 -0.38512232193E+03  0.44331309282E+03  0.12509452192E+03 0.  0.
          5    1    3    3  502    0 -0.41155676444E+02  0.26488500834E+02 -0.23636159952E+03  0.24141190630E+03  0.41800000000E+01 0. -1.
         -5    1    3    3    0  502 -0.62073067416E+02  0.12150637220E+03 -0.14876072241E+03  0.20190118651E+03  0.41800000000E+01 0. -1.
        -11    1    1    2    0    0  0.56404200147E+02 -0.22315574341E+02 -0.60157382305E+02  0.85430259851E+02  0.00000000000E+00 0.  1.
         11    1    1    2    0    0  0.46824543714E+02 -0.12567929869E+03 -0.24992849172E+03  0.28364074987E+03  0.00000000000E+00 0. -1.
</event>
<event>
 7    1  0.2820496E-009  0.9084227E+02  0.7561462E-02  0.1300825E+00
         -2   -1    0    0    0  501 -0.00000000000E+00  0.00000000000E+00  0.12886057590E+03  0.12886057590E+03  0.00000000000E+00 0.  1.
          2   -1    0    0  501    0  0.00000000000E+00 -0.00000000000E+00 -0.12250801587E+03  0.12250801587E+03  0.00000000000E+00 0. -1.
         25    2    1    2    0    0 -0.21006695778E+02 -0.19773370529E+02  0.48611968888E+02  0.13727274291E+03  0.12509362485E+03 0.  0.
          5    1    3    3  502    0  0.29676935909E+02 -0.36646186373E+02  0.65747557665E+02  0.81017758792E+02  0.41800000000E+01 0.  1.
         -5    1    3    3    0  502 -0.50683631687E+02  0.16872815845E+02 -0.17135588778E+02  0.56254984119E+02  0.41800000000E+01 0.  1.
        -11    1    1    2    0    0  0.91475349823E+01  0.48672399908E+02  0.12477925083E+02  0.51072287235E+02  0.00000000000E+00 0.  1.
         11    1    1    2    0    0  0.11859160795E+02 -0.28899029379E+02 -0.54737333938E+02  0.63023561630E+02  0.00000000000E+00 0. -1.
</event>
<event>
 7    1  0.2820496E-009  0.9880256E+02  0.7561462E-02  0.1282834E+00
          2   -1    0    0  501    0  0.00000000000E+00  0.00000000000E+00  0.69108535751E+02  0.69108535751E+02  0.00000000000E+00 0. -1.
         -2   -1    0    0    0  501 -0.00000000000E+00 -0.00000000000E+00 -0.17805012200E+03  0.17805012200E+03  0.00000000000E+00 0.  1.
         25    2    1    2    0    0 -0.25771958124E+01  0.22840913495E+02 -0.73936783555E+02  0.14711371999E+03  0.12508976529E+03 0.  0.
          5    1    3    3  502    0 -0.97479264863E+01 -0.51391258694E+02 -0.29397440515E+02  0.60147863219E+02  0.41800000000E+01 0.  1.
         -5    1    3    3    0  502  0.71707306740E+01  0.74232172189E+02 -0.44539343039E+02  0.86965856775E+02  0.41800000000E+01 0.  1.
        -11    1    1    2    0    0 -0.31904262328E+02 -0.13989671059E+02 -0.50392946277E+02  0.61262075425E+02  0.00000000000E+00 0.  1.
         11    1    1    2    0    0  0.34481458140E+02 -0.88512424364E+01  0.15388143578E+02  0.38782862335E+02  0.00000000000E+00 0. -1.
</event>
<event>
 7    1  0.2820496E-009  0.1263695E+03  0.7561462E-02  0.1232944E+00
          4   -1    0    0  501    0  0.00000000000E+00  0.00000000000E+00  0.64429093615E+02  0.64429093615E+02  0.00000000000E+00 0. -1.
         -4   -1    0    0    0  501 -0.00000000000E+00 -0.00000000000E+00 -0.32156433745E+03  0.32156433745E+03  0.00000000000E+00 0.  1.
         25    2    1    2    0    0  0.34031325771E+01  0.90121654384E+02 -0.20177583782E+03  0.25395777931E+03  0.12509025159E+03 0.  0.
          5    1    3    3  502    0  0.13576076660E+02  0.11272643994E+03 -0.10759278456E+03  0.15647760162E+03  0.41800000000E+01 0. -1.
         -5    1    3    3    0  502 -0.10172944083E+02 -0.22604785552E+02 -0.94183053260E+02  0.97480177691E+02  0.41800000000E+01 0. -1.
        -11    1    1    2    0    0 -0.35098018992E+02 -0.30670756350E+02 -0.43247046952E+02  0.63583593028E+02  0.00000000000E+00 0.  1.
         11    1    1    2    0    0  0.31694886415E+02 -0.59450898034E+02 -0.12112359057E+02  0.68452058726E+02  0.00000000000E+00 0. -1.
</event>
<event>
 7    1  0.2820496E-009  0.1007186E+03  0.7561462E-02  0.1278792E+00
          2   -1    0    0  501    0  0.00000000000E+00  0.00000000000E+00  0.47501050835E+03  0.47501050835E+03  0.00000000000E+00 0. -1.
         -2   -1    0    0    0  501 -0.00000000000E+00 -0.00000000000E+00 -0.24523224462E+02  0.24523224462E+02  0.00000000000E+00 0.  1.
         25    2    1    2    0    0  0.21361096893E+01  0.74182968582E+01  0.27293588964E+03  0.30033387955E+03  0.12508735052E+03 0.  0.
          5    1    3    3  502    0 -0.11671345155E+02 -0.50372053733E+02  0.60447941897E+02  0.79655446609E+02  0.41800000000E+01 0. -1.
         -5    1    3    3    0  502  0.13807454845E+02  0.57790350591E+02  0.21248794774E+03  0.22067843294E+03  0.41800000000E+01 0. -1.
        -11    1    1    2    0    0  0.58937087803E+01  0.40745597533E+02  0.73021230603E+02  0.83827439662E+02  0.00000000000E+00 0.  1.
         11    1    1    2    0    0 -0.80298184696E+01 -0.48163894391E+02  0.10453016365E+03  0.11537241360E+03  0.00000000000E+00 0. -1.
</event>
<event>
 7    1  0.2820496E-009  0.1135669E+03  0.7561462E-02  0.1254104E+00
          4   -1    0    0  501    0  0.00000000000E+00  0.00000000000E+00  0.34563059851E+03  0.34563059851E+03  0.00000000000E+00 0. -1.
         -4   -1    0    0    0  501 -0.00000000000E+00 -0.00000000000E+00 -0.51373684624E+02  0.51373684624E+02  0.00000000000E+00 0.  1.
         25    2    1    2    0    0  0.74227835963E+02  0.21093390814E+02  0.16648633315E+03  0.22208081467E+03  0.12508991306E+03 0.  0.
          5    1    3    3  502    0 -0.99166792041E+01 -0.20276110184E+02 -0.77041332773E+01  0.24213369038E+02  0.41800000000E+01 0. -1.
         -5    1    3    3    0  502  0.84144515168E+02  0.41369500998E+02  0.17419046643E+03  0.19786744563E+03  0.41800000000E+01 0. -1.
        -11    1    1    2    0    0 -0.52630629885E+01  0.26183820899E+02  0.62723895535E+01  0.27434197266E+02  0.00000000000E+00 0.  1.
         11    1    1    2    0    0 -0.68964772975E+02 -0.47277211714E+02  0.12149819118E+03  0.14748927120E+03  0.00000000000E+00 0. -1.
</event>
<event>
 7    1  0.2820496E-009  0.2492621E+03  0.7561462E-02  0.1113772E+00
         -2   -1    0    0    0  501 -0.00000000000E+00  0.00000000000E+00  0.11959874302E+04  0.11959874302E+04  0.00000000000E+00 0.  1.
          2   -1    0    0  501    0  0.00000000000E+00 -0.00000000000E+00 -0.94903792086E+02  0.94903792086E+02  0.00000000000E+00 0. -1.
         25    2    1    2    0    0 -0.19380461715E+03  0.14357378927E+03  0.15916123375E+03  0.31488617304E+03  0.12508933229E+03 0.  0.
          5    1    3    3  502    0 -0.11443550144E+03  0.47613608823E+02  0.15917580778E+02  0.12503352156E+03  0.41800000000E+01 0.  1.
         -5    1    3    3    0  502 -0.79369115705E+02  0.95960180450E+02  0.14324365297E+03  0.18985265148E+03  0.41800000000E+01 0.  1.
        -11    1    1    2    0    0  0.79057852160E+02 -0.20567655523E+02  0.21820564894E+03  0.23299544560E+03  0.00000000000E+00 0. -1.
         11    1    1    2    0    0  0.11474676499E+03 -0.12300613375E+03  0.72371675540E+03  0.74300960361E+03  0.00000000000E+00 0.  1.
</event>
<event>
 7    1  0.2820496E-009  0.1050876E+03  0.7561462E-02  0.1269947E+00
         -2   -1    0    0    0  501 -0.00000000000E+00  0.00000000000E+00  0.18585219372E+02  0.18585219372E+02  0.00000000000E+00 0.  1.
          2   -1    0    0  501    0  0.00000000000E+00 -0.00000000000E+00 -0.65129995499E+03  0.65129995499E+03  0.00000000000E+00 0. -1.
         25    2    1    2    0    0 -0.56421378037E+01  0.72317669875E+01 -0.30729690018E+03  0.33190780528E+03  0.12508906497E+03 0.  0.
          5    1    3    3  502    0 -0.47729622118E+02  0.47183055573E+02 -0.16448604082E+03  0.17770055595E+03  0.41800000000E+01 0.  1.
         -5    1    3    3    0  502  0.42087484314E+02 -0.39951288586E+02 -0.14281085936E+03  0.15420724933E+03  0.41800000000E+01 0.  1.
        -11    1    1    2    0    0  0.20549909834E+02  0.34655053068E+02 -0.93109215884E+02  0.10145243999E+03  0.00000000000E+00 0.  1.
         11    1    1    2    0    0 -0.14907772031E+02 -0.41886820056E+02 -0.23230861956E+03  0.23652492909E+03  0.00000000000E+00 0. -1.
</event>
<event>
 7    1  0.2820496E-009  0.1795082E+03  0.7561462E-02  0.1168280E+00
          2   -1    0    0  501    0  0.00000000000E+00  0.00000000000E+00  0.13189598822E+04  0.13189598822E+04  0.00000000000E+00 0. -1.
         -2   -1    0    0    0  501 -0.00000000000E+00 -0.00000000000E+00 -0.26552823655E+02  0.26552823655E+02  0.00000000000E+00 0.  1.
         25    2    1    2    0    0 -0.15264561210E+03 -0.29864693883E+00  0.66394994049E+03  0.69265963063E+03  0.12508824219E+03 0.  0.
          5    1    3    3  502    0 -0.99852526227E+01  0.46030768063E+02  0.16247724351E+03  0.16921839125E+03  0.41800000000E+01 0. -1.
         -5    1    3    3    0  502 -0.14266035948E+03 -0.46329415001E+02  0.50147269698E+03  0.52344123937E+03  0.41800000000E+01 0. -1.
        -11    1    1    2    0    0  0.32381999041E+02  0.22433294967E+02  0.62827935087E+02  0.74156564189E+02  0.00000000000E+00 0. -1.
         11    1    1    2    0    0  0.12026361306E+03 -0.22134648028E+02  0.56562918301E+03  0.57869651108E+03  0.00000000000E+00 0.  1.
</event>
<event>
 7    1  0.2820496E-009  0.1135478E+03  0.7561462E-02  0.1254137E+00
         -2   -1    0    0    0  501 -0.00000000000E+00  0.00000000000E+00  0.42340779149E+03  0.42340779149E+03  0.00000000000E+00 0.  1.
          2   -1    0    0  501    0  0.00000000000E+00 -0.00000000000E+00 -0.48569245993E+02  0.48569245993E+02  0.00000000000E+00 0. -1.
         25    2    1    2    0    0 -0.22135215884E+02  0.67501503407E+02  0.30423873314E+03  0.33653392416E+03  0.12508978626E+03 0.  0.
          5    1    3    3  502    0  0.74840577826E+01 -0.34775710331E+02  0.99005569820E+02  0.10528502460E+03  0.41800000000E+01 0. -1.
         -5    1    3    3    0  502 -0.29619273666E+02  0.10227721374E+03  0.20523316332E+03  0.23124889956E+03  0.41800000000E+01 0. -1.
        -11    1    1    2    0    0 -0.12977488359E+02 -0.33132850719E+02 -0.13486824452E+02  0.38053849144E+02  0.00000000000E+00 0.  1.
         11    1    1    2    0    0  0.35112704243E+02 -0.34368652689E+02  0.84086636811E+02  0.97389264177E+02  0.00000000000E+00 0. -1.
</event>
<event>
 7    1  0.2820496E-009  0.1338431E+03  0.7561462E-02  0.1221862E+00
          1   -1    0    0  501    0  0.00000000000E+00  0.00000000000E+00  0.29904873109E+03  0.29904873109E+03  0.00000000000E+00 0. -1.
         -1   -1    0    0    0  501 -0.00000000000E+00 -0.00000000000E+00 -0.82035924310E+02  0.82035924310E+02  0.00000000000E+00 0.  1.
         25    2    1    2    0    0 -0.27408114746E+02 -0.93852915850E+02  0.51043237805E+02  0.16676464730E+03  0.12508181680E+03 0.  0.
          5    1    3    3  502    0 -0.74856135715E+02 -0.78634064997E+02  0.37821792431E+02  0.11504224274E+03  0.41800000000E+01 0. -1.
         -5    1    3    3    0  502  0.47448020969E+02 -0.15218850853E+02  0.13221445374E+02  0.51722404555E+02  0.41800000000E+01 0. -1.
        -11    1    1    2    0    0  0.21916363391E+02  0.85022551380E+01 -0.41872610347E+01  0.23877782177E+02  0.00000000000E+00 0.  1.
         11    1    1    2    0    0  0.54917513547E+01  0.85350660712E+02  0.17015683001E+03  0.19044222593E+03  0.00000000000E+00 0. -1.
</event>
<event>
 7    1  0.2820496E-009  0.1149003E+03  0.7561462E-02  0.1251755E+00
          2   -1    0    0  501    0  0.00000000000E+00  0.00000000000E+00  0.53554031571E+03  0.53554031571E+03  0.00000000000E+00 0. -1.
         -2   -1    0    0    0  501 -0.00000000000E+00 -0.00000000000E+00 -0.35202570209E+02  0.35202570209E+02  0.00000000000E+00 0.  1.
         25    2    1    2    0    0  0.29893154297E+02 -0.77060336084E+02  0.31510272828E+03  0.34895014291E+03  0.12507828268E+03 0.  0.
          5    1    3    3  502    0 -0.41606769208E+02 -0.52342163791E+02  0.95590853162E+02  0.11673006880E+03  0.41800000000E+01 0. -1.
         -5    1    3    3    0  502  0.71499923505E+02 -0.24718172293E+02  0.21951187512E+03  0.23222007411E+03  0.41800000000E+01 0. -1.
        -11    1    1    2    0    0 -0.22286173109E+01  0.43449359556E+02  0.14906428122E+02  0.45989294193E+02  0.00000000000E+00 0.  1.
         11    1    1    2    0    0 -0.27664536986E+02  0.33610976528E+02  0.17032858910E+03  0.17580344882E+03  0.00000000000E+00 0. -1.
</event>
<event>
 7    1  0.2820496E-009  0.1716008E+03  0.7561462E-02  0.1176189E+00
         -2   -1    0    0    0  501 -0.00000000000E+00  0.00000000000E+00  0.14868986981E+02  0.14868986981E+02  0.00000000000E+00 0.  1.
          2   -1    0    0  501    0  0.00000000000E+00 -0.00000000000E+00 -0.23979964404E+04  0.23979964404E+04  0.00000000000E+00 0. -1.
         25    2    1    2    0    0 -0.11753435744E+03  0.81470053296E+02 -0.16478091001E+04  0.16587262932E+04  0.12508553266E+03 0.  0.
          5    1    3    3  502    0 -0.60155887248E+02  0.11010596793E+03 -0.10538143218E+04  0.10612653543E+04  0.41800000000E+01 0. -1.
         -5    1    3    3    0  502 -0.57378470193E+02 -0.28635914637E+02 -0.59399477831E+03  0.59746093890E+03  0.41800000000E+01 0. -1.
        -11    1    1    2    0    0  0.65851610713E+02 -0.77305893068E+02 -0.61193146036E+03  0.62030053032E+03  0.00000000000E+00 0. -1.
         11    1    1    2    0    0  0.51682746728E+02 -0.41641602277E+01 -0.12338689292E+03  0.13383860387E+03  0.00000000000E+00 0.  1.
</event>
<event>
 7    1  0.2820496E-009  0.9329970E+02  0.7561462E-02  0.1295052E+00
         -1   -1    0    0    0  501 -0.00000000000E+00  0.00000000000E+00  0.32981079586E+03  0.32981079586E+03  0.00000000000E+00 0.  1.
          1   -1    0    0  501    0  0.00000000000E+00 -0.00000000000E+00 -0.46965754255E+02  0.46965754255E+02  0.00000000000E+00 0. -1.
         25    2    1    2    0    0 -0.35854886413E+02 -0.32044482933E+02  0.98501084051E+02  0.16631727428E+03  0.12508617189E+03 0.  0.
          5    1    3    3  502    0 -0.37407668242E+02  0.36665981922E+02  0.88678154733E+01  0.53290134405E+02  0.41800000000E+01 0.  1.
         -5    1    3    3    0  502  0.15527818291E+01 -0.68710464856E+02  0.89633268578E+02  0.11302713987E+03  0.41800000000E+01 0.  1.
        -11    1    1    2    0    0  0.91983533702E+01  0.36963377793E+02  0.17877331835E+03  0.18278621490E+03  0.00000000000E+00 0.  1.
         11    1    1    2    0    0  0.26656533043E+02 -0.49188948599E+01  0.55706392012E+01  0.27673060937E+02  0.00000000000E+00 0. -1.
</event>
<event>
 7    1  0.2820496E-009  0.8446724E+02  0.7561462E-02  0.1316832E+00
         -1   -1    0    0    0  501 -0.00000000000E+00  0.00000000000E+00  0.47963264996E+02  0.47963264996E+02  0.00000000000E+00 0.  1.
          1   -1    0    0  501    0  0.00000000000E+00 -0.00000000000E+00 -0.34007999672E+03  0.34007999672E+03  0.00000000000E+00 0. -1.
         25    2    1    2    0    0 -0.29330249262E+02  0.30139654094E+02 -0.24275609545E+03  0.27631069455E+03  0.12509362804E+03 0.  0.
          5    1    3    3  502    0 -0.53484773468E+01 -0.28730500445E+02 -0.19362067967E+03  0.19585833620E+03  0.41800000000E+01 0. -1.
         -5    1    3    3    0  502 -0.23981771915E+02  0.58870154539E+02 -0.49135415780E+02  0.80452358347E+02  0.41800000000E+01 0. -1.
        -11    1    1    2    0    0  0.33617165412E+02 -0.47295063246E+02 -0.65700888241E+02  0.87655824298E+02  0.00000000000E+00 0. -1.
         11    1    1    2    0    0 -0.42869161499E+01  0.17155409152E+02  0.16340251959E+02  0.24076742872E+02  0.00000000000E+00 0.  1.
</event>
<event>
 7    1  0.2820496E-009  0.1086378E+03  0.7561462E-02  0.1263113E+00
         -2   -1    0    0    0  501 -0.00000000000E+00  0.00000000000E+00  0.45054817220E+02  0.45054817220E+02  0.00000000000E+00 0.  1.
          2   -1    0    0  501    0  0.00000000000E+00 -0.00000000000E+00 -0.40402736694E+03  0.40402736694E+03  0.00000000000E+00 0. -1.
         25    2    1    2    0    0 -0.36325905347E+01 -0.71594108865E+02 -0.25856220516E+03  0.29604243453E+03  0.12509115464E+03 0.  0.
          5    1    3    3  502    0 -0.52073708553E+02 -0.51621823539E+01 -0.15559024106E+03  0.16420753564E+03  0.41800000000E+01 0. -1.
         -5    1    3    3    0  502  0.48441118018E+02 -0.66431926511E+02 -0.10297196410E+03  0.13183489889E+03  0.41800000000E+01 0. -1.
        -11    1    1    2    0    0  0.21996349081E+02  0.32248044843E+02  0.46967364847E+01  0.39317109542E+02  0.00000000000E+00 0.  1.
         11    1    1    2    0    0 -0.18363758546E+02  0.39346064022E+02 -0.10510708105E+03  0.11372264009E+03  0.00000000000E+00 0. -1.
</event>
<event>
 7    1  0.2820496E-009  0.3051960E+03  0.7561462E-02  0.1082672E+00
          3   -1    0    0  501    0  0.00000000000E+00  0.00000000000E+00  0.13365888212E+03  0.13365888212E+03  0.00000000000E+00 0. -1.
         -3   -1    0    0    0  501 -0.00000000000E+00 -0.00000000000E+00 -0.81292374298E+03  0.81292374298E+03  0.00000000000E+00 0.  1.
         25    2    1    2    0    0 -0.28438489111E+03 -0.78420879222E+02 -0.20426846846E+03  0.37999715033E+03  0.12509047310E+03 0.  0.
          5    1    3    3  502    0 -0.18382410664E+03  0.53201404581E+01 -0.84026113385E+02  0.20223121967E+03  0.41800000000E+01 0.  1.
         -5    1    3    3    0  502 -0.10056078447E+03 -0.83741019680E+02 -0.12024235508E+03  0.17776593067E+03  0.41800000000E+01 0.  1.
        -11    1    1    2    0    0  0.24522839673E+03  0.73760887597E+02 -0.45560895274E+03  0.52264438476E+03  0.00000000000E+00 0.  1.
         11    1    1    2    0    0  0.39156494385E+02  0.46599916246E+01 -0.19387439654E+02  0.43941090004E+02  0.00000000000E+00 0. -1.
</event>
<event>
 7    1  0.2820496E-009  0.1103783E+03  0.7561462E-02  0.1259871E+00
         -1   -1    0    0    0  501 -0.00000000000E+00  0.00000000000E+00  0.12823396287E+03  0.12823396287E+03  0.00000000000E+00 0.  1.
          1   -1    0    0  501    0  0.00000000000E+00 -0.00000000000E+00 -0.16437669253E+03  0.16437669253E+03  0.00000000000E+00 0. -1.
         25    2    1    2    0    0  0.31794347187E+02 -0.83252674895E+02 -0.62276608966E+02  0.16574492150E+03  0.12510441474E+03 0.  0.
          5    1    3    3  502    0  0.56685076281E+02 -0.51487559106E+02  0.15296791002E+02  0.78202498878E+02  0.41800000000E+01 0.  1.
         -5    1    3    3    0  502 -0.24890729094E+02 -0.31765115789E+02 -0.77573399969E+02  0.87542422623E+02  0.41800000000E+01 0.  1.
        -11    1    1    2    0    0 -0.33052529718E+02  0.16888673460E+02  0.44546304927E+02  0.57983362223E+02  0.00000000000E+00 0.  1.
         11    1    1    2    0    0  0.12581825311E+01  0.66364001436E+02 -0.18412425624E+02  0.68882371672E+02  0.00000000000E+00 0. -1.
</event>
<event>
 7    1  0.2820496E-009  0.1006743E+03  0.7561462E-02  0.1278884E+00
         -2   -1    0    0    0  501 -0.00000000000E+00  0.00000000000E+00  0.59539483019E+02  0.59539483019E+02  0.00000000000E+00 0.  1.
          2   -1    0    0  501    0  0.00000000000E+00 -0.00000000000E+00 -0.20828434655E+03  0.20828434655E+03  0.00000000000E+00 0. -1.
         25    2    1    2    0    0 -0.11678574507E+02 -0.23255321535E+01 -0.60454524366E+02  0.13944233112E+03  0.12509043524E+03 0.  0.
          5    1    3    3  502    0 -0.41254168121E+02 -0.42422913806E+02  0.21021501463E+01  0.59359088929E+02  0.41800000000E+01 0.  1.
         -5    1    3    3    0  502  0.29575593614E+02  0.40097381653E+02 -0.62556674513E+02  0.80083242187E+02  0.41800000000E+01 0.  1.
        -11    1    1    2    0    0  0.46505232201E+02 -0.20037584055E+02 -0.38359544597E+02  0.63527128524E+02  0.00000000000E+00 0.  1.
         11    1    1    2    0    0 -0.34826657694E+02  0.22363116208E+02 -0.49930794565E+02  0.64854369927E+02  0.00000000000E+00 0. -1.
</event>
<event>
 7    1  0.2820496E-009  0.1421723E+03  0.7561462E-02  0.1210435E+00
         -2   -1    0    0    0  501 -0.00000000000E+00  0.00000000000E+00  0.76528786704E+02  0.76528786704E+02  0.00000000000E+00 0. -1.
          2   -1    0    0  501    0  0.00000000000E+00 -0.00000000000E+00 -0.40366036872E+03  0.40366036872E+03  0.00000000000E+00 0.  1.
         25    2    1    2    0    0  0.84596655912E+01 -0.12740046972E+03 -0.24714010447E+03  0.30500636788E+03  0.12509279590E+03 0.  0.
          5    1    3    3  502    0 -0.15858905718E+02 -0.58523945920E+02 -0.16410900573E+02  0.62955120477E+02  0.41800000000E+01 0. -1.
         -5    1    3    3    0  502  0.24318571309E+02 -0.68876523799E+02 -0.23072920389E+03  0.24205124740E+03  0.41800000000E+01 0. -1.
        -11    1    1    2    0    0 -0.26637695194E+02  0.55572373763E+01 -0.34317578940E+02  0.43796642757E+02  0.00000000000E+00 0.  1.
         11    1    1    2    0    0  0.18178029603E+02  0.12184323234E+03 -0.45673898613E+02  0.13138614479E+03  0.00000000000E+00 0. -1.
</event>
<event>
 7    1  0.2820496E-009  0.1068028E+03  0.7561462E-02  0.1266608E+00
         -1   -1    0    0    0  501 -0.00000000000E+00  0.00000000000E+00  0.46946928317E+02  0.46946928317E+02  0.00000000000E+00 0.  1.
          1   -1    0    0  501    0  0.00000000000E+00 -0.00000000000E+00 -0.51408688332E+03  0.51408688332E+03  0.00000000000E+00 0. -1.
         25    2    1    2    0    0 -0.86948080672E+02  0.50505370952E+02 -0.16870244112E+03  0.23284835005E+03  0.12508828583E+03 0.  0.
          5    1    3    3  502    0  0.55073754196E+00  0.10698414093E+02  0.18835037491E+02  0.22067859281E+02  0.41800000000E+01 0. -1.
         -5    1    3    3    0  502 -0.87498818214E+02  0.39806956859E+02 -0.18753747861E+03  0.21078049077E+03  0.41800000000E+01 0. -1.
        -11    1    1    2    0    0  0.65232743576E+02 -0.19596112185E+02 -0.73934984544E+02  0.10052711269E+03  0.00000000000E+00 0.  1.
         11    1    1    2    0    0  0.21715337095E+02 -0.30909258767E+02 -0.22450252934E+03  0.22765834890E+03  0.00000000000E+00 0. -1.
</event>
<event>
 7    1  0.2820496E-009  0.8713419E+02  0.7561462E-02  0.1309944E+00
          2   -1    0    0  501    0  0.00000000000E+00  0.00000000000E+00  0.31838946308E+03  0.31838946308E+03  0.00000000000E+00 0. -1.
         -2   -1    0    0    0  501 -0.00000000000E+00 -0.00000000000E+00 -0.40668878970E+02  0.40668878970E+02  0.00000000000E+00 0.  1.
         25    2    1    2    0    0  0.78247117997E+01 -0.34230628316E+02  0.15245310197E+03  0.20030203499E+03  0.12508395138E+03 0.  0.
          5    1    3    3  502    0  0.21670774965E+01  0.23114173092E+02 -0.11662209049E+02  0.26314268800E+02  0.41800000000E+01 0. -1.
         -5    1    3    3    0  502  0.56576343032E+01 -0.57344801408E+02  0.16411531102E+03  0.17398776619E+03  0.41800000000E+01 0. -1.
        -11    1    1    2    0    0  0.20831185210E+02 -0.21687796150E+02  0.65336007190E+02  0.71924214383E+02  0.00000000000E+00 0. -1.
         11    1    1    2    0    0 -0.28655897010E+02  0.55918424466E+02  0.59931474951E+02  0.86832092673E+02  0.00000000000E+00 0.  1.
</event>
<event>
 7    1  0.2820496E-009  0.1159956E+03  0.7561462E-02  0.1249853E+00
         -2   -1    0    0    0  501 -0.00000000000E+00  0.00000000000E+00  0.71526606971E+02  0.71526606971E+02  0.00000000000E+00 0.  1.
          2   -1    0    0  501    0  0.00000000000E+00 -0.00000000000E+00 -0.23243511393E+03  0.23243511393E+03  0.00000000000E+00 0. -1.
         25    2    1    2    0    0 -0.20904620330E+02 -0.39086173818E+02 -0.25212205427E+02  0.13508386974E+03  0.12508902601E+03 0.  0.
          5    1    3    3  502    0 -0.73085856526E+02 -0.30175170478E+02 -0.97593167902E+01  0.79779696676E+02  0.41800000000E+01 0. -1.
         -5    1    3    3    0  502  0.52181236196E+02 -0.89110033402E+01 -0.15452888637E+02  0.55304173068E+02  0.41800000000E+01 0. -1.
        -11    1    1    2    0    0 -0.11174950737E+02 -0.25364085217E+02 -0.28544283920E+02  0.39786838117E+02  0.00000000000E+00 0. -1.
         11    1    1    2    0    0  0.32079571067E+02  0.64450259035E+02 -0.10715201761E+03  0.12909101304E+03  0.00000000000E+00 0.  1.
</event>
<event>
 7    1  0.2984800E-009  0.9632523E+02  0.7561462E-02  0.1288219E+00
         -1   -1    0    0    0  501 -0.00000000000E+00  0.00000000000E+00  0.34112143652E+02  0.34112143652E+02  0.00000000000E+00 0.  1.
          1   -1    0    0  501    0  0.00000000000E+00 -0.00000000000E+00 -0.44270691426E+03  0.44270691426E+03  0.00000000000E+00 0. -1.
         25    2    1    2    0    0  0.28043480429E+01  0.32833827143E+02 -0.32097301541E+03  0.34605931909E+03  0.12508977232E+03 0.  0.
          5    1    3    3  502    0 -0.81833499155E+01  0.75157343465E+02 -0.26073566465E+03  0.27150718723E+03  0.41800000000E+01 0.  1.
         -5    1    3    3    0  502  0.10987697958E+02 -0.42323516322E+02 -0.60237350752E+02  0.74552131867E+02  0.41800000000E+01 0.  1.
        -11    1    1    2    0    0  0.13226991959E+01  0.19984513331E+02  0.78997180275E+01  0.21529882748E+02  0.00000000000E+00 0.  1.
         11    1    1    2    0    0 -0.41270472387E+01 -0.52818340474E+02 -0.95521473234E+02  0.10922985607E+03  0.00000000000E+00 0. -1.
</event>
<event>
 7    1  0.2820496E-009  0.1168153E+03  0.7561462E-02  0.1248445E+00
          1   -1    0    0  501    0  0.00000000000E+00  0.00000000000E+00  0.34259001449E+03  0.34259001449E+03  0.00000000000E+00 0. -1.
         -1   -1    0    0    0  501 -0.00000000000E+00 -0.00000000000E+00 -0.63876838527E+02  0.63876838527E+02  0.00000000000E+00 0.  1.
         25    2    1    2    0    0 -0.39794986821E+02 -0.46580862829E+02  0.41369413354E+02  0.14529778934E+03  0.12508637603E+03 0.  0.
          5    1    3    3  502    0 -0.17194479048E+02 -0.88832730274E+02  0.33419778685E+02  0.96546662734E+02  0.41800000000E+01 0.  1.
         -5    1    3    3    0  502 -0.22600507773E+02  0.42251867445E+02  0.79496346690E+01  0.48751126608E+02  0.41800000000E+01 0.  1.
        -11    1    1    2    0    0  0.49868816136E+02  0.27111491505E+01  0.59325641416E+02  0.77548571114E+02  0.00000000000E+00 0.  1.
         11    1    1    2    0    0 -0.10073829314E+02  0.43869713679E+02  0.17801812120E+03  0.18362049256E+03  0.00000000000E+00 0. -1.
</event>
<event>
 7    1  0.2820496E-009  0.1167656E+03  0.7561462E-02  0.1248530E+00
          1   -1    0    0  501    0  0.00000000000E+00  0.00000000000E+00  0.33492916474E+02  0.33492916474E+02  0.00000000000E+00 0. -1.
         -1   -1    0    0    0  501 -0.00000000000E+00 -0.00000000000E+00 -0.56560378434E+03  0.56560378434E+03  0.00000000000E+00 0.  1.
         25    2    1    2    0    0  0.42682544550E+02  0.29388113010E+02 -0.43704701448E+03  0.45754028506E+03  0.12509020263E+03 0.  0.
          5    1    3    3  502    0  0.40272265456E+02  0.77157870444E+02 -0.29487087112E+03  0.30747600779E+03  0.41800000000E+01 0. -1.
         -5    1    3    3    0  502  0.24102790940E+01 -0.47769757434E+02 -0.14217614336E+03  0.15006427727E+03  0.41800000000E+01 0. -1.
        -11    1    1    2    0    0 -0.47211042315E+01  0.28647566480E+02 -0.77445159976E+01  0.30049116766E+02  0.00000000000E+00 0. -1.
         11    1    1    2    0    0 -0.37961440319E+02 -0.58035679490E+02 -0.87319337391E+02  0.11150729899E+03  0.00000000000E+00 0.  1.
</event>
<event>
 7    1  0.2820496E-009  0.1556695E+03  0.7561462E-02  0.1193674E+00
          2   -1    0    0  501    0  0.00000000000E+00  0.00000000000E+00  0.62419871042E+03  0.62419871042E+03  0.00000000000E+00 0. -1.
         -2   -1    0    0    0  501 -0.00000000000E+00 -0.00000000000E+00 -0.52937014804E+02  0.52937014804E+02  0.00000000000E+00 0.  1.
         25    2    1    2    0    0 -0.34873503505E+02 -0.12493375672E+03  0.42173915560E+03  0.45862411704E+03  0.12509020965E+03 0.  0.
          5    1    3    3  502    0 -0.33728442870E+02  0.16873102222E+02  0.77306865470E+02  0.86116974435E+02  0.41800000000E+01 0. -1.
         -5    1    3    3    0  502 -0.11450606353E+01 -0.14180685895E+03  0.34443229013E+03  0.37250714260E+03  0.41800000000E+01 0. -1.
        -11    1    1    2    0    0  0.17004883317E+02  0.26553993221E+02 -0.74478828652E+01  0.32399869935E+02  0.00000000000E+00 0.  1.
         11    1    1    2    0    0  0.17868620189E+02  0.98379763503E+02  0.15697042288E+03  0.18611173825E+03  0.00000000000E+00 0. -1.
</event>
<event>
 7    1  0.2820496E-009  0.8444804E+02  0.7561462E-02  0.1316882E+00
         -1   -1    0    0    0  501 -0.00000000000E+00  0.00000000000E+00  0.18926719958E+02  0.18926719958E+02  0.00000000000E+00 0.  1.
          1   -1    0    0  501    0  0.00000000000E+00 -0.00000000000E+00 -0.69257414091E+03  0.69257414091E+03  0.00000000000E+00 0. -1.
         25    2    1    2    0    0  0.24786378248E+02 -0.20992179335E+02 -0.44324387970E+03  0.46170014483E+03  0.12508737229E+03 0.  0.
          5    1    3    3  502    0  0.45930766208E+02 -0.35477124280E+02 -0.42726571403E+03  0.43120960613E+03  0.41800000000E+01 0. -1.
         -5    1    3    3    0  502 -0.21144387959E+02  0.14484944946E+02 -0.15978165667E+02  0.30490538702E+02  0.41800000000E+01 0. -1.
        -11    1    1    2    0    0  0.13313313677E+02  0.40003589524E+02 -0.54984796609E+02  0.69288233878E+02  0.00000000000E+00 0.  1.
         11    1    1    2    0    0 -0.38099691925E+02 -0.19011410190E+02 -0.17541874465E+03  0.18051248216E+03  0.00000000000E+00 0. -1.
</event>
<event>
 7    1  0.2820496E-009  0.1980187E+03  0.7561462E-02  0.1151421E+00
         -1   -1    0    0    0  501 -0.00000000000E+00  0.00000000000E+00  0.20307991960E+03  0.20307991960E+03  0.00000000000E+00 0.  1.
          1   -1    0    0  501    0  0.00000000000E+00 -0.00000000000E+00 -0.33685342914E+03  0.33685342914E+03  0.00000000000E+00 0. -1.
         25    2    1    2    0    0 -0.96651498019E+02  0.15104684641E+03  0.92083629577E+02  0.23724289191E+03  0.12509249795E+03 0.  0.
          5    1    3    3  502    0 -0.10695088146E+03  0.16358708250E+03  0.66175412266E+02  0.20638769875E+03  0.41800000000E+01 0.  1.
         -5    1    3    3    0  502  0.10299383443E+02 -0.12540236089E+02  0.25908217311E+02  0.30855193156E+02  0.41800000000E+01 0.  1.
        -11    1    1    2    0    0  0.50944324794E+02 -0.43710605753E+02 -0.14778130950E+03  0.16231221987E+03  0.00000000000E+00 0. -1.
         11    1    1    2    0    0  0.45707173224E+02 -0.10733624066E+03 -0.78075829615E+02  0.14037823696E+03  0.00000000000E+00 0.  1.
</event>
<event>
 7    1  0.2820496E-009  0.1329397E+03  0.7561462E-02  0.1223158E+00
         -2   -1    0    0    0  501 -0.00000000000E+00  0.00000000000E+00  0.80527156300E+02  0.80527156300E+02  0.00000000000E+00 0.  1.
          2   -1    0    0  501    0  0.00000000000E+00 -0.00000000000E+00 -0.23746462946E+03  0.23746462946E+03  0.00000000000E+00 0. -1.
         25    2    1    2    0    0  0.79375378932E+02  0.21871698426E+02 -0.61688318022E+02  0.16196480392E+03  0.12509327382E+03 0.  0.
          5    1    3    3  502    0  0.23436907789E+00  0.58325605285E+02 -0.67279168229E+01  0.58861434110E+02  0.41800000000E+01 0. -1.
         -5    1    3    3    0  502  0.79141009854E+02 -0.36453906859E+02 -0.54960401199E+02  0.10310336981E+03  0.41800000000E+01 0. -1.
        -11    1    1    2    0    0 -0.61063184043E+02 -0.55088487313E+02 -0.47240325962E+02  0.94842513025E+02  0.00000000000E+00 0. -1.
         11    1    1    2    0    0 -0.18312194889E+02  0.33216788887E+02 -0.48008829179E+02  0.61184468820E+02  0.00000000000E+00 0.  1.
</event>
<event>
 7    1  0.2820496E-009  0.7757475E+02  0.7561462E-02  0.1336078E+00
          2   -1    0    0  501    0  0.00000000000E+00  0.00000000000E+00  0.15220310522E+03  0.15220310522E+03  0.00000000000E+00 0. -1.
         -2   -1    0    0    0  501 -0.00000000000E+00 -0.00000000000E+00 -0.16162600351E+03  0.16162600351E+03  0.00000000000E+00 0.  1.
         25    2    1    2    0    0 -0.22015447801E+02  0.56804954780E+02 -0.99867117832E+02  0.17126818449E+03  0.12509143442E+03 0.  0.
          5    1    3    3  502    0 -0.32318984613E+02  0.11476949202E+02 -0.11665881616E+03  0.12166753436E+03  0.41800000000E+01 0. -1.
         -5    1    3    3    0  502  0.10303536812E+02  0.45328005578E+02  0.16791698329E+02  0.49600650129E+02  0.41800000000E+01 0. -1.
        -11    1    1    2    0    0  0.22606941853E+02 -0.63674484101E+01 -0.13453038009E+02  0.27066629840E+02  0.00000000000E+00 0.  1.
         11    1    1    2    0    0 -0.59149405238E+00 -0.50437506370E+02  0.10389725754E+03  0.11549429440E+03  0.00000000000E+00 0. -1.
</event>
<event>
 7    1  0.2820496E-009  0.1257924E+03  0.7561462E-02  0.1233836E+00
         -2   -1    0    0    0  501 -0.00000000000E+00  0.00000000000E+00  0.24918331274E+02  0.24918331274E+02  0.00000000000E+00 0.  1.
          2   -1    0    0  501    0  0.00000000000E+00 -0.00000000000E+00 -0.13786830823E+04  0.13786830823E+04  0.00000000000E+00 0. -1.
         25    2    1    2    0    0 -0.15076550718E+01 -0.12259571341E+03 -0.10498874263E+04  0.10643976925E+04  0.12508740159E+03 0.  0.
          5    1    3    3  502    0 -0.80646726523E+01 -0.51152065292E+02 -0.85674025194E+03  0.85831398941E+03  0.41800000000E+01 0.  1.
         -5    1    3    3    0  502  0.65570175805E+01 -0.71443648114E+02 -0.19314717435E+03  0.20608370312E+03  0.41800000000E+01 0.  1.
        -11    1    1    2    0    0 -0.14479592204E+02  0.93079423785E+02 -0.12137642739E+03  0.15364138391E+03  0.00000000000E+00 0.  1.
         11    1    1    2    0    0  0.15987247276E+02  0.29516289621E+02 -0.18250089738E+03  0.18556233717E+03  0.00000000000E+00 0. -1.
</event>
<event>
 7    1  0.2820496E-009  0.1100021E+03  0.7561462E-02  0.1260566E+00
          2   -1    0    0  501    0  0.00000000000E+00  0.00000000000E+00  0.33175815046E+03  0.33175815046E+03  0.00000000000E+00 0. -1.
         -2   -1    0    0    0  501 -0.00000000000E+00 -0.00000000000E+00 -0.54022912301E+02  0.54022912301E+02  0.00000000000E+00 0.  1.
         25    2    1    2    0    0  0.59665844914E+02  0.52371301870E+02  0.16427651557E+03  0.22121734363E+03  0.12509026041E+03 0.  0.
          5    1    3    3  502    0  0.20603701594E+02  0.75697285144E+02  0.38678809185E+02  0.87567769056E+02  0.41800000000E+01 0.  1.
         -5    1    3    3    0  502  0.39062143320E+02 -0.23325983274E+02  0.12559770638E+03  0.13364957458E+03  0.41800000000E+01 0.  1.
        -11    1    1    2    0    0 -0.53622635074E+02 -0.12021770037E+02  0.13483264082E+02  0.56583640369E+02  0.00000000000E+00 0.  1.
         11    1    1    2    0    0 -0.60432098398E+01 -0.40349531833E+02  0.99975458507E+02  0.10798007876E+03  0.00000000000E+00 0. -1.
</event>
<event>
 7    1  0.2820496E-009  0.9561766E+02  0.7561462E-02  0.1289791E+00
         -2   -1    0    0    0  501 -0.00000000000E+00  0.00000000000E+00  0.14977458305E+02  0.14977458305E+02  0.00000000000E+00 0.  1.
          2   -1    0    0  501    0  0.00000000000E+00 -0.00000000000E+00 -0.16254737471E+04  0.16254737471E+04  0.00000000000E+00 0. -1.
         25    2    1    2    0    0 -0.24386780924E+02 -0.42505629070E+02 -0.13941487575E+04  0.14006068268E+04  0.12508909543E+03 0.  0.
          5    1    3    3  502    0  0.27937156233E+02 -0.41230608437E+01 -0.81622608684E+02  0.86470844668E+02  0.41800000000E+01 0. -1.
         -5    1    3    3    0  502 -0.52323937156E+02 -0.38382568226E+02 -0.13125261488E+04  0.13141359822E+04  0.41800000000E+01 0. -1.
        -11    1    1    2    0    0 -0.31769368130E+02  0.15232782352E+02 -0.42956010475E+02  0.55556720975E+02  0.00000000000E+00 0.  1.
         11    1    1    2    0    0  0.56156149054E+02  0.27272846718E+02 -0.17339152086E+03  0.18428765762E+03  0.00000000000E+00 0. -1.
</event>
<event>
 7    1  0.2820496E-009  0.1279052E+03  0.7561462E-02  0.1230598E+00
          1   -1    0    0  501    0  0.00000000000E+00  0.00000000000E+00  0.64272805577E+02  0.64272805577E+02  0.00000000000E+00 0. -1.
         -1   -1    0    0    0  501 -0.00000000000E+00 -0.00000000000E+00 -0.32347959026E+03  0.32347959026E+03  0.00000000000E+00 0.  1.
         25    2    1    2    0    0  0.17826067593E+02  0.66153907185E+02 -0.22689806657E+03  0.26799631286E+03  0.12508070582E+03 0.  0.
          5    1    3    3  502    0  0.59433191784E+01 -0.36437474245E+02 -0.41269210201E+02  0.55530466258E+02  0.41800000000E+01 0. -1.
         -5    1    3    3    0  502  0.11882748414E+02  0.10259138143E+03 -0.18562885637E+03  0.21246584660E+03  0.41800000000E+01 0. -1.
        -11    1    1    2    0    0 -0.51383468743E+01  0.23851320253E+02 -0.77936697985E+01  0.25613070400E+02  0.00000000000E+00 0. -1.
         11    1    1    2    0    0 -0.12687720719E+02 -0.90005227438E+02 -0.24515048309E+02  0.94143012576E+02  0.00000000000E+00 0.  1.
</event>
<event>
 7    1  0.2820496E-009  0.2070395E+03  0.7561462E-02  0.1143932E+00
         -2   -1    0    0    0  501 -0.00000000000E+00  0.00000000000E+00  0.11275851636E+03  0.11275851636E+03  0.00000000000E+00 0.  1.
          2   -1    0    0  501    0  0.00000000000E+00 -0.00000000000E+00 -0.44981812886E+03  0.44981812886E+03  0.00000000000E+00 0. -1.
         25    2    1    2    0    0 -0.25860190857E+02  0.18325789643E+03 -0.88481198261E+02  0.24027700357E+03  0.12510759340E+03 0.  0.
          5    1    3    3  502    0  0.43915070054E+02  0.87587212339E+02 -0.10948895431E+02  0.98678284614E+02  0.41800000000E+01 0.  1.
         -5    1    3    3    0  502 -0.69775260912E+02  0.95670684087E+02 -0.77532302830E+02  0.14159871896E+03  0.41800000000E+01 0.  1.
        -11    1    1    2    0    0  0.48924591508E+02 -0.10319618277E+03 -0.99278740476E+02  0.15132526591E+03  0.00000000000E+00 0.  1.
         11    1    1    2    0    0 -0.23064400651E+02 -0.80061713657E+02 -0.14929967377E+03  0.17097437573E+03  0.00000000000E+00 0. -1.
</event>
<event>
 7    1  0.2820496E-009  0.1117057E+03  0.7561462E-02  0.1257443E+00
         -1   -1    0    0    0  501 -0.00000000000E+00  0.00000000000E+00  0.23666618274E+02  0.23666618274E+02  0.00000000000E+00 0.  1.
          1   -1    0    0  501    0  0.00000000000E+00 -0.00000000000E+00 -0.59259970605E+03  0.59259970605E+03  0.00000000000E+00 0. -1.
         25    2    1    2    0    0  0.32999602968E+02  0.10308305586E+02 -0.23319601038E+03  0.26687616856E+03  0.12508906877E+03 0.  0.
          5    1    3    3  502    0  0.13748387093E+02  0.66675424369E+02 -0.14659560660E+03  0.16168603723E+03  0.41800000000E+01 0. -1.
         -5    1    3    3    0  502  0.19251215874E+02 -0.56367118782E+02 -0.86600403786E+02  0.10519013133E+03  0.41800000000E+01 0. -1.
        -11    1    1    2    0    0  0.18770054947E+02  0.26140242845E+02 -0.88307109683E+02  0.93988152867E+02  0.00000000000E+00 0.  1.
         11    1    1    2    0    0 -0.51769657915E+02 -0.36448548431E+02 -0.24742996771E+03  0.25540200289E+03  0.00000000000E+00 0. -1.
</event>
<event>
 7    1  0.2820496E-009  0.1496004E+03  0.7561462E-02  0.1200965E+00
         -2   -1    0    0    0  501 -0.00000000000E+00  0.00000000000E+00  0.17931401330E+03  0.17931401330E+03  0.00000000000E+00 0.  1.
          2   -1    0    0  501    0  0.00000000000E+00 -0.00000000000E+00 -0.15308803969E+03  0.15308803969E+03  0.00000000000E+00 0. -1.
         25    2    1    2    0    0 -0.42848292135E+02  0.10289999664E+03 -0.43901855919E+02  0.17320202261E+03  0.12508869748E+03 0.  0.
          5    1    3    3  502    0  0.23396238513E+02  0.88212317017E+02 -0.51371840086E+02  0.10481094983E+03  0.41800000000E+01 0. -1.
         -5    1    3    3    0  502 -0.66244530648E+02  0.14687679626E+02  0.74699841666E+01  0.68391072787E+02  0.41800000000E+01 0. -1.
        -11    1    1    2    0    0  0.30766714222E+02  0.51007187091E+01  0.30229446857E+02  0.43433023066E+02  0.00000000000E+00 0.  1.
         11    1    1    2    0    0  0.12081577913E+02 -0.10800071535E+03  0.39898382678E+02  0.11576700731E+03  0.00000000000E+00 0. -1.
</event>
<event>
 7    1  0.2820496E-009  0.6936136E+02  0.7561462E-02  0.1362278E+00
          2   -1    0    0  501    0  0.00000000000E+00  0.00000000000E+00  0.15283429187E+03  0.15283429187E+03  0.00000000000E+00 0. -1.
         -2   -1    0    0    0  501 -0.00000000000E+00 -0.00000000000E+00 -0.85583352082E+02  0.85583352082E+02  0.00000000000E+00 0.  1.
         25    2    1    2    0    0 -0.16790341253E+02  0.34572467443E+02  0.32240951125E+02  0.13477836985E+03  0.12509420044E+03 0.  0.
          5    1    3    3  502    0  0.35798667106E+02 -0.26072680933E+00 -0.29377719746E+02  0.46498767323E+02  0.41800000000E+01 0.  1.
         -5    1    3    3    0  502 -0.52589008359E+02  0.34833194252E+02  0.61618670872E+02  0.88279602525E+02  0.41800000000E+01 0.  1.
        -11    1    1    2    0    0  0.23160211038E+01 -0.14679321007E+02 -0.30355177516E+02  0.33797680705E+02  0.00000000000E+00 0.  1.
         11    1    1    2    0    0  0.14474320149E+02 -0.19893146436E+02  0.65365166176E+02  0.69841593396E+02  0.00000000000E+00 0. -1.
</event>
<event>
 7    1  0.2820496E-009  0.1019456E+03  0.7561462E-02  0.1276257E+00
          2   -1    0    0  501    0  0.00000000000E+00  0.00000000000E+00  0.11936111610E+03  0.11936111610E+03  0.00000000000E+00 0. -1.
         -2   -1    0    0    0  501 -0.00000000000E+00 -0.00000000000E+00 -0.15721276839E+03  0.15721276839E+03  0.00000000000E+00 0.  1.
         25    2    1    2    0    0 -0.22471195915E+02  0.64922997991E+02 -0.71141461726E+02  0.15946393281E+03  0.12509071899E+03 0.  0.
          5    1    3    3  502    0 -0.46499872478E+02  0.85113437983E+02 -0.19695096639E+02  0.99055058918E+02  0.41800000000E+01 0.  1.
         -5    1    3    3    0  502  0.24028676563E+02 -0.20190439991E+02 -0.51446365087E+02  0.60408873893E+02  0.41800000000E+01 0.  1.
        -11    1    1    2    0    0  0.25974361393E+02 -0.28500341490E+02 -0.26657232545E+02  0.46877979498E+02  0.00000000000E+00 0.  1.
         11    1    1    2    0    0 -0.35031654778E+01 -0.36422656501E+02  0.59947041976E+02  0.70231972183E+02  0.00000000000E+00 0. -1.
</event>
<event>
 7    1  0.2820496E-009  0.1063923E+03  0.7561462E-02  0.1267400E+00
          2   -1    0    0  501    0  0.00000000000E+00  0.00000000000E+00  0.43648383882E+02  0.43648383882E+02  0.00000000000E+00 0. -1.
         -2   -1    0    0    0  501 -0.00000000000E+00 -0.00000000000E+00 -0.28382946654E+03  0.28382946654E+03  0.00000000000E+00 0.  1.
         25    2    1    2    0    0 -0.14182269564E+02 -0.10186497398E+02 -0.11621014312E+03  0.17163126978E+03  0.12509034296E+03 0.  0.
          5    1    3    3  502    0  0.51971998907E+02 -0.62186271562E+01 -0.80832401610E+02  0.96390401722E+02  0.41800000000E+01 0.  1.
         -5    1    3    3    0  502 -0.66154268471E+02 -0.39678702421E+01 -0.35377741513E+02  0.75240868055E+02  0.41800000000E+01 0.  1.
        -11    1    1    2    0    0  0.35779538431E+02  0.42153831463E+02 -0.64459802780E+02  0.84924596271E+02  0.00000000000E+00 0.  1.
         11    1    1    2    0    0 -0.21597268867E+02 -0.31967334065E+02 -0.59511136755E+02  0.70921984375E+02  0.00000000000E+00 0. -1.
</event>
<event>
 7    1  0.2820496E-009  0.1702144E+03  0.7561462E-02  0.1177624E+00
         -1   -1    0    0    0  501 -0.00000000000E+00  0.00000000000E+00  0.12320285098E+04  0.12320285098E+04  0.00000000000E+00 0.  1.
          1   -1    0    0  501    0  0.00000000000E+00 -0.00000000000E+00 -0.31980691901E+02  0.31980691901E+02  0.00000000000E+00 0. -1.
         25    2    1    2    0    0 -0.14759584375E+03  0.72900561448E+02  0.56963894445E+03  0.60599952636E+03  0.12509146236E+03 0.  0.
          5    1    3    3  502    0 -0.96689359297E+02  0.75179149458E+02  0.21319372279E+03  0.24590602382E+03  0.41800000000E+01 0. -1.
         -5    1    3    3    0  502 -0.50906484457E+02 -0.22785880108E+01  0.35644522166E+03  0.36009350254E+03  0.41800000000E+01 0. -1.
        -11    1    1    2    0    0  0.32587771376E+02 -0.29085233656E+02  0.58497110110E+02  0.73005654242E+02  0.00000000000E+00 0. -1.
         11    1    1    2    0    0  0.11500807238E+03 -0.43815327791E+02  0.57191176331E+03  0.58500402108E+03  0.00000000000E+00 0.  1.
</event>
<event>
 7    1  0.2820496E-009  0.1079618E+03  0.7561462E-02  0.1264392E+00
          1   -1    0    0  501    0  0.00000000000E+00  0.00000000000E+00  0.52630925493E+02  0.52630925493E+02  0.00000000000E+00 0. -1.
         -1   -1    0    0    0  501 -0.00000000000E+00 -0.00000000000E+00 -0.33519262367E+03  0.33519262367E+03  0.00000000000E+00 0.  1.
         25    2    1    2    0    0 -0.41366191960E+02  0.53417619513E+02 -0.10351657119E+03  0.17586429708E+03  0.12509183252E+03 0.  0.
          5    1    3    3  502    0 -0.32717665617E+02  0.93465074983E+02 -0.59577819420E+02  0.11564235752E+03  0.41800000000E+01 0. -1.
         -5    1    3    3    0  502 -0.86485263436E+01 -0.40047455470E+02 -0.43938751772E+02  0.60221939564E+02  0.41800000000E+01 0. -1.
        -11    1    1    2    0    0 -0.35575110753E+01 -0.18197199500E+02  0.50498064310E+01  0.19217036704E+02  0.00000000000E+00 0. -1.
         11    1    1    2    0    0  0.44923703035E+02 -0.35220420013E+02 -0.18409493341E+03  0.19274221538E+03  0.00000000000E+00 0.  1.
</event>
<event>
 7    1  0.2820496E-009  0.9947054E+02  0.7561462E-02  0.1281413E+00
         -2   -1    0    0    0  501 -0.00000000000E+00  0.00000000000E+00  0.13644489805E+02  0.13644489805E+02  0.00000000000E+00 0.  1.
          2   -1    0    0  501    0  0.00000000000E+00 -0.00000000000E+00 -0.13018952817E+04  0.13018952817E+04  0.00000000000E+00 0. -1.
         25    2    1    2    0    0 -0.54383526550E+02 -0.53697247492E+02 -0.75772361958E+03  0.77176974749E+03  0.12506996891E+03 0.  0.
          5    1    3    3  502    0 -0.52167790069E+00 -0.89629057943E+01  0.86887049248E+00  0.99414870136E+01  0.41800000000E+01 0.  1.
         -5    1    3    3    0  502 -0.53861848649E+02 -0.44734341698E+02 -0.75859249008E+03  0.76182826048E+03  0.41800000000E+01 0.  1.
        -11    1    1    2    0    0  0.74124003507E+02  0.15247971558E+02 -0.31636917470E+03  0.32529421026E+03  0.00000000000E+00 0.  1.
         11    1    1    2    0    0 -0.19740476957E+02  0.38449275934E+02 -0.21415799759E+03  0.21847581373E+03  0.00000000000E+00 0. -1.
</event>
<event>
 7    1  0.2820496E-009  0.1496302E+03  0.7561462E-02  0.1200928E+00
          2   -1    0    0  501    0  0.00000000000E+00  0.00000000000E+00  0.49224649882E+03  0.49224649882E+03  0.00000000000E+00 0. -1.
         -2   -1    0    0    0  501 -0.00000000000E+00 -0.00000000000E+00 -0.47502128501E+02  0.47502128501E+02  0.00000000000E+00 0.  1.
         25    2    1    2    0    0  0.96196116601E+02 -0.41955277375E+02  0.28378368763E+03  0.32740648400E+03  0.12509151151E+03 0.  0.
          5    1    3    3  502    0  0.63234143314E+02  0.39938175555E+02  0.12989785506E+03  0.14994845747E+03  0.41800000000E+01 0. -1.
         -5    1    3    3    0  502  0.32961973287E+02 -0.81893452929E+02  0.15388583256E+03  0.17745802653E+03  0.41800000000E+01 0. -1.
        -11    1    1    2    0    0 -0.73882189417E+02 -0.14481609351E+02  0.68765772966E+02  0.10196581022E+03  0.00000000000E+00 0.  1.
         11    1    1    2    0    0 -0.22313927184E+02  0.56436886726E+02  0.92194909723E+02  0.11037633310E+03  0.00000000000E+00 0. -1.
</event>
<event>
 7    1  0.2820496E-009  0.1777994E+03  0.7561462E-02  0.1169950E+00
          2   -1    0    0  501    0  0.00000000000E+00  0.00000000000E+00  0.24887254576E+04  0.24887254576E+04  0.00000000000E+00 0. -1.
         -2   -1    0    0    0  501 -0.00000000000E+00 -0.00000000000E+00 -0.19863334042E+02  0.19863334042E+02  0.00000000000E+00 0.  1.
         25    2    1    2    0    0 -0.11890293163E+03  0.84340109480E+02  0.20011083527E+04  0.20103073686E+04  0.12509962311E+03 0.  0.
          5    1    3    3  502    0 -0.50994547026E+02  0.10711905601E+03  0.11161404126E+04  0.11224356681E+04  0.41800000000E+01 0. -1.
         -5    1    3    3    0  502 -0.67908384605E+02 -0.22778946531E+02  0.88496794013E+03  0.88787170051E+03  0.41800000000E+01 0. -1.
        -11    1    1    2    0    0  0.45392292573E+02  0.90518922695E+01  0.76886849195E+02  0.89743994550E+02  0.00000000000E+00 0.  1.
         11    1    1    2    0    0  0.73510639058E+02 -0.93392001749E+02  0.39086692169E+03  0.40853742854E+03  0.00000000000E+00 0. -1.
</event>
<event>
 7    1  0.2820496E-009  0.1127309E+03  0.7561462E-02  0.1255595E+00
         -2   -1    0    0    0  501 -0.00000000000E+00  0.00000000000E+00  0.18864442455E+03  0.18864442455E+03  0.00000000000E+00 0. -1.
          2   -1    0    0  501    0  0.00000000000E+00 -0.00000000000E+00 -0.69746332209E+02  0.69746332209E+02  0.00000000000E+00 0.  1.
         25    2    1    2    0    0  0.73786004434E+01 -0.34845133209E+02  0.55286111195E+02  0.14132692615E+03  0.12509244146E+03 0.  0.
          5    1    3    3  502    0  0.20002197455E+02 -0.80096463896E+02  0.31065649857E+02  0.88306729260E+02  0.41800000000E+01 0.  1.
         -5    1    3    3    0  502 -0.12623597012E+02  0.45251330686E+02  0.24220461338E+02  0.53020196886E+02  0.41800000000E+01 0.  1.
        -11    1    1    2    0    0 -0.17616234044E+02  0.63136618906E+02  0.30413381882E+02  0.72260211364E+02  0.00000000000E+00 0.  1.
         11    1    1    2    0    0  0.10237633601E+02 -0.28291485697E+02  0.33198599261E+02  0.44803619247E+02  0.00000000000E+00 0. -1.
</event>
<event>
 7    1  0.2820496E-009  0.9843377E+02  0.7561462E-02  0.1283624E+00
         -2   -1    0    0    0  501 -0.00000000000E+00  0.00000000000E+00  0.32007951222E+02  0.32007951222E+02  0.00000000000E+00 0.  1.
          2   -1    0    0  501    0  0.00000000000E+00 -0.00000000000E+00 -0.52356923341E+03  0.52356923341E+03  0.00000000000E+00 0. -1.
         25    2    1    2    0    0  0.43759819639E+02 -0.51782952035E+02 -0.30215132102E+03  0.33397929827E+03  0.12510137866E+03 0.  0.
          5    1    3    3  502    0  0.40741675433E+02 -0.10021276953E+02 -0.28570707059E+03  0.28880151089E+03  0.41800000000E+01 0. -1.
         -5    1    3    3    0  502  0.30181442065E+01 -0.41761675082E+02 -0.16444250427E+02  0.45177787376E+02  0.41800000000E+01 0. -1.
        -11    1    1    2    0    0 -0.71480967916E+02  0.43569229875E+02 -0.15866085037E+03  0.17939083590E+03  0.00000000000E+00 0.  1.
         11    1    1    2    0    0  0.27721148277E+02  0.82137221602E+01 -0.30749110805E+02  0.42207050463E+02  0.00000000000E+00 0. -1.
</event>
<event>
 7    1  0.2820496E-009  0.1070628E+03  0.7561462E-02  0.1266108E+00
          2   -1    0    0  501    0  0.00000000000E+00  0.00000000000E+00  0.77579285464E+03  0.77579285464E+03  0.00000000000E+00 0. -1.
         -2   -1    0    0    0  501 -0.00000000000E+00 -0.00000000000E+00 -0.15795432189E+02  0.15795432189E+02  0.00000000000E+00 0.  1.
         25    2    1    2    0    0  0.49724438064E+01  0.83708889256E+01  0.34218860549E+03  0.36446408818E+03  0.12508490262E+03 0.  0.
          5    1    3    3  502    0 -0.58175231055E+02  0.18823903369E+02  0.17133701259E+03  0.18196851686E+03  0.41800000000E+01 0. -1.
         -5    1    3    3    0  502  0.63147674861E+02 -0.10453014444E+02  0.17085159291E+03  0.18249557132E+03  0.41800000000E+01 0. -1.
        -11    1    1    2    0    0 -0.99917177746E+01 -0.47857970174E+02  0.23515602660E+03  0.24018446365E+03  0.00000000000E+00 0. -1.
         11    1    1    2    0    0  0.50192739681E+01  0.39487081248E+02  0.18265279036E+03  0.18693973500E+03  0.00000000000E+00 0.  1.
</event>
<event>
 7    1  0.2820496E-009  0.1480326E+03  0.7561462E-02  0.1202912E+00
         -2   -1    0    0    0  501 -0.00000000000E+00  0.00000000000E+00  0.22364877949E+02  0.22364877949E+02  0.00000000000E+00 0.  1.
          2   -1    0    0  501    0  0.00000000000E+00 -0.00000000000E+00 -0.13259220438E+04  0.13259220438E+04  0.00000000000E+00 0. -1.
         25    2    1    2    0    0 -0.10202917553E+03 -0.66675535972E+02 -0.86257945823E+03  0.88008361434E+03  0.12509303224E+03 0.  0.
          5    1    3    3  502    0 -0.16300002263E+02  0.36367197589E+02 -0.17239141199E+03  0.17698738503E+03  0.41800000000E+01 0. -1.
         -5    1    3    3    0  502 -0.85729173262E+02 -0.10304273356E+03 -0.69018804624E+03  0.70309622930E+03  0.41800000000E+01 0. -1.
        -11    1    1    2    0    0  0.62084454308E+02  0.40093227792E+02 -0.39463681256E+03  0.40149739751E+03  0.00000000000E+00 0. -1.
         11    1    1    2    0    0  0.39944721218E+02  0.26582308180E+02 -0.46340895092E+02  0.66705909927E+02  0.00000000000E+00 0.  1.
</event>
<event>
 7    1  0.2820496E-009  0.1192087E+03  0.7561462E-02  0.1244408E+00
          4   -1    0    0  501    0  0.00000000000E+00  0.00000000000E+00  0.14549425341E+03  0.14549425341E+03  0.00000000000E+00 0. -1.
         -4   -1    0    0    0  501 -0.00000000000E+00 -0.00000000000E+00 -0.15828624042E+03  0.15828624042E+03  0.00000000000E+00 0.  1.
         25    2    1    2    0    0  0.75546901280E+02 -0.67482790450E+02  0.25003017647E+02  0.16289320912E+03  0.12509110834E+03 0.  0.
          5    1    3    3  502    0  0.53980924771E+02 -0.78214673955E+02  0.65565313536E+02  0.11553249846E+03  0.41800000000E+01 0. -1.
         -5    1    3    3    0  502  0.21565976509E+02  0.10731883505E+02 -0.40562295889E+02  0.47360710660E+02  0.41800000000E+01 0. -1.
        -11    1    1    2    0    0 -0.74415700297E+02  0.28255813374E+02  0.86668994311E+01  0.80069985549E+02  0.00000000000E+00 0. -1.
         11    1    1    2    0    0 -0.11312009832E+01  0.39226977076E+02 -0.46461904084E+02  0.60817299162E+02  0.00000000000E+00 0.  1.
</event>
<event>
 7    1  0.2820496E-009  0.1845288E+03  0.7561462E-02  0.1163491E+00
         -1   -1    0    0    0  501 -0.00000000000E+00  0.00000000000E+00  0.17466714770E+02  0.17466714770E+02  0.00000000000E+00 0.  1.
          1   -1    0    0  501    0  0.00000000000E+00 -0.00000000000E+00 -0.21685491978E+04  0.21685491978E+04  0.00000000000E+00 0. -1.
         25    2    1    2    0    0 -0.11455376751E+03 -0.10400459241E+03 -0.13829669829E+04  0.13972057759E+04  0.12508710378E+03 0.  0.
          5    1    3    3  502    0  0.21183796215E+02  0.27964240754E+01 -0.82986444391E+02  0.85795078894E+02  0.41800000000E+01 0. -1.
         -5    1    3    3    0  502 -0.13573756372E+03 -0.10680101648E+03 -0.12999805385E+04  0.13114106970E+04  0.41800000000E+01 0. -1.
        -11    1    1    2    0    0  0.78028519650E+02  0.16581290628E+02 -0.44485847145E+03  0.45195403384E+03  0.00000000000E+00 0.  1.
         11    1    1    2    0    0  0.36525247857E+02  0.87423301780E+02 -0.32325702865E+03  0.33685610281E+03  0.00000000000E+00 0. -1.
</event>
<event>
 7    1  0.2820496E-009  0.1058715E+03  0.7561462E-02  0.1268412E+00
         -2   -1    0    0    0  501 -0.00000000000E+00  0.00000000000E+00  0.18161680970E+02  0.18161680970E+02  0.00000000000E+00 0.  1.
          2   -1    0    0  501    0  0.00000000000E+00 -0.00000000000E+00 -0.76154750847E+03  0.76154750847E+03  0.00000000000E+00 0. -1.
         25    2    1    2    0    0 -0.16461449683E+02  0.42766589748E+02 -0.37240365169E+03  0.39551589949E+03  0.12509351074E+03 0.  0.
          5    1    3    3  502    0 -0.58023402467E+02  0.45195229774E+02 -0.32044750527E+03  0.32880602194E+03  0.41800000000E+01 0.  1.
         -5    1    3    3    0  502  0.41561952784E+02 -0.24286400255E+01 -0.51956146417E+02  0.66709877546E+02  0.41800000000E+01 0.  1.
        -11    1    1    2    0    0 -0.15676391744E+02  0.20182649897E+02 -0.15065788594E+03  0.15280997091E+03  0.00000000000E+00 0. -1.
         11    1    1    2    0    0  0.32137841427E+02 -0.62949239645E+02 -0.22032428987E+03  0.23138331904E+03  0.00000000000E+00 0.  1.
</event>
<event>
 7    1  0.2820496E-009  0.7565676E+02  0.7561462E-02  0.1341849E+00
          2   -1    0    0  501    0  0.00000000000E+00  0.00000000000E+00  0.82161689908E+02  0.82161689908E+02  0.00000000000E+00 0. -1.
         -2   -1    0    0    0  501 -0.00000000000E+00 -0.00000000000E+00 -0.15029699074E+03  0.15029699074E+03  0.00000000000E+00 0.  1.
         25    2    1    2    0    0  0.13512266855E+02 -0.10346560438E+02 -0.25248277637E+02  0.12873544468E+03  0.12508279868E+03 0.  0.
          5    1    3    3  502    0  0.30334972198E+02 -0.56525581290E+02 -0.41829679206E+02  0.76697759686E+02  0.41800000000E+01 0.  1.
         -5    1    3    3    0  502 -0.16822705342E+02  0.46179020853E+02  0.16581401569E+02  0.52037684998E+02  0.41800000000E+01 0.  1.
        -11    1    1    2    0    0  0.10896306767E+02  0.72714058366E+01 -0.67597026417E+02  0.68854635461E+02  0.00000000000E+00 0.  1.
         11    1    1    2    0    0 -0.24408573622E+02  0.30751546009E+01  0.24710003220E+02  0.34868600506E+02  0.00000000000E+00 0. -1.
</event>
<event>
 7    1  0.2820496E-009  0.9841990E+02  0.7561462E-02  0.1283654E+00
          1   -1    0    0  501    0  0.00000000000E+00  0.00000000000E+00  0.15395675655E+02  0.15395675655E+02  0.00000000000E+00 0. -1.
         -1   -1    0    0    0  501 -0.00000000000E+00 -0.00000000000E+00 -0.94012515637E+03  0.94012515637E+03  0.00000000000E+00 0.  1.
         25    2    1    2    0    0  0.29510697529E+02 -0.10014257048E+02 -0.69339513506E+03  0.70527708138E+03  0.12509109311E+03 0.  0.
          5    1    3    3  502    0  0.70623673817E+02 -0.29581219614E+02 -0.53315061311E+03  0.53863698399E+03  0.41800000000E+01 0. -1.
         -5    1    3    3    0  502 -0.41112976289E+02  0.19566962566E+02 -0.16024452195E+03  0.16664009739E+03  0.41800000000E+01 0. -1.
        -11    1    1    2    0    0 -0.44609184476E+02 -0.13395924234E+02 -0.21014241357E+03  0.21524233809E+03  0.00000000000E+00 0.  1.
         11    1    1    2    0    0  0.15098486948E+02  0.23410181282E+02 -0.21191932089E+02  0.35001412563E+02  0.00000000000E+00 0. -1.
</event>
<event>
 7    1  0.2820496E-009  0.1679795E+03  0.7561462E-02  0.1179971E+00
         -2   -1    0    0    0  501 -0.00000000000E+00  0.00000000000E+00  0.30619449355E+02  0.30619449355E+02  0.00000000000E+00 0.  1.
          2   -1    0    0  501    0  0.00000000000E+00 -0.00000000000E+00 -0.10266808484E+04  0.10266808484E+04  0.00000000000E+00 0. -1.
         25    2    1    2    0    0  0.10570932856E+03  0.91943316679E+02 -0.51614633488E+03  0.54925519156E+03  0.12508473456E+03 0.  0.
          5    1    3    3  502    0 -0.27396137074E+02  0.25373173532E+02 -0.13277557291E+03  0.13798975115E+03  0.41800000000E+01 0.  1.
         -5    1    3    3    0  502  0.13310546563E+03  0.66570143147E+02 -0.38337076197E+03  0.41126544041E+03  0.41800000000E+01 0.  1.
        -11    1    1    2    0    0 -0.69165385457E+02 -0.25583728185E+02 -0.34974601251E+03  0.35743621943E+03  0.00000000000E+00 0. -1.
         11    1    1    2    0    0 -0.36543943103E+02 -0.66359588493E+02 -0.13016905163E+03  0.15060888674E+03  0.00000000000E+00 0.  1.
</event>
<event>
 7    1  0.2820496E-009  0.5643030E+02  0.7561462E-02  0.1413453E+00
         -3   -1    0    0    0  501 -0.00000000000E+00  0.00000000000E+00  0.12674334891E+03  0.12674334891E+03  0.00000000000E+00 0.  1.
          3   -1    0    0  501    0  0.00000000000E+00 -0.00000000000E+00 -0.11161363386E+03  0.11161363386E+03  0.00000000000E+00 0. -1.
         25    2    1    2    0    0 -0.87380527802E+01  0.44969597249E+02 -0.11181131835E+02  0.13368780462E+03  0.12509513640E+03 0.  0.
          5    1    3    3  502    0 -0.68694025641E+00  0.12335433021E+02  0.56509795174E+02  0.57995380379E+02  0.41800000000E+01 0. -1.
         -5    1    3    3    0  502 -0.80511125238E+01  0.32634164228E+02 -0.67690927008E+02  0.75692424238E+02  0.41800000000E+01 0. -1.
        -11    1    1    2    0    0  0.22443216716E+02 -0.47007839485E+02  0.53177636863E+02  0.74439881864E+02  0.00000000000E+00 0.  1.
         11    1    1    2    0    0 -0.13705163935E+02  0.20382422361E+01 -0.26866789984E+02  0.30229296286E+02  0.00000000000E+00 0. -1.
</event>
<event>
 7    1  0.2820496E-009  0.9883572E+02  0.7561462E-02  0.1282763E+00
         -2   -1    0    0    0  501 -0.00000000000E+00  0.00000000000E+00  0.10044132863E+03  0.10044132863E+03  0.00000000000E+00 0. -1.
          2   -1    0    0  501    0  0.00000000000E+00 -0.00000000000E+00 -0.18842159439E+03  0.18842159439E+03  0.00000000000E+00 0.  1.
         25    2    1    2    0    0  0.28064954454E+01 -0.22999804468E+02  0.36851916602E+02  0.13244852183E+03  0.12509068612E+03 0.  0.
          5    1    3    3  502    0 -0.54754173015E+02  0.73716620258E+01 -0.39063492293E+01  0.55543611945E+02  0.41800000000E+01 0. -1.
         -5    1    3    3    0  502  0.57560668461E+02 -0.30371466494E+02  0.40758265832E+02  0.76904909884E+02  0.41800000000E+01 0. -1.
        -11    1    1    2    0    0  0.11888949171E+01  0.49869781910E+02 -0.31006158145E+02  0.58734916888E+02  0.00000000000E+00 0.  1.
         11    1    1    2    0    0 -0.39953903625E+01 -0.26869977442E+02 -0.93826024223E+02  0.97679484301E+02  0.00000000000E+00 0. -1.
</event>
<event>
 7    1  0.2820496E-009  0.8613727E+02  0.7561462E-02  0.1312485E+00
         -2   -1    0    0    0  501 -0.00000000000E+00  0.00000000000E+00  0.12105173975E+03  0.12105173975E+03  0.00000000000E+00 0.  1.
          2   -1    0    0  501    0  0.00000000000E+00 -0.00000000000E+00 -0.14349105284E+03  0.14349105284E+03  0.00000000000E+00 0. -1.
         25    2    1    2    0    0 -0.36439396555E+02  0.25342559037E+02 -0.72904389821E+02  0.15143536565E+03  0.12509014748E+03 0.  0.
          5    1    3    3  502    0 -0.88366702253E+01  0.53344590300E+02  0.13954773915E+02  0.55999465801E+02  0.41800000000E+01 0.  1.
         -5    1    3    3    0  502 -0.27602726330E+02 -0.28002031263E+02 -0.86859163736E+02  0.95435899852E+02  0.41800000000E+01 0.  1.
        -11    1    1    2    0    0  0.43122822081E+02  0.85441190948E+01  0.62603656190E+02  0.76497042582E+02  0.00000000000E+00 0.  1.
         11    1    1    2    0    0 -0.66834255262E+01 -0.33886678132E+02 -0.12138579454E+02  0.36610384357E+02  0.00000000000E+00 0. -1.
</event>
<event>
 7    1  0.2820496E-009  0.1253897E+03  0.7561462E-02  0.1234462E+00
          2   -1    0    0  501    0  0.00000000000E+00  0.00000000000E+00  0.14025856915E+04  0.14025856915E+04  0.00000000000E+00 0. -1.
         -2   -1    0    0    0  501 -0.00000000000E+00 -0.00000000000E+00 -0.21020751478E+02  0.21020751478E+02  0.00000000000E+00 0.  1.
         25    2    1    2    0    0 -0.47594033637E+02 -0.66284035117E+02  0.11652982208E+04  0.11748304867E+04  0.12509182165E+03 0.  0.
          5    1    3    3  502    0  0.33874399738E+02  0.39551839205E+00  0.13863626405E+03  0.14277645991E+03  0.41800000000E+01 0. -1.
         -5    1    3    3    0  502 -0.81468433376E+02 -0.66679553509E+02  0.10266619567E+04  0.10320540268E+04  0.41800000000E+01 0. -1.
        -11    1    1    2    0    0  0.14398469413E+02  0.75479060529E+02  0.19152844533E+03  0.20636751166E+03  0.00000000000E+00 0. -1.
         11    1    1    2    0    0  0.33195564225E+02 -0.91950254128E+01  0.24738273928E+02  0.42408444601E+02  0.00000000000E+00 0.  1.
</event>
<event>
 7    1  0.2820496E-009  0.2015609E+03  0.7561462E-02  0.1148429E+00
          2   -1    0    0  501    0  0.00000000000E+00  0.00000000000E+00  0.23828371230E+03  0.23828371230E+03  0.00000000000E+00 0. -1.
         -2   -1    0    0    0  501 -0.00000000000E+00 -0.00000000000E+00 -0.21519079521E+03  0.21519079521E+03  0.00000000000E+00 0.  1.
         25    2    1    2    0    0 -0.18852728629E+03  0.14738238087E+02 -0.45275625601E+02  0.23121047151E+03  0.12509455034E+03 0.  0.
          5    1    3    3  502    0 -0.56633556152E+02  0.46287991242E+02 -0.60051680886E+02  0.94729164426E+02  0.41800000000E+01 0.  1.
         -5    1    3    3    0  502 -0.13189373014E+03 -0.31549753155E+02  0.14776055284E+02  0.13648130708E+03  0.41800000000E+01 0.  1.
        -11    1    1    2    0    0  0.76520420212E+02 -0.27800572482E+02 -0.14013154690E+02  0.82611228318E+02  0.00000000000E+00 0.  1.
         11    1    1    2    0    0  0.11200686608E+03  0.13062334395E+02  0.82381697381E+02  0.13965280767E+03  0.00000000000E+00 0. -1.
</event>
<event>
 7    1  0.2820496E-009  0.7434834E+02  0.7561462E-02  0.1345901E+00
         -1   -1    0    0    0  501 -0.00000000000E+00  0.00000000000E+00  0.13740001867E+02  0.13740001867E+02  0.00000000000E+00 0.  1.
          1   -1    0    0  501    0  0.00000000000E+00 -0.00000000000E+00 -0.94029549980E+03  0.94029549980E+03  0.00000000000E+00 0. -1.
         25    2    1    2    0    0  0.64562909510E+01 -0.16137744900E+02 -0.52052901636E+03  0.53562964450E+03  0.12508616507E+03 0.  0.
          5    1    3    3  502    0  0.27240236520E+02 -0.61943201924E+01 -0.20136046667E+02  0.34689088539E+02  0.41800000000E+01 0.  1.
         -5    1    3    3    0  502 -0.20783945569E+02 -0.99434247076E+01 -0.50039296969E+03  0.50094055596E+03  0.41800000000E+01 0.  1.
        -11    1    1    2    0    0 -0.49463465135E+02  0.21031791607E+02 -0.16530610988E+03  0.17382485612E+03  0.00000000000E+00 0.  1.
         11    1    1    2    0    0  0.43007174184E+02 -0.48940467075E+01 -0.24072037170E+03  0.24458100105E+03  0.00000000000E+00 0. -1.
</event>
<event>
 7    1  0.2820496E-009  0.1587797E+03  0.7561462E-02  0.1190081E+00
          2   -1    0    0  501    0  0.00000000000E+00  0.00000000000E+00  0.49396230515E+03  0.49396230515E+03  0.00000000000E+00 0.  1.
         -2   -1    0    0    0  501 -0.00000000000E+00 -0.00000000000E+00 -0.52517126188E+02  0.52517126188E+02  0.00000000000E+00 0. -1.
         25    2    1    2    0    0 -0.24410610954E+01  0.11687404279E+03  0.22121965083E+03  0.27973524455E+03  0.12509265556E+03 0.  0.
          5    1    3    3  502    0  0.14123512303E+02  0.13926476196E+03  0.20137374637E+03  0.24528148248E+03  0.41800000000E+01 0. -1.
         -5    1    3    3    0  502 -0.16564573399E+02 -0.22390719171E+02  0.19845904466E+02  0.34453762073E+02  0.41800000000E+01 0. -1.
        -11    1    1    2    0    0 -0.36503235253E+02 -0.13554335532E+02  0.72738113813E+02  0.82504784084E+02  0.00000000000E+00 0.  1.
         11    1    1    2    0    0  0.38944296348E+02 -0.10331970725E+03  0.14748741431E+03  0.18423940270E+03  0.00000000000E+00 0. -1.
</event>
<event>
 7    1  0.2820496E-009  0.1076993E+03  0.7561462E-02  0.1264891E+00
          2   -1    0    0  501    0  0.00000000000E+00  0.00000000000E+00  0.14704936953E+04  0.14704936953E+04  0.00000000000E+00 0. -1.
         -2   -1    0    0    0  501 -0.00000000000E+00 -0.00000000000E+00 -0.95094199914E+01  0.95094199914E+01  0.00000000000E+00 0.  1.
         25    2    1    2    0    0  0.25024141180E+01  0.87952365846E+01  0.10875358212E+04  0.10947438009E+04  0.12508480648E+03 0.  0.
          5    1    3    3  502    0 -0.59902250390E+02 -0.60661405892E+01  0.58771469090E+03  0.59080547388E+03  0.41800000000E+01 0. -1.
         -5    1    3    3    0  502  0.62404664508E+02  0.14861377174E+02  0.49982113031E+03  0.50393832697E+03  0.41800000000E+01 0. -1.
        -11    1    1    2    0    0  0.42723326682E+02  0.60713006759E+01  0.12361608312E+03  0.13093158267E+03  0.00000000000E+00 0.  1.
         11    1    1    2    0    0 -0.45225740800E+02 -0.14866537260E+02  0.24983237101E+03  0.25432773181E+03  0.00000000000E+00 0. -1.
</event>
<event>
 7    1  0.2820496E-009  0.1350617E+03  0.7561462E-02  0.1220133E+00
          2   -1    0    0  501    0  0.00000000000E+00  0.00000000000E+00  0.81705512705E+03  0.81705512705E+03  0.00000000000E+00 0. -1.
         -2   -1    0    0    0  501 -0.00000000000E+00 -0.00000000000E+00 -0.24511620998E+02  0.24511620998E+02  0.00000000000E+00 0.  1.
         25    2    1    2    0    0 -0.15355913635E+02  0.89485199729E+02  0.46414165212E+03  0.48920192351E+03  0.12509054194E+03 0.  0.
          5    1    3    3  502    0  0.10745709397E+02 -0.27370342770E+02  0.50777415416E+02  0.58825370803E+02  0.41800000000E+01 0. -1.
         -5    1    3    3    0  502 -0.26101623032E+02  0.11685554250E+03  0.41336423670E+03  0.43037655271E+03  0.41800000000E+01 0. -1.
        -11    1    1    2    0    0  0.13825564431E+02  0.12488194528E+02  0.19093642867E+02  0.26677114393E+02  0.00000000000E+00 0.  1.
         11    1    1    2    0    0  0.15303492043E+01 -0.10197339426E+03  0.30930821107E+03  0.32568771015E+03  0.00000000000E+00 0. -1.
</event>
<event>
 7    1  0.2820496E-009  0.9367150E+02  0.7561462E-02  0.1294197E+00
          1   -1    0    0  501    0  0.00000000000E+00  0.00000000000E+00  0.44433937526E+03  0.44433937526E+03  0.00000000000E+00 0. -1.
         -1   -1    0    0    0  501 -0.00000000000E+00 -0.00000000000E+00 -0.41006554066E+02  0.41006554066E+02  0.00000000000E+00 0.  1.
         25    2    1    2    0    0 -0.56025183104E+02 -0.29902942025E+02  0.33127481759E+03  0.35975460054E+03  0.12508941107E+03 0.  0.
          5    1    3    3  502    0  0.99416420074E+01 -0.22500037608E+02  0.26391117591E+03  0.26508804029E+03  0.41800000000E+01 0.  1.
         -5    1    3    3    0  502 -0.65966825111E+02 -0.74029044174E+01  0.67363641678E+02  0.94666560248E+02  0.41800000000E+01 0.  1.
        -11    1    1    2    0    0 -0.27677769190E+01  0.36601620119E+02  0.64995001130E+01  0.37277106730E+02  0.00000000000E+00 0.  1.
         11    1    1    2    0    0  0.58792960023E+02 -0.66986780935E+01  0.65558503494E+02  0.88314222053E+02  0.00000000000E+00 0. -1.
</event>
<event>
 7    1  0.2820496E-009  0.1106070E+03  0.7561462E-02  0.1259450E+00
          1   -1    0    0  501    0  0.00000000000E+00  0.00000000000E+00  0.12344024159E+03  0.12344024159E+03  0.00000000000E+00 0. -1.
         -1   -1    0    0    0  501 -0.00000000000E+00 -0.00000000000E+00 -0.11689307569E+03  0.11689307569E+03  0.00000000000E+00 0.  1.
         25    2    1    2    0    0  0.27527336598E+02  0.60060634685E+01 -0.39357415323E+02  0.13412708671E+03  0.12508893712E+03 0.  0.
          5    1    3    3  502    0 -0.40323215133E+01 -0.56296687039E+02 -0.28357926265E+02  0.63302614246E+02  0.41800000000E+01 0.  1.
         -5    1    3    3    0  502  0.31559658112E+02  0.62302750507E+02 -0.10999489057E+02  0.70824472468E+02  0.41800000000E+01 0.  1.
        -11    1    1    2    0    0 -0.47548887972E+02  0.28007709253E+02  0.34661777799E+02  0.65167226158E+02  0.00000000000E+00 0.  1.
         11    1    1    2    0    0  0.20021551374E+02 -0.34013772721E+02  0.11242803424E+02  0.41039004410E+02  0.00000000000E+00 0. -1.
</event>
<event>
 7    1  0.2820496E-009  0.7951696E+02  0.7561462E-02  0.1330428E+00
         -2   -1    0    0    0  501 -0.00000000000E+00  0.00000000000E+00  0.21772565261E+02  0.21772565261E+02  0.00000000000E+00 0.  1.
          2   -1    0    0  501    0  0.00000000000E+00 -0.00000000000E+00 -0.53469339093E+03  0.53469339093E+03  0.00000000000E+00 0. -1.
         25    2    1    2    0    0 -0.16981452939E+02  0.29598567211E+01 -0.26304184413E+03  0.29178958157E+03  0.12511202042E+03 0.  0.
          5    1    3    3  502    0 -0.16340351694E+02 -0.38068711565E+02 -0.21708675818E+02  0.46957138962E+02  0.41800000000E+01 0.  1.
         -5    1    3    3    0  502 -0.64110124471E+00  0.41028568287E+02 -0.24133316831E+03  0.24483244261E+03  0.41800000000E+01 0.  1.
        -11    1    1    2    0    0  0.39275285460E+02  0.20062433198E+02 -0.76006457336E+02  0.87875086518E+02  0.00000000000E+00 0.  1.
         11    1    1    2    0    0 -0.22293832522E+02 -0.23022289919E+02 -0.17387252421E+03  0.17680128811E+03  0.00000000000E+00 0. -1.
</event>
<event>
 7    1  0.2820496E-009  0.2357614E+03  0.7561462E-02  0.1122649E+00
          2   -1    0    0  501    0  0.00000000000E+00  0.00000000000E+00  0.97676937476E+03  0.97676937476E+03  0.00000000000E+00 0.  1.
         -2   -1    0    0    0  501 -0.00000000000E+00 -0.00000000000E+00 -0.10075133184E+03  0.10075133184E+03  0.00000000000E+00 0. -1.
         25    2    1    2    0    0  0.77064505265E+01 -0.22201786120E+03  0.77703247156E+03  0.81778831102E+03  0.12508772806E+03 0.  0.
          5    1    3    3  502    0  0.58655238385E+02 -0.12717737350E+03  0.53148326687E+03  0.54964211691E+03  0.41800000000E+01 0. -1.
         -5    1    3    3    0  502 -0.50948787858E+02 -0.94840487699E+02  0.24554920469E+03  0.26814619411E+03  0.41800000000E+01 0. -1.
        -11    1    1    2    0    0  0.87966258656E+01  0.12021862403E+03  0.99967473668E+02  0.15659946993E+03  0.00000000000E+00 0.  1.
         11    1    1    2    0    0 -0.16503076392E+02  0.10179923717E+03 -0.98190231404E+00  0.10313292564E+03  0.00000000000E+00 0. -1.
</event>
<event>
 7    1  0.2820496E-009  0.1286582E+03  0.7561462E-02  0.1229460E+00
         -1   -1    0    0    0  501 -0.00000000000E+00  0.00000000000E+00  0.20010818633E+03  0.20010818633E+03  0.00000000000E+00 0.  1.
          1   -1    0    0  501    0  0.00000000000E+00 -0.00000000000E+00 -0.96454308057E+02  0.96454308057E+02  0.00000000000E+00 0. -1.
         25    2    1    2    0    0  0.30090408858E+02  0.78430118037E+02  0.79744824870E+02  0.17048313257E+03  0.12509414565E+03 0.  0.
          5    1    3    3  502    0  0.67885142725E+02  0.65869628397E+01  0.26389218964E+02  0.73250556037E+02  0.41800000000E+01 0.  1.
         -5    1    3    3    0  502 -0.37794733867E+02  0.71843155197E+02  0.53355605906E+02  0.97232576528E+02  0.41800000000E+01 0.  1.
        -11    1    1    2    0    0 -0.51880769473E+02 -0.52170775344E+02  0.44730189003E+02  0.86105713221E+02  0.00000000000E+00 0.  1.
         11    1    1    2    0    0  0.21790360615E+02 -0.26259342693E+02 -0.20821135603E+02  0.39973648597E+02  0.00000000000E+00 0. -1.
</event>
<event>
 7    1  0.2820496E-009  0.9563567E+02  0.7561462E-02  0.1289751E+00
         -2   -1    0    0    0  501 -0.00000000000E+00  0.00000000000E+00  0.34389006647E+02  0.34389006647E+02  0.00000000000E+00 0.  1.
          2   -1    0    0  501    0  0.00000000000E+00 -0.00000000000E+00 -0.36352274121E+03  0.36352274121E+03  0.00000000000E+00 0. -1.
         25    2    1    2    0    0  0.38807031008E+01  0.33200646534E+00 -0.13394776005E+03  0.18331554023E+03  0.12508962700E+03 0.  0.
          5    1    3    3  502    0  0.61629140489E+02 -0.17310563139E+02 -0.76854926364E+02  0.10010973309E+03  0.41800000000E+01 0.  1.
         -5    1    3    3    0  502 -0.57748437388E+02  0.17642569605E+02 -0.57092833684E+02  0.83205807136E+02  0.41800000000E+01 0.  1.
        -11    1    1    2    0    0  0.27251263405E+02 -0.16145576420E+02 -0.23618121434E+02  0.39511095342E+02  0.00000000000E+00 0.  1.
         11    1    1    2    0    0 -0.31131966505E+02  0.15813569955E+02 -0.17156785308E+03  0.17508511228E+03  0.00000000000E+00 0. -1.
</event>
<event>
 7    1  0.2820496E-009  0.1090778E+03  0.7561462E-02  0.1262287E+00
          1   -1    0    0  501    0  0.00000000000E+00  0.00000000000E+00  0.21165231259E+03  0.21165231259E+03  0.00000000000E+00 0. -1.
         -1   -1    0    0    0  501 -0.00000000000E+00 -0.00000000000E+00 -0.96137960202E+02  0.96137960202E+02  0.00000000000E+00 0.  1.
         25    2    1    2    0    0 -0.41128659649E+02 -0.67395500881E+02  0.11431909805E+02  0.14836209594E+03  0.12508758039E+03 0.  0.
          5    1    3    3  502    0  0.27560132344E+02 -0.17846285039E+02 -0.37852080643E+02  0.50282235367E+02  0.41800000000E+01 0.  1.
         -5    1    3    3    0  502 -0.68688791993E+02 -0.49549215842E+02  0.49283990448E+02  0.98079860575E+02  0.41800000000E+01 0.  1.
        -11    1    1    2    0    0  0.53755488112E+02  0.31724414578E+02  0.17326178496E+02  0.64778757658E+02  0.00000000000E+00 0.  1.
         11    1    1    2    0    0 -0.12626828463E+02  0.35671086303E+02  0.86756264083E+02  0.94649419188E+02  0.00000000000E+00 0. -1.
</event>
<event>
 7    1  0.2820496E-009  0.9132314E+02  0.7561462E-02  0.1299679E+00
         -1   -1    0    0    0  501 -0.00000000000E+00  0.00000000000E+00  0.11451478362E+03  0.11451478362E+03  0.00000000000E+00 0.  1.
          1   -1    0    0  501    0  0.00000000000E+00 -0.00000000000E+00 -0.11066637702E+03  0.11066637702E+03  0.00000000000E+00 0. -1.
         25    2    1    2    0    0  0.80497602486E+01  0.30362420579E+01  0.38305973882E+02  0.13110390217E+03  0.12508744191E+03 0.  0.
          5    1    3    3  502    0 -0.23986332570E+02  0.56877543333E+02  0.26039911200E+02  0.67126361893E+02  0.41800000000E+01 0. -1.
         -5    1    3    3    0  502  0.32036092819E+02 -0.53841301275E+02  0.12266062682E+02  0.63977540276E+02  0.41800000000E+01 0. -1.
        -11    1    1    2    0    0  0.22356332316E+02 -0.13155825270E+02 -0.51586207953E+02  0.57740957596E+02  0.00000000000E+00 0. -1.
         11    1    1    2    0    0 -0.30406092565E+02  0.10119583213E+02  0.17128640672E+02  0.36336300868E+02  0.00000000000E+00 0.  1.
</event>
<event>
 7    1  0.2820496E-009  0.1093467E+03  0.7561462E-02  0.1261785E+00
          2   -1    0    0  501    0  0.00000000000E+00  0.00000000000E+00  0.63328034157E+03  0.63328034157E+03  0.00000000000E+00 0.  1.
         -2   -1    0    0    0  501 -0.00000000000E+00 -0.00000000000E+00 -0.51951039923E+02  0.51951039923E+02  0.00000000000E+00 0. -1.
         25    2    1    2    0    0 -0.58771712605E+02  0.46419296236E+02  0.72512465388E+02  0.16283198441E+03  0.12508929708E+03 0.  0.
          5    1    3    3  502    0 -0.56461114923E+01 -0.16555577406E+02  0.78102661331E+02  0.80146514742E+02  0.41800000000E+01 0. -1.
         -5    1    3    3    0  502 -0.53125601113E+02  0.62974873642E+02 -0.55901959436E+01  0.82685469669E+02  0.41800000000E+01 0. -1.
        -11    1    1    2    0    0 -0.19856703909E+01  0.24640055264E+02  0.96530738942E+02  0.99645666093E+02  0.00000000000E+00 0.  1.
         11    1    1    2    0    0  0.60757382996E+02 -0.71059351500E+02  0.41228609732E+03  0.42275373099E+03  0.00000000000E+00 0. -1.
</event>
<event>
 7    1  0.2820496E-009  0.1129109E+03  0.7561462E-02  0.1255272E+00
          2   -1    0    0  501    0  0.00000000000E+00  0.00000000000E+00  0.81396281604E+03  0.81396281604E+03  0.00000000000E+00 0.  1.
         -2   -1    0    0    0  501 -0.00000000000E+00 -0.00000000000E+00 -0.16591994484E+02  0.16591994484E+02  0.00000000000E+00 0. -1.
         25    2    1    2    0    0 -0.10727142820E+01 -0.42480989199E+02  0.49115084806E+03  0.50860895313E+03  0.12509247177E+03 0.  0.
          5    1    3    3  502    0  0.57137476521E+02 -0.36118819510E+02  0.18801454881E+03  0.19984044463E+03  0.41800000000E+01 0.  1.
         -5    1    3    3    0  502 -0.58210190803E+02 -0.63621696887E+01  0.30313629925E+03  0.30876850850E+03  0.41800000000E+01 0.  1.
        -11    1    1    2    0    0  0.24186897975E+02  0.63623119722E+02  0.20971536958E+03  0.22048456552E+03  0.00000000000E+00 0. -1.
         11    1    1    2    0    0 -0.23114183693E+02 -0.21142130524E+02  0.96504603918E+02  0.10146129187E+03  0.00000000000E+00 0.  1.
</event>
<event>
 7    1  0.2820496E-009  0.7489181E+02  0.7561462E-02  0.1344206E+00
         -1   -1    0    0    0  501 -0.00000000000E+00  0.00000000000E+00  0.13950871524E+02  0.13950871524E+02  0.00000000000E+00 0.  1.
          1   -1    0    0  501    0  0.00000000000E+00 -0.00000000000E+00 -0.86443389023E+03  0.86443389023E+03  0.00000000000E+00 0. -1.
         25    2    1    2    0    0 -0.59345211506E+01 -0.10258747941E+02 -0.49476301823E+03  0.51046945358E+03  0.12509259923E+03 0.  0.
          5    1    3    3  502    0 -0.33829478335E+02 -0.66261525235E+01 -0.47396807003E+03  0.47523840681E+03  0.41800000000E+01 0. -1.
         -5    1    3    3    0  502  0.27894957185E+02 -0.36325954176E+01 -0.20794948197E+02  0.35231046767E+02  0.41800000000E+01 0. -1.
        -11    1    1    2    0    0 -0.29546434670E+02 -0.23417659241E+02 -0.87586941609E+02  0.95356441347E+02  0.00000000000E+00 0.  1.
         11    1    1    2    0    0  0.35480955820E+02  0.33676407182E+02 -0.26813305887E+03  0.27255886683E+03  0.00000000000E+00 0. -1.
</event>
<event>
 7    1  0.2820496E-009  0.1116182E+03  0.7561462E-02  0.1257602E+00
          2   -1    0    0  501    0  0.00000000000E+00  0.00000000000E+00  0.10866475433E+03  0.10866475433E+03  0.00000000000E+00 0.  1.
         -2   -1    0    0    0  501 -0.00000000000E+00 -0.00000000000E+00 -0.13369363948E+03  0.13369363948E+03  0.00000000000E+00 0. -1.
         25    2    1    2    0    0 -0.54690267745E+02  0.10150624721E+02 -0.18348901471E+02  0.13812020152E+03  0.12508575984E+03 0.  0.
          5    1    3    3  502    0  0.93761635845E+01 -0.40979555988E+02 -0.34412867958E+02  0.54488111856E+02  0.41800000000E+01 0. -1.
         -5    1    3    3    0  502 -0.64066431330E+02  0.51130180709E+02  0.16063966488E+02  0.83632089667E+02  0.41800000000E+01 0. -1.
        -11    1    1    2    0    0  0.50012705957E+02 -0.42865033759E+02  0.10965550152E+02  0.66775183762E+02  0.00000000000E+00 0.  1.
         11    1    1    2    0    0  0.46775617879E+01  0.32714409037E+02 -0.17645533832E+02  0.37463008517E+02  0.00000000000E+00 0. -1.
</event>
<event>
 7    1  0.2820496E-009  0.1723755E+03  0.7561462E-02  0.1175393E+00
         -1   -1    0    0    0  501 -0.00000000000E+00  0.00000000000E+00  0.13904870565E+04  0.13904870565E+04  0.00000000000E+00 0.  1.
          1   -1    0    0  501    0  0.00000000000E+00 -0.00000000000E+00 -0.31815875728E+02  0.31815875728E+02  0.00000000000E+00 0. -1.
         25    2    1    2    0    0  0.40601967710E+02 -0.13995325574E+03  0.10504053654E+04  0.10678174422E+04  0.12508886735E+03 0.  0.
          5    1    3    3  502    0 -0.22857664069E+02 -0.92764992718E+02  0.34593301216E+03  0.35890797982E+03  0.41800000000E+01 0. -1.
         -5    1    3    3    0  502  0.63459631778E+02 -0.47188263023E+02  0.70447235322E+03  0.70890946240E+03  0.41800000000E+01 0. -1.
        -11    1    1    2    0    0 -0.46301489533E+02  0.21004456677E+02  0.56699692453E+02  0.76156879253E+02  0.00000000000E+00 0.  1.
         11    1    1    2    0    0  0.56995218238E+01  0.11894879906E+03  0.25156612292E+03  0.27832861073E+03  0.00000000000E+00 0. -1.
</event>
<event>
 7    1  0.2820496E-009  0.1439353E+03  0.7561462E-02  0.1208130E+00
          3   -1    0    0  501    0  0.00000000000E+00  0.00000000000E+00  0.63995021699E+03  0.63995021699E+03  0.00000000000E+00 0. -1.
         -3   -1    0    0    0  501 -0.00000000000E+00 -0.00000000000E+00 -0.70736229855E+02  0.70736229855E+02  0.00000000000E+00 0.  1.
         25    2    1    2    0    0 -0.10777987771E+03  0.20419480705E+02  0.66045367662E+02  0.17902224148E+03  0.12511400850E+03 0.  0.
          5    1    3    3  502    0 -0.89514620815E+02 -0.81516242439E+01 -0.14857402921E+02  0.91200499665E+02  0.41800000000E+01 0.  1.
         -5    1    3    3    0  502 -0.18265256894E+02  0.28571104949E+02  0.80902770583E+02  0.87821741815E+02  0.41800000000E+01 0.  1.
        -11    1    1    2    0    0  0.89900888380E+02  0.41684602537E+02  0.37829143319E+03  0.39105521892E+03  0.00000000000E+00 0.  1.
         11    1    1    2    0    0  0.17878989329E+02 -0.62104083242E+02  0.12487718629E+03  0.14060898645E+03  0.00000000000E+00 0. -1.
</event>
<event>
 7    1  0.2820496E-009  0.1224854E+03  0.7561462E-02  0.1239052E+00
         -1   -1    0    0    0  501 -0.00000000000E+00  0.00000000000E+00  0.60165809100E+02  0.60165809100E+02  0.00000000000E+00 0.  1.
          1   -1    0    0  501    0  0.00000000000E+00 -0.00000000000E+00 -0.32534257181E+03  0.32534257181E+03  0.00000000000E+00 0. -1.
         25    2    1    2    0    0  0.80638126158E+02 -0.21804210403E+02 -0.19061938389E+03  0.24281788966E+03  0.12508735765E+03 0.  0.
          5    1    3    3  502    0  0.10958879756E+03 -0.26798228189E+02 -0.11305480566E+03  0.15977080794E+03  0.41800000000E+01 0.  1.
         -5    1    3    3    0  502 -0.28950671403E+02  0.49940177856E+01 -0.77564578222E+02  0.83047081725E+02  0.41800000000E+01 0.  1.
        -11    1    1    2    0    0 -0.35220500686E+02 -0.20145314898E+02  0.61341995505E+01  0.41035908483E+02  0.00000000000E+00 0.  1.
         11    1    1    2    0    0 -0.45417625472E+02  0.41949525300E+02 -0.80691578371E+02  0.10165458276E+03  0.00000000000E+00 0. -1.
</event>
<event>
 7    1  0.2820496E-009  0.8859371E+02  0.7561462E-02  0.1306293E+00
          1   -1    0    0  501    0  0.00000000000E+00  0.00000000000E+00  0.13260849041E+03  0.13260849041E+03  0.00000000000E+00 0. -1.
         -1   -1    0    0    0  501 -0.00000000000E+00 -0.00000000000E+00 -0.15271333894E+03  0.15271333894E+03  0.00000000000E+00 0.  1.
         25    2    1    2    0    0  0.79990940031E+01 -0.33317527905E+02 -0.95747182572E+02  0.16120989022E+03  0.12508821913E+03 0.  0.
          5    1    3    3  502    0  0.44666611787E+02 -0.29800428491E+02 -0.10921060138E+03  0.12176863143E+03  0.41800000000E+01 0. -1.
         -5    1    3    3    0  502 -0.36667517783E+02 -0.35170994134E+01  0.13463418811E+02  0.39441258788E+02  0.41800000000E+01 0. -1.
        -11    1    1    2    0    0 -0.27907943460E+02 -0.16630955152E+02  0.14972424155E+01  0.32522049632E+02  0.00000000000E+00 0.  1.
         11    1    1    2    0    0  0.19908849457E+02  0.49948483057E+02  0.74145091622E+02  0.91589889496E+02  0.00000000000E+00 0. -1.
</event>
<event>
 7    1  0.2820496E-009  0.1068480E+03  0.7561462E-02  0.1266521E+00
          2   -1    0    0  501    0  0.00000000000E+00  0.00000000000E+00  0.16641648588E+03  0.16641648588E+03  0.00000000000E+00 0. -1.
         -2   -1    0    0    0  501 -0.00000000000E+00 -0.00000000000E+00 -0.10283188144E+03  0.10283188144E+03  0.00000000000E+00 0.  1.
         25    2    1    2    0    0 -0.63260417256E+02  0.27660095009E+02  0.39540891661E+02  0.14825140441E+03  0.12509210826E+03 0.  0.
          5    1    3    3  502    0  0.32440815438E+02 -0.11015769261E+02 -0.65501742899E+01  0.35130198718E+02  0.41800000000E+01 0. -1.
         -5    1    3    3    0  502 -0.95701232695E+02  0.38675864269E+02  0.46091065951E+02  0.11312120569E+03  0.41800000000E+01 0. -1.
        -11    1    1    2    0    0  0.43575125924E+01 -0.15010956893E+02 -0.33949048380E+02  0.37374518442E+02  0.00000000000E+00 0.  1.
         11    1    1    2    0    0  0.58902904664E+02 -0.12649138116E+02  0.57992761161E+02  0.83622444475E+02  0.00000000000E+00 0. -1.
</event>
<event>
 7    1  0.2820496E-009  0.7837358E+02  0.7561462E-02  0.1333731E+00
          3   -1    0    0  501    0  0.00000000000E+00  0.00000000000E+00  0.90981662708E+02  0.90981662708E+02  0.00000000000E+00 0. -1.
         -3   -1    0    0    0  501 -0.00000000000E+00 -0.00000000000E+00 -0.12697245796E+03  0.12697245796E+03  0.00000000000E+00 0.  1.
         25    2    1    2    0    0 -0.15913610584E+02  0.15551046950E+02 -0.30715867077E+02  0.13070944081E+03  0.12508563213E+03 0.  0.
          5    1    3    3  502    0 -0.33414815983E+02  0.59106058143E+02  0.95895998110E+01  0.68698681653E+02  0.41800000000E+01 0.  1.
         -5    1    3    3    0  502  0.17501205399E+02 -0.43555011193E+02 -0.40305466888E+02  0.62010759160E+02  0.41800000000E+01 0.  1.
        -11    1    1    2    0    0  0.35160211828E+01  0.11399995241E+02  0.35140424353E+02  0.37110264350E+02  0.00000000000E+00 0. -1.
         11    1    1    2    0    0  0.12397589401E+02 -0.26951042191E+02 -0.40415352526E+02  0.50134415504E+02  0.00000000000E+00 0.  1.
</event>
<event>
 7    1  0.2820496E-009  0.1349853E+03  0.7561462E-02  0.1220240E+00
          1   -1    0    0  501    0  0.00000000000E+00  0.00000000000E+00  0.88275064831E+02  0.88275064831E+02  0.00000000000E+00 0. -1.
         -1   -1    0    0    0  501 -0.00000000000E+00 -0.00000000000E+00 -0.21660672140E+03  0.21660672140E+03  0.00000000000E+00 0.  1.
         25    2    1    2    0    0 -0.13982742950E+02 -0.76257333104E+02 -0.50686003893E+02  0.15565366433E+03  0.12509314240E+03 0.  0.
          5    1    3    3  502    0  0.54474431573E+02 -0.33295344590E+02 -0.89733747037E+01  0.64606791594E+02  0.41800000000E+01 0.  1.
         -5    1    3    3    0  502 -0.68457174523E+02 -0.42961988514E+02 -0.41712629189E+02  0.91046872734E+02  0.41800000000E+01 0.  1.
        -11    1    1    2    0    0 -0.27096322264E+02  0.79366027751E+02 -0.38064381129E+02  0.92098176703E+02  0.00000000000E+00 0. -1.
         11    1    1    2    0    0  0.41079065215E+02 -0.31086946471E+01 -0.39581271550E+02  0.57129945203E+02  0.00000000000E+00 0.  1.
</event>
<event>
 7    1  0.2820496E-009  0.1105373E+03  0.7561462E-02  0.1259578E+00
         -2   -1    0    0    0  501 -0.00000000000E+00  0.00000000000E+00  0.20162858342E+03  0.20162858342E+03  0.00000000000E+00 0.  1.
          2   -1    0    0  501    0  0.00000000000E+00 -0.00000000000E+00 -0.96099869083E+02  0.96099869083E+02  0.00000000000E+00 0. -1.
         25    2    1    2    0    0 -0.35471511830E+01  0.26766238305E+02  0.14777236244E+03  0.19548124620E+03  0.12508889926E+03 0.  0.
          5    1    3    3  502    0  0.59822044917E+02  0.26310188921E+01  0.70233853098E+02  0.92389749645E+02  0.41800000000E+01 0.  1.
         -5    1    3    3    0  502 -0.63369196100E+02  0.24135219413E+02  0.77538509342E+02  0.10309149655E+03  0.41800000000E+01 0.  1.
        -11    1    1    2    0    0  0.35276529142E+02  0.16914407463E+02 -0.17402177800E+02  0.42817829000E+02  0.00000000000E+00 0.  1.
         11    1    1    2    0    0 -0.31729377959E+02 -0.43680645768E+02 -0.24841470302E+02  0.59429377307E+02  0.00000000000E+00 0. -1.
</event>
<event>
 7    1  0.2820496E-009  0.1113879E+03  0.7561462E-02  0.1258021E+00
          1   -1    0    0  501    0  0.00000000000E+00  0.00000000000E+00  0.16347575761E+03  0.16347575761E+03  0.00000000000E+00 0. -1.
         -1   -1    0    0    0  501 -0.00000000000E+00 -0.00000000000E+00 -0.93052141726E+02  0.93052141726E+02  0.00000000000E+00 0.  1.
         25    2    1    2    0    0  0.49107588190E+02  0.60456560135E+01  0.69769769064E+01  0.13469691636E+03  0.12508587408E+03 0.  0.
          5    1    3    3  502    0 -0.21590148410E+02  0.40726839598E+02  0.26669050130E+02  0.53418354588E+02  0.41800000000E+01 0.  1.
         -5    1    3    3    0  502  0.70697736600E+02 -0.34681183585E+02 -0.19692073224E+02  0.81278561768E+02  0.41800000000E+01 0.  1.
        -11    1    1    2    0    0 -0.33930739104E+02  0.38060847970E+02  0.53943413827E+02  0.74228128763E+02  0.00000000000E+00 0.  1.
         11    1    1    2    0    0 -0.15176849085E+02 -0.44106503983E+02  0.95032251543E+01  0.47602854222E+02  0.00000000000E+00 0. -1.
</event>
<event>
 7    1  0.2820496E-009  0.1507768E+03  0.7561462E-02  0.1199522E+00
          1   -1    0    0  501    0  0.00000000000E+00  0.00000000000E+00  0.41808394378E+03  0.41808394378E+03  0.00000000000E+00 0. -1.
         -1   -1    0    0    0  501 -0.00000000000E+00 -0.00000000000E+00 -0.62944713106E+02  0.62944713106E+02  0.00000000000E+00 0.  1.
         25    2    1    2    0    0  0.11733599813E+03  0.22238707814E+02  0.17596396414E+03  0.24672516619E+03  0.12509074456E+03 0.  0.
          5    1    3    3  502    0  0.48917665127E+02  0.60347729362E+02  0.34772066237E+02  0.85213586892E+02  0.41800000000E+01 0. -1.
         -5    1    3    3    0  502  0.68418333006E+02 -0.38109021548E+02  0.14119189790E+03  0.16151157930E+03  0.41800000000E+01 0. -1.
        -11    1    1    2    0    0 -0.74965711925E+01  0.24751055080E+02  0.61026541559E+02  0.66280103212E+02  0.00000000000E+00 0. -1.
         11    1    1    2    0    0 -0.10983942694E+03 -0.46989762894E+02  0.11814872498E+03  0.16802338748E+03  0.00000000000E+00 0.  1.
</event>
<event>
 7    1  0.2820496E-009  0.1314565E+03  0.7561462E-02  0.1225310E+00
         -4   -1    0    0    0  501 -0.00000000000E+00  0.00000000000E+00  0.18752901741E+03  0.18752901741E+03  0.00000000000E+00 0.  1.
          4   -1    0    0  501    0  0.00000000000E+00 -0.00000000000E+00 -0.98023889483E+02  0.98023889483E+02  0.00000000000E+00 0. -1.
         25    2    1    2    0    0  0.91430176283E+01 -0.80639236105E+02  0.59518754797E+02  0.16054949426E+03  0.12508947504E+03 0.  0.
          5    1    3    3  502    0  0.65449089188E+02 -0.49325883422E+02  0.47687341245E+02  0.94911437488E+02  0.41800000000E+01 0.  1.
         -5    1    3    3    0  502 -0.56306071560E+02 -0.31313352683E+02  0.11831413552E+02  0.65638056776E+02  0.41800000000E+01 0.  1.
        -11    1    1    2    0    0  0.15830231716E+02  0.88657393687E+02  0.37747428645E+02  0.97650386896E+02  0.00000000000E+00 0.  1.
         11    1    1    2    0    0 -0.24973249344E+02 -0.80181575826E+01 -0.77610555190E+01  0.27353025730E+02  0.00000000000E+00 0. -1.
</event>
<event>
 7    1  0.2820496E-009  0.8266366E+02  0.7561462E-02  0.1321658E+00
          2   -1    0    0  501    0  0.00000000000E+00  0.00000000000E+00  0.11215433671E+04  0.11215433671E+04  0.00000000000E+00 0. -1.
         -2   -1    0    0    0  501 -0.00000000000E+00 -0.00000000000E+00 -0.12320488344E+02  0.12320488344E+02  0.00000000000E+00 0.  1.
         25    2    1    2    0    0  0.40909640989E+02 -0.87674774018E+01  0.70627126510E+03  0.71848317552E+03  0.12509398951E+03 0.  0.
          5    1    3    3  502    0  0.21043267944E+02 -0.37419993133E+02  0.77203081608E+02  0.88435644520E+02  0.41800000000E+01 0. -1.
         -5    1    3    3    0  502  0.19866373045E+02  0.28652515731E+02  0.62906818349E+03  0.63004753100E+03  0.41800000000E+01 0. -1.
        -11    1    1    2    0    0 -0.54100033880E+02  0.30164779844E+02  0.36251078252E+03  0.36776459189E+03  0.00000000000E+00 0. -1.
         11    1    1    2    0    0  0.13190392892E+02 -0.21397302443E+02  0.40440831153E+02  0.47616088046E+02  0.00000000000E+00 0.  1.
</event>
<event>
 7    1  0.2820496E-009  0.8980054E+02  0.7561462E-02  0.1303335E+00
          1   -1    0    0  501    0  0.00000000000E+00  0.00000000000E+00  0.47407384882E+02  0.47407384882E+02  0.00000000000E+00 0. -1.
         -1   -1    0    0    0  501 -0.00000000000E+00 -0.00000000000E+00 -0.38092143581E+03  0.38092143581E+03  0.00000000000E+00 0.  1.
         25    2    1    2    0    0  0.42743980923E+02  0.16540872672E+02 -0.28502318525E+03  0.31462014504E+03  0.12508785376E+03 0.  0.
          5    1    3    3  502    0  0.34326366806E+02 -0.52663021337E+02 -0.12336446440E+03  0.13852060046E+03  0.41800000000E+01 0. -1.
         -5    1    3    3    0  502  0.84176141180E+01  0.69203894009E+02 -0.16165872085E+03  0.17609954458E+03  0.41800000000E+01 0. -1.
        -11    1    1    2    0    0 -0.22199959081E+02 -0.13527498277E+02  0.25766759824E+02  0.36602695320E+02  0.00000000000E+00 0. -1.
         11    1    1    2    0    0 -0.20544021842E+02 -0.30133743946E+01 -0.74257625503E+02  0.77105980339E+02  0.00000000000E+00 0.  1.
</event>
<event>
 7    1  0.2820496E-009  0.1522448E+03  0.7561462E-02  0.1197741E+00
          2   -1    0    0  501    0  0.00000000000E+00  0.00000000000E+00  0.21858301566E+03  0.21858301566E+03  0.00000000000E+00 0. -1.
         -2   -1    0    0    0  501 -0.00000000000E+00 -0.00000000000E+00 -0.15452888699E+03  0.15452888699E+03  0.00000000000E+00 0.  1.
         25    2    1    2    0    0  0.16950643153E+02 -0.12005065250E+03 -0.51645918049E+02  0.18169855097E+03  0.12509028381E+03 0.  0.
          5    1    3    3  502    0  0.65155103145E+02 -0.37470255907E+02 -0.55954078400E+01  0.75485021908E+02  0.41800000000E+01 0. -1.
         -5    1    3    3    0  502 -0.48204459992E+02 -0.82580396597E+02 -0.46050510209E+02  0.10621352906E+03  0.41800000000E+01 0. -1.
        -11    1    1    2    0    0  0.18040207802E+02  0.17454598002E+02 -0.85557176597E+01  0.26520037587E+02  0.00000000000E+00 0.  1.
         11    1    1    2    0    0 -0.34990850955E+02  0.10259605450E+03  0.12425576439E+03  0.16489331409E+03  0.00000000000E+00 0. -1.
</event>
<event>
 7    1  0.2820496E-009  0.8734588E+02  0.7561462E-02  0.1309409E+00
          2   -1    0    0  501    0  0.00000000000E+00  0.00000000000E+00  0.62402367815E+03  0.62402367815E+03  0.00000000000E+00 0. -1.
         -2   -1    0    0    0  501 -0.00000000000E+00 -0.00000000000E+00 -0.20701646847E+02  0.20701646847E+02  0.00000000000E+00 0.  1.
         25    2    1    2    0    0 -0.12188271661E+02  0.31475829216E+02  0.39748840677E+03  0.41807157135E+03  0.12509006141E+03 0.  0.
          5    1    3    3  502    0 -0.11801340456E+02  0.61839935887E+02  0.95058684196E+02  0.11409239742E+03  0.41800000000E+01 0. -1.
         -5    1    3    3    0  502 -0.38693120540E+00 -0.30364106671E+02  0.30242972257E+03  0.30397917393E+03  0.41800000000E+01 0. -1.
        -11    1    1    2    0    0 -0.31020506416E+02 -0.17011128707E+02  0.34690730061E+02  0.49548936117E+02  0.00000000000E+00 0.  1.
         11    1    1    2    0    0  0.43208778077E+02 -0.14464700509E+02  0.17114289448E+03  0.17710481753E+03  0.00000000000E+00 0. -1.
</event>
<event>
 7    1  0.2820496E-009  0.8732634E+02  0.7561462E-02  0.1309459E+00
          3   -1    0    0  501    0  0.00000000000E+00  0.00000000000E+00  0.42798950131E+03  0.42798950131E+03  0.00000000000E+00 0. -1.
         -3   -1    0    0    0  501 -0.00000000000E+00 -0.00000000000E+00 -0.27641811708E+02  0.27641811708E+02  0.00000000000E+00 0.  1.
         25    2    1    2    0    0 -0.20145768826E+02  0.63239287627E+01  0.22000366748E+03  0.25395892701E+03  0.12509068241E+03 0.  0.
          5    1    3    3  502    0 -0.52495691078E+02  0.16231419084E+02  0.33769954002E+02  0.64630787869E+02  0.41800000000E+01 0.  1.
         -5    1    3    3    0  502  0.32349922252E+02 -0.99074903213E+01  0.18623371348E+03  0.18932813914E+03  0.41800000000E+01 0.  1.
        -11    1    1    2    0    0  0.52647669718E+02 -0.56147597248E+01  0.77868337897E+02  0.94163584789E+02  0.00000000000E+00 0.  1.
         11    1    1    2    0    0 -0.32501900892E+02 -0.70916903790E+00  0.10247568423E+03  0.10750880122E+03  0.00000000000E+00 0. -1.
</event>
<event>
 7    1  0.2820496E-009  0.1032807E+03  0.7561462E-02  0.1273545E+00
          2   -1    0    0  501    0  0.00000000000E+00  0.00000000000E+00  0.21249646353E+03  0.21249646353E+03  0.00000000000E+00 0. -1.
         -2   -1    0    0    0  501 -0.00000000000E+00 -0.00000000000E+00 -0.12562807321E+03  0.12562807321E+03  0.00000000000E+00 0.  1.
         25    2    1    2    0    0  0.36936803835E+02 -0.44639447973E+02 -0.64989910569E+02  0.15240306928E+03  0.12508396883E+03 0.  0.
          5    1    3    3  502    0  0.23103210727E+02 -0.85785259273E+02 -0.62534826110E+02  0.10872417363E+03  0.41800000000E+01 0. -1.
         -5    1    3    3    0  502  0.13833593108E+02  0.41145811300E+02 -0.24550844592E+01  0.43678895654E+02  0.41800000000E+01 0. -1.
        -11    1    1    2    0    0  0.35603784945E+00  0.35648267369E+02  0.76018765286E+01  0.36451532973E+02  0.00000000000E+00 0.  1.
         11    1    1    2    0    0 -0.37292841684E+02  0.89911806040E+01  0.14425642437E+03  0.14926993449E+03  0.00000000000E+00 0. -1.
</event>
<event>
 7    1  0.2820496E-009  0.1154545E+03  0.7561462E-02  0.1250790E+00
          2   -1    0    0  501    0  0.00000000000E+00  0.00000000000E+00  0.18088248857E+03  0.18088248857E+03  0.00000000000E+00 0. -1.
         -2   -1    0    0    0  501 -0.00000000000E+00 -0.00000000000E+00 -0.12928838236E+03  0.12928838236E+03  0.00000000000E+00 0.  1.
         25    2    1    2    0    0 -0.57938976111E+02  0.83768301229E+02  0.62883129934E+02  0.17313365613E+03  0.12508765570E+03 0.  0.
          5    1    3    3  502    0 -0.77686247536E+02  0.69378072228E+02  0.89043564831E+02  0.13709375916E+03  0.41800000000E+01 0.  1.
         -5    1    3    3    0  502  0.19747271424E+02  0.14390229002E+02 -0.26160434897E+02  0.36039896967E+02  0.41800000000E+01 0.  1.
        -11    1    1    2    0    0  0.29422432341E+02 -0.44594034634E+02 -0.51398526940E+02  0.74135794468E+02  0.00000000000E+00 0.  1.
         11    1    1    2    0    0  0.28516543770E+02 -0.39174266595E+02  0.40109503215E+02  0.62901420334E+02  0.00000000000E+00 0. -1.
</event>
<event>
 7    1  0.2820496E-009  0.9309123E+02  0.7561462E-02  0.1295534E+00
          1   -1    0    0  501    0  0.00000000000E+00  0.00000000000E+00  0.75726183059E+03  0.75726183059E+03  0.00000000000E+00 0.  1.
         -1   -1    0    0    0  501 -0.00000000000E+00 -0.00000000000E+00 -0.19620915896E+02  0.19620915896E+02  0.00000000000E+00 0. -1.
         25    2    1    2    0    0  0.39692875489E+02  0.38099572487E+02  0.47911866333E+03  0.49822524915E+03  0.12508638435E+03 0.  0.
          5    1    3    3  502    0  0.34340519651E+02 -0.12081639343E+02  0.33218341557E+02  0.49458749630E+02  0.41800000000E+01 0.  1.
         -5    1    3    3    0  502  0.53523558376E+01  0.50181211829E+02  0.44590032177E+03  0.44876649952E+03  0.41800000000E+01 0.  1.
        -11    1    1    2    0    0 -0.54397460256E+02 -0.54411372394E+02  0.15765830048E+03  0.17543038744E+03  0.00000000000E+00 0.  1.
         11    1    1    2    0    0  0.14704584767E+02  0.16311799907E+02  0.10086395089E+03  0.10322710990E+03  0.00000000000E+00 0. -1.
</event>
<event>
 7    1  0.2820496E-009  0.1007785E+03  0.7561462E-02  0.1278667E+00
         -4   -1    0    0    0  501 -0.00000000000E+00  0.00000000000E+00  0.41807879946E+03  0.41807879946E+03  0.00000000000E+00 0.  1.
          4   -1    0    0  501    0  0.00000000000E+00 -0.00000000000E+00 -0.39619206455E+02  0.39619206455E+02  0.00000000000E+00 0. -1.
         25    2    1    2    0    0 -0.72114742795E+01  0.39736313670E+02  0.31763341573E+03  0.34376001403E+03  0.12509588511E+03 0.  0.
          5    1    3    3  502    0 -0.31957393569E+02 -0.35551680923E+02  0.80701693719E+02  0.93890536207E+02  0.41800000000E+01 0. -1.
         -5    1    3    3    0  502  0.24745919290E+02  0.75287994593E+02  0.23693172201E+03  0.24986947782E+03  0.41800000000E+01 0. -1.
        -11    1    1    2    0    0  0.33542273269E+02 -0.32949972571E+02 -0.31827580342E+00  0.47020060485E+02  0.00000000000E+00 0. -1.
         11    1    1    2    0    0 -0.26330798990E+02 -0.67863410985E+01  0.61144453076E+02  0.66917931401E+02  0.00000000000E+00 0.  1.
</event>
<event>
 7    1  0.2820496E-009  0.1126304E+03  0.7561462E-02  0.1255775E+00
         -1   -1    0    0    0  501 -0.00000000000E+00  0.00000000000E+00  0.91626292401E+02  0.91626292401E+02  0.00000000000E+00 0.  1.
          1   -1    0    0  501    0  0.00000000000E+00 -0.00000000000E+00 -0.21203253824E+03  0.21203253824E+03  0.00000000000E+00 0. -1.
         25    2    1    2    0    0 -0.62790449103E+02 -0.52361203893E+02 -0.35451547476E+02  0.15358665098E+03  0.12509081090E+03 0.  0.
          5    1    3    3  502    0 -0.78024365630E+02 -0.61702276116E+02  0.14277064095E+02  0.10057971699E+03  0.41800000000E+01 0. -1.
         -5    1    3    3    0  502  0.15233916527E+02  0.93410722237E+01 -0.49728611571E+02  0.53006933998E+02  0.41800000000E+01 0. -1.
        -11    1    1    2    0    0  0.42413778372E+02 -0.84200606190E+01  0.50059655912E+00  0.43244382450E+02  0.00000000000E+00 0.  1.
         11    1    1    2    0    0  0.20376670732E+02  0.60781264512E+02 -0.85455294918E+02  0.10682779720E+03  0.00000000000E+00 0. -1.
</event>
<event>
 7    1  0.2820496E-009  0.1100793E+03  0.7561462E-02  0.1260423E+00
         -2   -1    0    0    0  501 -0.00000000000E+00  0.00000000000E+00  0.54534593645E+03  0.54534593645E+03  0.00000000000E+00 0.  1.
          2   -1    0    0  501    0  0.00000000000E+00 -0.00000000000E+00 -0.26786825419E+02  0.26786825419E+02  0.00000000000E+00 0. -1.
         25    2    1    2    0    0  0.49910444339E+02 -0.16142222700E+02  0.26631071228E+03  0.29886532959E+03  0.12508983151E+03 0.  0.
          5    1    3    3  502    0  0.89627816073E+02 -0.27975083008E+02  0.18332085618E+03  0.20600912454E+03  0.41800000000E+01 0. -1.
         -5    1    3    3    0  502 -0.39717371734E+02  0.11832860307E+02  0.82989856101E+02  0.92856205049E+02  0.41800000000E+01 0. -1.
        -11    1    1    2    0    0 -0.36355428940E+02 -0.23052527941E+02  0.46444092162E+02  0.63326060628E+02  0.00000000000E+00 0. -1.
         11    1    1    2    0    0 -0.13555015399E+02  0.39194750642E+02  0.20580430659E+03  0.20994137165E+03  0.00000000000E+00 0.  1.
</event>
<event>
 7    1  0.2820496E-009  0.2452884E+03  0.7561462E-02  0.1116319E+00
          1   -1    0    0  501    0  0.00000000000E+00  0.00000000000E+00  0.48043889115E+03  0.48043889115E+03  0.00000000000E+00 0. -1.
         -1   -1    0    0    0  501 -0.00000000000E+00 -0.00000000000E+00 -0.16081758153E+03  0.16081758153E+03  0.00000000000E+00 0.  1.
         25    2    1    2    0    0  0.38437573523E+02 -0.23916211633E+03  0.25704222444E+03  0.37469146901E+03  0.12508807641E+03 0.  0.
          5    1    3    3  502    0  0.11895145802E+01 -0.73690939448E+02  0.92722866979E+01  0.74399040332E+02  0.41800000000E+01 0.  1.
         -5    1    3    3    0  502  0.37248058943E+02 -0.16547117688E+03  0.24776993775E+03  0.30029242868E+03  0.41800000000E+01 0.  1.
        -11    1    1    2    0    0 -0.44990713131E+02  0.12686282170E+03  0.73814086209E+02  0.15351501269E+03  0.00000000000E+00 0. -1.
         11    1    1    2    0    0  0.65531396079E+01  0.11229929462E+03 -0.11235001027E+02  0.11304999097E+03  0.00000000000E+00 0.  1.
</event>
<event>
 7    1  0.2820496E-009  0.9104600E+02  0.7561462E-02  0.1300338E+00
         -1   -1    0    0    0  501 -0.00000000000E+00  0.00000000000E+00  0.26719791122E+03  0.26719791122E+03  0.00000000000E+00 0.  1.
          1   -1    0    0  501    0  0.00000000000E+00 -0.00000000000E+00 -0.45487863104E+02  0.45487863104E+02  0.00000000000E+00 0. -1.
         25    2    1    2    0    0 -0.15939140420E+02  0.34204420386E+01  0.97544128585E+02  0.15947612348E+03  0.12510803858E+03 0.  0.
          5    1    3    3  502    0 -0.45589881845E+02 -0.28407952987E+02  0.10219630331E+03  0.11552924274E+03  0.41800000000E+01 0.  1.
         -5    1    3    3    0  502  0.29650741425E+02  0.31828395025E+02 -0.46521747213E+01  0.43946880737E+02  0.41800000000E+01 0.  1.
        -11    1    1    2    0    0  0.20047187933E+02  0.37960521404E+02  0.88751996729E+02  0.98589085870E+02  0.00000000000E+00 0.  1.
         11    1    1    2    0    0 -0.41080475126E+01 -0.41380963442E+02  0.35413922803E+02  0.54620564974E+02  0.00000000000E+00 0. -1.
</event>
<event>
 7    1  0.2820496E-009  0.2032234E+03  0.7561462E-02  0.1147048E+00
          1   -1    0    0  501    0  0.00000000000E+00  0.00000000000E+00  0.77049175249E+03  0.77049175249E+03  0.00000000000E+00 0. -1.
         -1   -1    0    0    0  501 -0.00000000000E+00 -0.00000000000E+00 -0.70454883073E+02  0.70454883073E+02  0.00000000000E+00 0.  1.
         25    2    1    2    0    0 -0.13509778330E+03  0.13244055815E+03  0.21677930616E+03  0.31373967525E+03  0.12508958289E+03 0.  0.
          5    1    3    3  502    0 -0.10570992243E+03  0.13610513962E+03  0.22430858786E+03  0.28289752865E+03  0.41800000000E+01 0.  1.
         -5    1    3    3    0  502 -0.29387860870E+02 -0.36645814738E+01 -0.75292816910E+01  0.30842146596E+02  0.41800000000E+01 0.  1.
        -11    1    1    2    0    0  0.14262169672E+03 -0.10891482329E+03  0.36915537844E+03  0.41046203300E+03  0.00000000000E+00 0.  1.
         11    1    1    2    0    0 -0.75239134237E+01 -0.23525734855E+02  0.11410218481E+03  0.11674492731E+03  0.00000000000E+00 0. -1.
</event>
<event>
 7    1  0.2820496E-009  0.4527667E+02  0.7561462E-02  0.1472622E+00
         -1   -1    0    0    0  501 -0.00000000000E+00  0.00000000000E+00  0.23682772104E+03  0.23682772104E+03  0.00000000000E+00 0.  1.
          1   -1    0    0  501    0  0.00000000000E+00 -0.00000000000E+00 -0.45607120033E+02  0.45607120033E+02  0.00000000000E+00 0. -1.
         25    2    1    2    0    0 -0.26534275434E+02  0.14945982450E+02  0.11052020698E+03  0.16967755874E+03  0.12509319576E+03 0.  0.
          5    1    3    3  502    0 -0.25613613666E+02  0.44701701798E+01  0.13772122445E+03  0.14021643160E+03  0.41800000000E+01 0. -1.
         -5    1    3    3    0  502 -0.92066176777E+00  0.10475812271E+02 -0.27201017473E+02  0.29461127140E+02  0.41800000000E+01 0. -1.
        -11    1    1    2    0    0  0.20698034164E+02 -0.30175958966E+02  0.69772717703E+01  0.37251569620E+02  0.00000000000E+00 0. -1.
         11    1    1    2    0    0  0.58362412700E+01  0.15229976516E+02  0.73723122261E+02  0.75505712716E+02  0.00000000000E+00 0.  1.
</event>
<event>
 7    1  0.2820496E-009  0.1911580E+03  0.7561462E-02  0.1157421E+00
          2   -1    0    0  501    0  0.00000000000E+00  0.00000000000E+00  0.30581646384E+02  0.30581646384E+02  0.00000000000E+00 0. -1.
         -2   -1    0    0    0  501 -0.00000000000E+00 -0.00000000000E+00 -0.15146208197E+04  0.15146208197E+04  0.00000000000E+00 0.  1.
         25    2    1    2    0    0 -0.14175825847E+03 -0.10540433616E+03 -0.56694527125E+03  0.60686045414E+03  0.12508873762E+03 0.  0.
          5    1    3    3  502    0 -0.92971754260E+02 -0.10530743633E+03 -0.25560257398E+03  0.29169084912E+03  0.41800000000E+01 0. -1.
         -5    1    3    3    0  502 -0.48786504210E+02 -0.96899828917E-01 -0.31134269727E+03  0.31516960501E+03  0.41800000000E+01 0. -1.
        -11    1    1    2    0    0  0.96301373980E+02  0.23480204498E+02 -0.35874588811E+03  0.37218797249E+03  0.00000000000E+00 0. -1.
         11    1    1    2    0    0  0.45456884491E+02  0.81924131665E+02 -0.55834801393E+03  0.56615403942E+03  0.00000000000E+00 0.  1.
</event>
<event>
 7    1  0.2820496E-009  0.8475878E+02  0.7561462E-02  0.1316065E+00
         -3   -1    0    0    0  501 -0.00000000000E+00  0.00000000000E+00  0.24727877378E+03  0.24727877378E+03  0.00000000000E+00 0.  1.
          3   -1    0    0  501    0  0.00000000000E+00 -0.00000000000E+00 -0.95594230425E+02  0.95594230425E+02  0.00000000000E+00 0. -1.
         25    2    1    2    0    0 -0.45837091008E+02  0.34430783449E+02 -0.21495701693E+02  0.13926698841E+03  0.12508681429E+03 0.  0.
          5    1    3    3  502    0 -0.15647575497E+02  0.30631678898E+02 -0.72144158301E+02  0.80033732563E+02  0.41800000000E+01 0. -1.
         -5    1    3    3    0  502 -0.30189515510E+02  0.37991045506E+01  0.50648456607E+02  0.59233255852E+02  0.41800000000E+01 0. -1.
        -11    1    1    2    0    0 -0.62367703952E+01 -0.49541290987E+02  0.59637774677E+02  0.77781109442E+02  0.00000000000E+00 0. -1.
         11    1    1    2    0    0  0.52073861403E+02  0.15110507538E+02  0.11354247037E+03  0.12582490634E+03  0.00000000000E+00 0.  1.
</event>
<event>
 7    1  0.2820496E-009  0.1730475E+03  0.7561462E-02  0.1174707E+00
         -2   -1    0    0    0  501 -0.00000000000E+00  0.00000000000E+00  0.43636398706E+02  0.43636398706E+02  0.00000000000E+00 0.  1.
          2   -1    0    0  501    0  0.00000000000E+00 -0.00000000000E+00 -0.10216393918E+04  0.10216393918E+04  0.00000000000E+00 0. -1.
         25    2    1    2    0    0 -0.16034926574E+03 -0.12558628743E+02 -0.29934219799E+03  0.36210864440E+03  0.12508921886E+03 0.  0.
          5    1    3    3  502    0 -0.90660707154E+02  0.60973970359E+01 -0.26858851068E+03  0.28357327544E+03  0.41800000000E+01 0. -1.
         -5    1    3    3    0  502 -0.69688558584E+02 -0.18656025779E+02 -0.30753687308E+02  0.78535368965E+02  0.41800000000E+01 0. -1.
        -11    1    1    2    0    0  0.28977150666E+02 -0.32912559234E+02 -0.13134207092E+03  0.13846895468E+03  0.00000000000E+00 0. -1.
         11    1    1    2    0    0  0.13137211507E+03  0.45471187977E+02 -0.54731872414E+03  0.56469819139E+03  0.00000000000E+00 0.  1.
</event>
<event>
 7    1  0.2820496E-009  0.1584758E+03  0.7561462E-02  0.1190428E+00
          2   -1    0    0  501    0  0.00000000000E+00  0.00000000000E+00  0.15566291275E+03  0.15566291275E+03  0.00000000000E+00 0. -1.
         -2   -1    0    0    0  501 -0.00000000000E+00 -0.00000000000E+00 -0.21609816308E+03  0.21609816308E+03  0.00000000000E+00 0.  1.
         25    2    1    2    0    0  0.10071742949E+03 -0.81833135222E+02  0.19091665983E+02  0.18125547696E+03  0.12509353938E+03 0.  0.
          5    1    3    3  502    0 -0.19648973056E+02  0.13906583246E+02  0.12040140258E+02  0.27238072200E+02  0.41800000000E+01 0.  1.
         -5    1    3    3    0  502  0.12036640255E+03 -0.95739718468E+02  0.70515257250E+01  0.15401740476E+03  0.41800000000E+01 0.  1.
        -11    1    1    2    0    0 -0.47762426533E+02  0.89827676265E+01 -0.87499070211E+02  0.10009009337E+03  0.00000000000E+00 0.  1.
         11    1    1    2    0    0 -0.52955002960E+02  0.72850367595E+02  0.79721538910E+01  0.90415505500E+02  0.00000000000E+00 0. -1.
</event>
<event>
 7    1  0.2820496E-009  0.6237393E+02  0.7561462E-02  0.1388131E+00
          2   -1    0    0  501    0  0.00000000000E+00  0.00000000000E+00  0.17778005012E+03  0.17778005012E+03  0.00000000000E+00 0. -1.
         -2   -1    0    0    0  501 -0.00000000000E+00 -0.00000000000E+00 -0.56459834032E+02  0.56459834032E+02  0.00000000000E+00 0.  1.
         25    2    1    2    0    0 -0.21388459220E+02  0.10929276632E+02  0.64969503752E+02  0.14298732851E+03  0.12508966552E+03 0.  0.
          5    1    3    3  502    0 -0.12098679698E+02  0.35855527745E+02  0.95183621867E+02  0.10251532174E+03  0.41800000000E+01 0. -1.
         -5    1    3    3    0  502 -0.92897795228E+01 -0.24926251113E+02 -0.30214118115E+02  0.40472006765E+02  0.41800000000E+01 0. -1.
        -11    1    1    2    0    0 -0.14453847387E+02  0.10611837868E+02 -0.34710381212E+01  0.18263978561E+02  0.00000000000E+00 0.  1.
         11    1    1    2    0    0  0.35842306608E+02 -0.21541114500E+02  0.59821750461E+02  0.72988577086E+02  0.00000000000E+00 0. -1.
</event>
<event>
 7    1  0.2820496E-009  0.1188699E+03  0.7561462E-02  0.1244973E+00
         -1   -1    0    0    0  501 -0.00000000000E+00  0.00000000000E+00  0.32877033885E+03  0.32877033885E+03  0.00000000000E+00 0.  1.
          1   -1    0    0  501    0  0.00000000000E+00 -0.00000000000E+00 -0.53242589401E+02  0.53242589401E+02  0.00000000000E+00 0. -1.
         25    2    1    2    0    0  0.42656887869E+02 -0.42522448463E+02  0.89043851673E+02  0.16493616358E+03  0.12508941534E+03 0.  0.
          5    1    3    3  502    0 -0.40244575950E+00  0.41137971080E+02  0.44508652852E+02  0.60753495421E+02  0.41800000000E+01 0. -1.
         -5    1    3    3    0  502  0.43059333628E+02 -0.83660419543E+02  0.44535198821E+02  0.10418266816E+03  0.41800000000E+01 0. -1.
        -11    1    1    2    0    0 -0.25222639036E+02 -0.23162648081E+02  0.26641997864E+02  0.43387623077E+02  0.00000000000E+00 0. -1.
         11    1    1    2    0    0 -0.17434248833E+02  0.65685096544E+02  0.15984189991E+03  0.17368914159E+03  0.00000000000E+00 0.  1.
</event>
<event>
 7    1  0.2820496E-009  0.2004746E+03  0.7561462E-02  0.1149339E+00
         -2   -1    0    0    0  501 -0.00000000000E+00  0.00000000000E+00  0.75644246514E+02  0.75644246514E+02  0.00000000000E+00 0. -1.
          2   -1    0    0  501    0  0.00000000000E+00 -0.00000000000E+00 -0.92459938972E+03  0.92459938972E+03  0.00000000000E+00 0.  1.
         25    2    1    2    0    0  0.18666676675E+03  0.47648890553E+02 -0.70675826046E+03  0.74314853582E+03  0.12509040322E+03 0.  0.
          5    1    3    3  502    0  0.41642282262E+02  0.58672457630E+01 -0.35718527212E+02  0.55333442248E+02  0.41800000000E+01 0. -1.
         -5    1    3    3    0  502  0.14502448449E+03  0.41781644790E+02 -0.67103973325E+03  0.68781509357E+03  0.41800000000E+01 0. -1.
        -11    1    1    2    0    0 -0.16321663215E+03 -0.10216397240E+02 -0.83457124478E+02  0.18360047769E+03  0.00000000000E+00 0. -1.
         11    1    1    2    0    0 -0.23450134597E+02 -0.37432493312E+02 -0.58739758272E+02  0.73494622729E+02  0.00000000000E+00 0.  1.
</event>
<event>
 7    1  0.2820496E-009  0.2976687E+03  0.7561462E-02  0.1086412E+00
         -2   -1    0    0    0  501 -0.00000000000E+00  0.00000000000E+00  0.17185658928E+03  0.17185658928E+03  0.00000000000E+00 0.  1.
          2   -1    0    0  501    0  0.00000000000E+00 -0.00000000000E+00 -0.55363572761E+03  0.55363572761E+03  0.00000000000E+00 0. -1.
         25    2    1    2    0    0 -0.26764633342E+03 -0.10791212121E+03 -0.18972422610E+03  0.36731817663E+03  0.12509106771E+03 0.  0.
          5    1    3    3  502    0 -0.10496026628E+02  0.52198314453E+01  0.15136789416E+02  0.19596122298E+02  0.41800000000E+01 0. -1.
         -5    1    3    3    0  502 -0.25715030679E+03 -0.11313195266E+03 -0.20486101551E+03  0.34772205433E+03  0.41800000000E+01 0. -1.
        -11    1    1    2    0    0  0.12692873137E+03  0.39878252330E+01 -0.89975768183E+02  0.15563561436E+03  0.00000000000E+00 0. -1.
         11    1    1    2    0    0  0.14071760204E+03  0.10392429598E+03 -0.10207914405E+03  0.20253852589E+03  0.00000000000E+00 0.  1.
</event>
<event>
 7    1  0.4446133E-009  0.5950115E+02  0.7561462E-02  0.1399937E+00
         -1   -1    0    0    0  501 -0.00000000000E+00  0.00000000000E+00  0.40714447776E+02  0.40714447776E+02  0.00000000000E+00 0.  1.
          1   -1    0    0  501    0  0.00000000000E+00 -0.00000000000E+00 -0.35752806930E+03  0.35752806930E+03  0.00000000000E+00 0. -1.
         25    2    1    2    0    0  0.86133303020E+01 -0.28636852470E+02 -0.24571807143E+03  0.27734312624E+03  0.12509028847E+03 0.  0.
          5    1    3    3  502    0  0.33253698159E+02 -0.72510221689E+01 -0.24179754861E+03  0.24421693774E+03  0.41800000000E+01 0.  1.
         -5    1    3    3    0  502 -0.24640367857E+02 -0.21385830301E+02 -0.39205228177E+01  0.33126188506E+02  0.41800000000E+01 0.  1.
        -11    1    1    2    0    0 -0.22705669793E+02  0.34629845395E+01  0.16756881740E+02  0.28431193930E+02  0.00000000000E+00 0.  1.
         11    1    1    2    0    0  0.14092339491E+02  0.25173867931E+02 -0.87852431830E+02  0.92468196897E+02  0.00000000000E+00 0. -1.
</event>
<event>
 7    1  0.2820496E-009  0.1512868E+03  0.7561462E-02  0.1198901E+00
          3   -1    0    0  501    0  0.00000000000E+00  0.00000000000E+00  0.62578118744E+02  0.62578118744E+02  0.00000000000E+00 0. -1.
         -3   -1    0    0    0  501 -0.00000000000E+00 -0.00000000000E+00 -0.53403059055E+03  0.53403059055E+03  0.00000000000E+00 0.  1.
         25    2    1    2    0    0  0.85962585879E+02  0.61405211836E+02 -0.82533472383E+02  0.18334030938E+03  0.12506689717E+03 0.  0.
          5    1    3    3  502    0  0.85818980571E+02 -0.14248650646E+02 -0.34803518705E+02  0.93790611394E+02  0.41800000000E+01 0.  1.
         -5    1    3    3    0  502  0.14360530841E+00  0.75653862482E+02 -0.47729953678E+02  0.89549697984E+02  0.41800000000E+01 0.  1.
        -11    1    1    2    0    0 -0.30694442120E+02 -0.76491190658E+02 -0.22399351348E+03  0.23867581592E+03  0.00000000000E+00 0. -1.
         11    1    1    2    0    0 -0.55268143759E+02  0.15085978821E+02 -0.16492548594E+03  0.17459258399E+03  0.00000000000E+00 0.  1.
</event>
<event>
 6    1  0.2820496E-009  0.1081499E+03  0.7561462E-02  0.1264035E+00
         -2   -1    0    0    0  501 -0.00000000000E+00  0.00000000000E+00  0.39459252167E+02  0.39459252167E+02  0.00000000000E+00 0.  1.
          2   -1    0    0  501    0  0.00000000000E+00 -0.00000000000E+00 -0.35262942515E+03  0.35262942515E+03  0.00000000000E+00 0. -1.
          5    1    1    2  502    0  0.42888300157E+02  0.32963261337E+02 -0.38129960081E+02  0.66312511218E+02  0.41800000000E+01 0. -1.
         -5    1    1    2    0  502 -0.21239984059E+02 -0.64724420895E+02 -0.12818495361E+03  0.14522135627E+03  0.41800000000E+01 0. -1.
        -11    1    1    2    0    0 -0.41207909579E+02  0.51534947154E+02 -0.59396453531E+02  0.88779959912E+02  0.00000000000E+00 0.  1.
         11    1    1    2    0    0  0.19559593481E+02 -0.19773787595E+02 -0.87458805759E+02  0.91774849920E+02  0.00000000000E+00 0. -1.
</event>
<event>
 7    1  0.2820496E-009  0.1596476E+03  0.7561462E-02  0.1189095E+00
          1   -1    0    0  501    0  0.00000000000E+00  0.00000000000E+00  0.17455950698E+04  0.17455950698E+04  0.00000000000E+00 0. -1.
         -1   -1    0    0    0  501 -0.00000000000E+00 -0.00000000000E+00 -0.20866410591E+02  0.20866410591E+02  0.00000000000E+00 0.  1.
         25    2    1    2    0    0 -0.84188360573E+02 -0.10780512600E+03  0.12555936636E+04  0.12692016359E+04  0.12509084448E+03 0.  0.
          5    1    3    3  502    0 -0.78973838206E+02 -0.12556923523E+03  0.82842407119E+03  0.84161060716E+03  0.41800000000E+01 0. -1.
         -5    1    3    3    0  502 -0.52145223665E+01  0.17764109231E+02  0.42716959241E+03  0.42759102879E+03  0.41800000000E+01 0. -1.
        -11    1    1    2    0    0  0.84738496153E+02  0.59341105896E+02  0.21560954665E+03  0.23914317090E+03  0.00000000000E+00 0.  1.
         11    1    1    2    0    0 -0.55013558032E+00  0.48464020101E+02  0.25352544892E+03  0.25811667350E+03  0.00000000000E+00 0. -1.
</event>
<event>
 7    1  0.2820496E-009  0.1096716E+03  0.7561462E-02  0.1261179E+00
         -2   -1    0    0    0  501 -0.00000000000E+00  0.00000000000E+00  0.43247110476E+02  0.43247110476E+02  0.00000000000E+00 0.  1.
          2   -1    0    0  501    0  0.00000000000E+00 -0.00000000000E+00 -0.29669933369E+03  0.29669933369E+03  0.00000000000E+00 0. -1.
         25    2    1    2    0    0 -0.35823201001E+02 -0.11950754424E+02 -0.16810878984E+03  0.21292319517E+03  0.12509835955E+03 0.  0.
          5    1    3    3  502    0 -0.58432087244E+01 -0.66929180726E+02 -0.76787331495E+02  0.10211476386E+03  0.41800000000E+01 0. -1.
         -5    1    3    3    0  502 -0.29979992277E+02  0.54978426302E+02 -0.91321458340E+02  0.11080843131E+03  0.41800000000E+01 0. -1.
        -11    1    1    2    0    0  0.57872978233E+02 -0.93352902130E+01 -0.35563269373E+02  0.68565117818E+02  0.00000000000E+00 0.  1.
         11    1    1    2    0    0 -0.22049777232E+02  0.21286044637E+02 -0.49780164005E+02  0.58458131177E+02  0.00000000000E+00 0. -1.
</event>
<event>
 7    1  0.2820496E-009  0.5947554E+02  0.7561462E-02  0.1400046E+00
          1   -1    0    0  501    0  0.00000000000E+00  0.00000000000E+00  0.76485749961E+03  0.76485749961E+03  0.00000000000E+00 0. -1.
         -1   -1    0    0    0  501 -0.00000000000E+00 -0.00000000000E+00 -0.10350070864E+02  0.10350070864E+02  0.00000000000E+00 0.  1.
         25    2    1    2    0    0 -0.32731218147E+01  0.16843343575E+01  0.64926346741E+03  0.66121364780E+03  0.12508751981E+03 0.  0.
          5    1    3    3  502    0  0.12446341564E+02  0.36472915832E+02  0.64941517816E+02  0.75631065997E+02  0.41800000000E+01 0. -1.
         -5    1    3    3    0  502 -0.15719463379E+02 -0.34788581475E+02  0.58432194959E+03  0.58558258180E+03  0.41800000000E+01 0. -1.
        -11    1    1    2    0    0  0.13656097227E+02  0.16148292919E+02  0.70298677027E+02  0.73410900740E+02  0.00000000000E+00 0.  1.
         11    1    1    2    0    0 -0.10382975412E+02 -0.17832627277E+02  0.34945284306E+02  0.40583021933E+02  0.00000000000E+00 0. -1.
</event>
<event>
 7    1  0.2820496E-009  0.1390540E+03  0.7561462E-02  0.1214608E+00
         -2   -1    0    0    0  501 -0.00000000000E+00  0.00000000000E+00  0.59331919872E+02  0.59331919872E+02  0.00000000000E+00 0.  1.
          2   -1    0    0  501    0  0.00000000000E+00 -0.00000000000E+00 -0.46136327792E+03  0.46136327792E+03  0.00000000000E+00 0. -1.
         25    2    1    2    0    0 -0.53216993797E+02  0.92572605985E+02 -0.12138990249E+03  0.20441152334E+03  0.12508727609E+03 0.  0.
          5    1    3    3  502    0  0.18220078617E+01 -0.29750098362E+02 -0.18749796956E+02  0.35460052892E+02  0.41800000000E+01 0.  1.
         -5    1    3    3    0  502 -0.55039001658E+02  0.12232270435E+03 -0.10264010553E+03  0.16895147044E+03  0.41800000000E+01 0.  1.
        -11    1    1    2    0    0  0.39947106017E+02 -0.92260138142E+02 -0.28507937343E+03  0.30228786533E+03  0.00000000000E+00 0. -1.
         11    1    1    2    0    0  0.13269887779E+02 -0.31246784312E+00  0.44379178771E+01  0.13995809120E+02  0.00000000000E+00 0.  1.
</event>
<event>
 7    1  0.2820496E-009  0.1126387E+03  0.7561462E-02  0.1255760E+00
         -2   -1    0    0    0  501 -0.00000000000E+00  0.00000000000E+00  0.74664367488E+02  0.74664367488E+02  0.00000000000E+00 0.  1.
          2   -1    0    0  501    0  0.00000000000E+00 -0.00000000000E+00 -0.22138961628E+03  0.22138961628E+03  0.00000000000E+00 0. -1.
         25    2    1    2    0    0  0.30172121977E+02 -0.30861622938E+02 -0.14513800854E+03  0.19640601163E+03  0.12508990033E+03 0.  0.
          5    1    3    3  502    0 -0.44730324511E+02 -0.23642555173E+02 -0.30533693795E+02  0.59241465231E+02  0.41800000000E+01 0. -1.
         -5    1    3    3    0  502  0.74902446488E+02 -0.72190677649E+01 -0.11460431475E+03  0.13716454640E+03  0.41800000000E+01 0. -1.
        -11    1    1    2    0    0 -0.61685447844E+02  0.13424270441E+02 -0.57578835058E+01  0.63391314350E+02  0.00000000000E+00 0.  1.
         11    1    1    2    0    0  0.31513325867E+02  0.17437352497E+02  0.41706432520E+01  0.36256657795E+02  0.00000000000E+00 0. -1.
</event>
<event>
 7    1  0.2820496E-009  0.1536997E+03  0.7561462E-02  0.1195999E+00
         -1   -1    0    0    0  501 -0.00000000000E+00  0.00000000000E+00  0.70099842099E+02  0.70099842099E+02  0.00000000000E+00 0. -1.
          1   -1    0    0  501    0  0.00000000000E+00 -0.00000000000E+00 -0.36974940926E+03  0.36974940926E+03  0.00000000000E+00 0.  1.
         25    2    1    2    0    0  0.10691683794E+03 -0.15829786531E+02 -0.22182467908E+03  0.27665053730E+03  0.12509012416E+03 0.  0.
          5    1    3    3  502    0  0.84070399417E+01  0.47276697445E+02 -0.61587442547E+02  0.78206457031E+02  0.41800000000E+01 0. -1.
         -5    1    3    3    0  502  0.98509797998E+02 -0.63106483976E+02 -0.16023723653E+03  0.19844408027E+03  0.41800000000E+01 0. -1.
        -11    1    1    2    0    0 -0.15962410732E+02  0.44090628671E+02 -0.36283564491E+02  0.59289789552E+02  0.00000000000E+00 0.  1.
         11    1    1    2    0    0 -0.90954427208E+02 -0.28260842140E+02 -0.41541323595E+02  0.10390892451E+03  0.00000000000E+00 0. -1.
</event>
<event>
 7    1  0.2820496E-009  0.1716210E+03  0.7561462E-02  0.1176168E+00
          1   -1    0    0  501    0  0.00000000000E+00  0.00000000000E+00  0.51596893520E+03  0.51596893520E+03  0.00000000000E+00 0. -1.
         -1   -1    0    0    0  501 -0.00000000000E+00 -0.00000000000E+00 -0.89424278509E+02  0.89424278509E+02  0.00000000000E+00 0.  1.
         25    2    1    2    0    0  0.12832704628E+03 -0.65669117323E+02  0.57978044569E+02  0.19946976508E+03  0.12508584954E+03 0.  0.
          5    1    3    3  502    0  0.93984613848E+01  0.24107087371E+02  0.42055037836E+02  0.49553822712E+02  0.41800000000E+01 0. -1.
         -5    1    3    3    0  502  0.11892858489E+03 -0.89776204694E+02  0.15923006733E+02  0.14991594237E+03  0.41800000000E+01 0. -1.
        -11    1    1    2    0    0 -0.53555819144E+01 -0.18294295938E+02  0.66066869403E+02  0.68761869915E+02  0.00000000000E+00 0. -1.
         11    1    1    2    0    0 -0.12297146436E+03  0.83963413261E+02  0.30249974272E+03  0.33716157871E+03  0.00000000000E+00 0.  1.
</event>
<event>
 7    1  0.2820496E-009  0.1625136E+03  0.7561462E-02  0.1185888E+00
         -2   -1    0    0    0  501 -0.00000000000E+00  0.00000000000E+00  0.11691075686E+02  0.11691075686E+02  0.00000000000E+00 0. -1.
          2   -1    0    0  501    0  0.00000000000E+00 -0.00000000000E+00 -0.31863058517E+04  0.31863058517E+04  0.00000000000E+00 0.  1.
         25    2    1    2    0    0 -0.14157076139E+03 -0.53622864351E+01 -0.22720533906E+04  0.22798990645E+04  0.12506838127E+03 0.  0.
          5    1    3    3  502    0 -0.66161383428E+02 -0.35981629659E+02 -0.17405893676E+04  0.17422229551E+04  0.41800000000E+01 0. -1.
         -5    1    3    3    0  502 -0.75409377960E+02  0.30619343224E+02 -0.53146402305E+03  0.53767610943E+03  0.41800000000E+01 0. -1.
        -11    1    1    2    0    0  0.95049041509E+02 -0.40002508923E+02 -0.53947320797E+03  0.54924117028E+03  0.00000000000E+00 0. -1.
         11    1    1    2    0    0  0.46521719879E+02  0.45364795358E+02 -0.36308817747E+03  0.36885669263E+03  0.00000000000E+00 0.  1.
</event>
<event>
 7    1  0.2820496E-009  0.2084961E+03  0.7561462E-02  0.1142762E+00
          1   -1    0    0  501    0  0.00000000000E+00  0.00000000000E+00  0.12839290346E+04  0.12839290346E+04  0.00000000000E+00 0. -1.
         -1   -1    0    0    0  501 -0.00000000000E+00 -0.00000000000E+00 -0.41614710333E+02  0.41614710333E+02  0.00000000000E+00 0.  1.
         25    2    1    2    0    0  0.79479683058E+02  0.18644437638E+03  0.69695010631E+03  0.73652230718E+03  0.12508849981E+03 0.  0.
          5    1    3    3  502    0  0.80409123835E+02  0.16995692083E+03  0.43367888363E+03  0.47270056975E+03  0.41800000000E+01 0.  1.
         -5    1    3    3    0  502 -0.92944077632E+00  0.16487455554E+02  0.26327122268E+03  0.26382173743E+03  0.41800000000E+01 0.  1.
        -11    1    1    2    0    0  0.10228704632E+02 -0.28078321723E+02  0.16089122638E+03  0.16364292003E+03  0.00000000000E+00 0. -1.
         11    1    1    2    0    0 -0.89708387690E+02 -0.15836605466E+03  0.38447299158E+03  0.42537851772E+03  0.00000000000E+00 0.  1.
</event>
<event>
 7    1  0.2820496E-009  0.1212226E+03  0.7561462E-02  0.1241094E+00
         -3   -1    0    0    0  501 -0.00000000000E+00  0.00000000000E+00  0.17648779973E+03  0.17648779973E+03  0.00000000000E+00 0.  1.
          3   -1    0    0  501    0  0.00000000000E+00 -0.00000000000E+00 -0.10367844753E+03  0.10367844753E+03  0.00000000000E+00 0. -1.
         25    2    1    2    0    0  0.45813397789E+02  0.66100573303E+02  0.37669311062E+02  0.15341002056E+03  0.12508998443E+03 0.  0.
          5    1    3    3  502    0 -0.25878228384E+02 -0.21370920563E+02 -0.93126119459E+00  0.33833985834E+02  0.41800000000E+01 0. -1.
         -5    1    3    3    0  502  0.71691626173E+02  0.87471493867E+02  0.38600572256E+02  0.11957603473E+03  0.41800000000E+01 0. -1.
        -11    1    1    2    0    0 -0.19201346250E+02 -0.66105474957E+02  0.59266387929E+02  0.90835732260E+02  0.00000000000E+00 0.  1.
         11    1    1    2    0    0 -0.26612051539E+02  0.49016542939E-02 -0.24126346796E+02  0.35920494441E+02  0.00000000000E+00 0. -1.
</event>
<event>
 7    1  0.2820496E-009  0.9831669E+02  0.7561462E-02  0.1283876E+00
         -2   -1    0    0    0  501 -0.00000000000E+00  0.00000000000E+00  0.29197624163E+02  0.29197624163E+02  0.00000000000E+00 0.  1.
          2   -1    0    0  501    0  0.00000000000E+00 -0.00000000000E+00 -0.39331440978E+03  0.39331440978E+03  0.00000000000E+00 0. -1.
         25    2    1    2    0    0  0.93986152618E+01 -0.89819158235E+00 -0.23930520632E+03  0.27019192088E+03  0.12509017395E+03 0.  0.
          5    1    3    3  502    0 -0.12129233173E+00  0.55982894754E+02 -0.61730994009E+02  0.83440321417E+02  0.41800000000E+01 0. -1.
         -5    1    3    3    0  502  0.95199075935E+01 -0.56881086337E+02 -0.17757421231E+03  0.18675159946E+03  0.41800000000E+01 0. -1.
        -11    1    1    2    0    0 -0.34641680329E+02  0.28796436682E+02 -0.91842445367E+02  0.10229523719E+03  0.00000000000E+00 0.  1.
         11    1    1    2    0    0  0.25243065067E+02 -0.27898245100E+02 -0.32969133925E+02  0.50024875866E+02  0.00000000000E+00 0. -1.
</event>
<event>
 7    1  0.2820496E-009  0.1444667E+03  0.7561462E-02  0.1207442E+00
         -1   -1    0    0    0  501 -0.00000000000E+00  0.00000000000E+00  0.29330209274E+03  0.29330209274E+03  0.00000000000E+00 0.  1.
          1   -1    0    0  501    0  0.00000000000E+00 -0.00000000000E+00 -0.92541429490E+02  0.92541429490E+02  0.00000000000E+00 0. -1.
         25    2    1    2    0    0  0.49859432616E+02 -0.11310445608E+03  0.10868390009E+03  0.20674035500E+03  0.12510317038E+03 0.  0.
          5    1    3    3  502    0 -0.10336062410E+02  0.99698978543E+00 -0.20983204439E+02  0.23782250593E+02  0.41800000000E+01 0.  1.
         -5    1    3    3    0  502  0.60195495025E+02 -0.11410144586E+03  0.12966710453E+03  0.18295810440E+03  0.41800000000E+01 0.  1.
        -11    1    1    2    0    0 -0.49671380108E+02  0.16909933333E+02  0.11726444602E+02  0.53765242957E+02  0.00000000000E+00 0. -1.
         11    1    1    2    0    0 -0.18805250714E+00  0.96194522745E+02  0.80350318556E+02  0.12533792428E+03  0.00000000000E+00 0.  1.
</event>
<event>
 7    1  0.2820496E-009  0.1314172E+03  0.7561462E-02  0.1225368E+00
          1   -1    0    0  501    0  0.00000000000E+00  0.00000000000E+00  0.43212651225E+03  0.43212651225E+03  0.00000000000E+00 0. -1.
         -1   -1    0    0    0  501 -0.00000000000E+00 -0.00000000000E+00 -0.52883036649E+02  0.52883036649E+02  0.00000000000E+00 0.  1.
         25    2    1    2    0    0  0.83783287316E+02  0.36009172106E+02  0.22609443981E+03  0.27401194668E+03  0.12509017348E+03 0.  0.
          5    1    3    3  502    0 -0.63568663928E+01  0.47363432866E+02  0.26807762216E+02  0.54953007545E+02  0.41800000000E+01 0. -1.
         -5    1    3    3    0  502  0.90140153709E+02 -0.11354260760E+02  0.19928667760E+03  0.21905893914E+03  0.41800000000E+01 0. -1.
        -11    1    1    2    0    0 -0.84343208920E+02  0.34868542453E+01  0.44574458426E+02  0.95461077867E+02  0.00000000000E+00 0.  1.
         11    1    1    2    0    0  0.55992160453E+00 -0.39496026351E+02  0.10857457736E+03  0.11553652435E+03  0.00000000000E+00 0. -1.
</event>
<event>
 7    1  0.2820496E-009  0.1219509E+03  0.7561462E-02  0.1239913E+00
         -1   -1    0    0    0  501 -0.00000000000E+00  0.00000000000E+00  0.43369574397E+03  0.43369574397E+03  0.00000000000E+00 0.  1.
          1   -1    0    0  501    0  0.00000000000E+00 -0.00000000000E+00 -0.47799045135E+02  0.47799045135E+02  0.00000000000E+00 0. -1.
         25    2    1    2    0    0 -0.56737355750E+02 -0.66883082037E+02  0.27073777259E+03  0.31086618421E+03  0.12508544589E+03 0.  0.
          5    1    3    3  502    0 -0.69536027986E+01 -0.87867155974E+02  0.21830474613E+03  0.23546427388E+03  0.41800000000E+01 0. -1.
         -5    1    3    3    0  502 -0.49783752951E+02  0.20984073936E+02  0.52433026467E+02  0.75401910330E+02  0.41800000000E+01 0. -1.
        -11    1    1    2    0    0 -0.94615088761E+01  0.13217550240E+02  0.74416427288E+02  0.76171047222E+02  0.00000000000E+00 0.  1.
         11    1    1    2    0    0  0.66198864626E+02  0.53665531798E+02  0.40742498950E+02  0.94457557673E+02  0.00000000000E+00 0. -1.
</event>
<event>
 7    1  0.2820496E-009  0.5463762E+02  0.7561462E-02  0.1421820E+00
          3   -1    0    0  501    0  0.00000000000E+00  0.00000000000E+00  0.77211495641E+02  0.77211495641E+02  0.00000000000E+00 0. -1.
         -3   -1    0    0    0  501 -0.00000000000E+00 -0.00000000000E+00 -0.16943917603E+03  0.16943917603E+03  0.00000000000E+00 0.  1.
         25    2    1    2    0    0  0.37621367204E+01  0.23585094171E+02 -0.41857227864E+02  0.13406017233E+03  0.12509872877E+03 0.  0.
          5    1    3    3  502    0 -0.92430361778E+00 -0.18502527178E+02  0.38613367972E+02  0.43030947413E+02  0.41800000000E+01 0.  1.
         -5    1    3    3    0  502  0.46864403382E+01  0.42087621349E+02 -0.80470595836E+02  0.91029224912E+02  0.41800000000E+01 0.  1.
        -11    1    1    2    0    0  0.34081211852E+01 -0.34501669713E+02  0.20667122941E+02  0.40362240692E+02  0.00000000000E+00 0. -1.
         11    1    1    2    0    0 -0.71702579056E+01  0.10916575542E+02 -0.71037575468E+02  0.72228258655E+02  0.00000000000E+00 0.  1.
</event>
<event>
 7    1  0.2820496E-009  0.8831033E+02  0.7561462E-02  0.1306996E+00
          2   -1    0    0  501    0  0.00000000000E+00  0.00000000000E+00  0.27996805592E+03  0.27996805592E+03  0.00000000000E+00 0. -1.
         -2   -1    0    0    0  501 -0.00000000000E+00 -0.00000000000E+00 -0.71459459451E+02  0.71459459451E+02  0.00000000000E+00 0.  1.
         25    2    1    2    0    0 -0.79610655800E+02  0.30421411662E+02  0.75489717549E+02  0.16914627575E+03  0.12509375020E+03 0.  0.
          5    1    3    3  502    0 -0.51754546377E+02  0.35328153464E+02 -0.22776726753E+02  0.66804664354E+02  0.41800000000E+01 0.  1.
         -5    1    3    3    0  502 -0.27856109422E+02 -0.49067418021E+01  0.98266444302E+02  0.10234161140E+03  0.41800000000E+01 0.  1.
        -11    1    1    2    0    0  0.17353440904E+02 -0.64111997253E+01  0.11022807820E+03  0.11176973927E+03  0.00000000000E+00 0. -1.
         11    1    1    2    0    0  0.62257214895E+02 -0.24010211937E+02  0.22790800715E+02  0.70511500346E+02  0.00000000000E+00 0.  1.
</event>
<event>
 7    1  0.2820496E-009  0.1191810E+03  0.7561462E-02  0.1244454E+00
         -2   -1    0    0    0  501 -0.00000000000E+00  0.00000000000E+00  0.15789048665E+03  0.15789048665E+03  0.00000000000E+00 0.  1.
          2   -1    0    0  501    0  0.00000000000E+00 -0.00000000000E+00 -0.10927519423E+03  0.10927519423E+03  0.00000000000E+00 0. -1.
         25    2    1    2    0    0  0.51205558409E+02 -0.51657607761E+02  0.34006392441E+02  0.14864241276E+03  0.12509042526E+03 0.  0.
          5    1    3    3  502    0  0.33887481140E+02  0.25762506516E+02 -0.25126489332E+02  0.49607267473E+02  0.41800000000E+01 0. -1.
         -5    1    3    3    0  502  0.17318077269E+02 -0.77420114277E+02  0.59132881774E+02  0.99035145286E+02  0.41800000000E+01 0. -1.
        -11    1    1    2    0    0 -0.64625813782E+02  0.68788270970E+02  0.19115129620E+02  0.96300104935E+02  0.00000000000E+00 0.  1.
         11    1    1    2    0    0  0.13420255373E+02 -0.17130663209E+02 -0.45062296396E+01  0.22223163182E+02  0.00000000000E+00 0. -1.
</event>
<event>
 7    1  0.2820496E-009  0.8488134E+02  0.7561462E-02  0.1315743E+00
         -2   -1    0    0    0  501 -0.00000000000E+00  0.00000000000E+00  0.82248344956E+02  0.82248344956E+02  0.00000000000E+00 0.  1.
          2   -1    0    0  501    0  0.00000000000E+00 -0.00000000000E+00 -0.15686551199E+03  0.15686551199E+03  0.00000000000E+00 0. -1.
         25    2    1    2    0    0  0.24984481300E+02  0.13783337560E+02 -0.60317990392E+02  0.14177426105E+03  0.12508987342E+03 0.  0.
          5    1    3    3  502    0 -0.20008470408E+02 -0.35920793212E+02 -0.62077809583E+02  0.74577269430E+02  0.41800000000E+01 0.  1.
         -5    1    3    3    0  502  0.44992951708E+02  0.49704130772E+02  0.17598191915E+01  0.67196991620E+02  0.41800000000E+01 0.  1.
        -11    1    1    2    0    0  0.37934937532E+01  0.17993009370E+02  0.30321299221E+02  0.35461530811E+02  0.00000000000E+00 0.  1.
         11    1    1    2    0    0 -0.28777975053E+02 -0.31776346930E+02 -0.44620475861E+02  0.61878065083E+02  0.00000000000E+00 0. -1.
</event>
<event>
 7    1  0.2820496E-009  0.1578826E+03  0.7561462E-02  0.1191108E+00
         -1   -1    0    0    0  501 -0.00000000000E+00  0.00000000000E+00  0.52098611344E+02  0.52098611344E+02  0.00000000000E+00 0.  1.
          1   -1    0    0  501    0  0.00000000000E+00 -0.00000000000E+00 -0.79376438573E+03  0.79376438573E+03  0.00000000000E+00 0. -1.
         25    2    1    2    0    0 -0.10618418194E+03  0.75007440332E+02 -0.15400979481E+03  0.23721156711E+03  0.12509641909E+03 0.  0.
          5    1    3    3  502    0  0.25970574752E+01 -0.27625709008E+02 -0.10689088855E+02  0.30027546125E+02  0.41800000000E+01 0.  1.
         -5    1    3    3    0  502 -0.10878123942E+03  0.10263314934E+03 -0.14332070596E+03  0.20718402098E+03  0.41800000000E+01 0.  1.
        -11    1    1    2    0    0  0.10327358499E+03 -0.53352374963E+02 -0.56626943111E+03  0.57807696537E+03  0.00000000000E+00 0. -1.
         11    1    1    2    0    0  0.29105969522E+01 -0.21655065370E+02 -0.21386548453E+02  0.30574464599E+02  0.00000000000E+00 0.  1.
</event>
<event>
 7    1  0.2820496E-009  0.9271418E+02  0.7561462E-02  0.1296409E+00
          2   -1    0    0  501    0  0.00000000000E+00  0.00000000000E+00  0.48649936430E+03  0.48649936430E+03  0.00000000000E+00 0. -1.
         -2   -1    0    0    0  501 -0.00000000000E+00 -0.00000000000E+00 -0.41236604599E+02  0.41236604599E+02  0.00000000000E+00 0.  1.
         25    2    1    2    0    0 -0.14780914679E+02  0.68608460973E+02  0.35631318177E+03  0.38410000721E+03  0.12509250846E+03 0.  0.
          5    1    3    3  502    0 -0.73098032992E+01  0.74503452099E+01  0.30095665150E+03  0.30116659733E+03  0.41800000000E+01 0.  1.
         -5    1    3    3    0  502 -0.74711113795E+01  0.61158115763E+02  0.55356530278E+02  0.82933409874E+02  0.41800000000E+01 0.  1.
        -11    1    1    2    0    0  0.82921297333E+01 -0.89843983913E+02  0.75719756775E+02  0.11778871944E+03  0.00000000000E+00 0.  1.
         11    1    1    2    0    0  0.64887849454E+01  0.21235522940E+02  0.13229821155E+02  0.25847242259E+02  0.00000000000E+00 0. -1.
</event>
<event>
 7    1  0.2820496E-009  0.1376056E+03  0.7561462E-02  0.1216588E+00
         -2   -1    0    0    0  501 -0.00000000000E+00  0.00000000000E+00  0.33560628802E+02  0.33560628802E+02  0.00000000000E+00 0.  1.
          2   -1    0    0  501    0  0.00000000000E+00 -0.00000000000E+00 -0.70773290818E+03  0.70773290818E+03  0.00000000000E+00 0. -1.
         25    2    1    2    0    0 -0.30232709447E+01 -0.10526993511E+03 -0.30664022221E+03  0.34751549611E+03  0.12509154550E+03 0.  0.
          5    1    3    3  502    0 -0.44769726787E+02 -0.40580412218E+02 -0.23354408301E+03  0.24127040722E+03  0.41800000000E+01 0.  1.
         -5    1    3    3    0  502  0.41746455842E+02 -0.64689522889E+02 -0.73096139198E+02  0.10624508889E+03  0.41800000000E+01 0.  1.
        -11    1    1    2    0    0 -0.41944493306E+02  0.37844598567E+02 -0.10795834710E+03  0.12184645612E+03  0.00000000000E+00 0.  1.
         11    1    1    2    0    0  0.44967764251E+02  0.67425336540E+02 -0.25957371006E+03  0.27193158475E+03  0.00000000000E+00 0. -1.
</event>
<event>
 7    1  0.3061397E-009  0.9896798E+02  0.7561462E-02  0.1282481E+00
          2   -1    0    0  501    0  0.00000000000E+00  0.00000000000E+00  0.42106485798E+03  0.42106485798E+03  0.00000000000E+00 0. -1.
         -2   -1    0    0    0  501 -0.00000000000E+00 -0.00000000000E+00 -0.39728433984E+02  0.39728433984E+02  0.00000000000E+00 0.  1.
         25    2    1    2    0    0 -0.66579541418E+02 -0.13575761592E+01  0.17441640597E+03  0.22472960934E+03  0.12509051242E+03 0.  0.
          5    1    3    3  502    0  0.53802534278E+01 -0.26145146493E+02  0.13732938907E+03  0.13996195667E+03  0.41800000000E+01 0. -1.
         -5    1    3    3    0  502 -0.71959794845E+02  0.24787570333E+02  0.37087016893E+02  0.84767652671E+02  0.41800000000E+01 0. -1.
        -11    1    1    2    0    0  0.72167691368E+02  0.20280211799E+02  0.88367178174E+02  0.11588020041E+03  0.00000000000E+00 0.  1.
         11    1    1    2    0    0 -0.55881499506E+01 -0.18922635640E+02  0.11855283985E+03  0.12018348221E+03  0.00000000000E+00 0. -1.
</event>
<event>
 7    1  0.2820496E-009  0.1084751E+03  0.7561462E-02  0.1263420E+00
          2   -1    0    0  501    0  0.00000000000E+00  0.00000000000E+00  0.12571826618E+03  0.12571826618E+03  0.00000000000E+00 0. -1.
         -2   -1    0    0    0  501 -0.00000000000E+00 -0.00000000000E+00 -0.12183284109E+03  0.12183284109E+03  0.00000000000E+00 0.  1.
         25    2    1    2    0    0  0.17292848796E+02  0.32360182051E+01 -0.55205336967E+02  0.13785685535E+03  0.12508944362E+03 0.  0.
          5    1    3    3  502    0 -0.43924714564E+02  0.34949223364E+02 -0.33277546119E+02  0.65388808209E+02  0.41800000000E+01 0.  1.
         -5    1    3    3    0  502  0.61217563360E+02 -0.31713205159E+02 -0.21927790848E+02  0.72468047142E+02  0.41800000000E+01 0.  1.
        -11    1    1    2    0    0 -0.11100355789E+02 -0.46540817197E+02  0.23532934088E+02  0.53320395262E+02  0.00000000000E+00 0.  1.
         11    1    1    2    0    0 -0.61924930063E+01  0.43304798992E+02  0.35557827963E+02  0.56373856661E+02  0.00000000000E+00 0. -1.
</event>
<event>
 7    1  0.2820496E-009  0.1290629E+03  0.7561462E-02  0.1228853E+00
          2   -1    0    0  501    0  0.00000000000E+00  0.00000000000E+00  0.36753109641E+02  0.36753109641E+02  0.00000000000E+00 0. -1.
         -2   -1    0    0    0  501 -0.00000000000E+00 -0.00000000000E+00 -0.90191522103E+03  0.90191522103E+03  0.00000000000E+00 0.  1.
         25    2    1    2    0    0 -0.99077115992E+02  0.27833690346E+02 -0.65538270598E+03  0.67510333210E+03  0.12508808289E+03 0.  0.
          5    1    3    3  502    0 -0.96615767739E+02  0.58573254496E+02 -0.60794587933E+03  0.61836970925E+03  0.41800000000E+01 0.  1.
         -5    1    3    3    0  502 -0.24613482531E+01 -0.30739564150E+02 -0.47436826649E+02  0.56733622852E+02  0.41800000000E+01 0.  1.
        -11    1    1    2    0    0  0.12489573544E+02 -0.24256212601E+02 -0.16263996925E+03  0.16491244009E+03  0.00000000000E+00 0.  1.
         11    1    1    2    0    0  0.86587542448E+02 -0.35774777448E+01 -0.47139436155E+02  0.98652558483E+02  0.00000000000E+00 0. -1.
</event>
<event>
 7    1  0.2820496E-009  0.1217040E+03  0.7561462E-02  0.1240312E+00
          2   -1    0    0  501    0  0.00000000000E+00  0.00000000000E+00  0.11255371227E+04  0.11255371227E+04  0.00000000000E+00 0. -1.
         -2   -1    0    0    0  501 -0.00000000000E+00 -0.00000000000E+00 -0.16962093263E+02  0.16962093263E+02  0.00000000000E+00 0.  1.
         25    2    1    2    0    0 -0.71803316596E+02  0.36514449424E+01  0.79975027844E+03  0.81266006234E+03  0.12508724849E+03 0.  0.
          5    1    3    3  502    0 -0.10444373014E+03 -0.11845021639E+02  0.51818383571E+03  0.52875396670E+03  0.41800000000E+01 0.  1.
         -5    1    3    3    0  502  0.32640413548E+02  0.15496466582E+02  0.28156644273E+03  0.28390609564E+03  0.41800000000E+01 0.  1.
        -11    1    1    2    0    0  0.21796198414E+02  0.33202938274E+02  0.51027860732E+02  0.64663374071E+02  0.00000000000E+00 0.  1.
         11    1    1    2    0    0  0.50007118182E+02 -0.36854383217E+02  0.25779689030E+03  0.26517577959E+03  0.00000000000E+00 0. -1.
</event>
<event>
 7    1  0.2820496E-009  0.1223151E+03  0.7561462E-02  0.1239326E+00
          1   -1    0    0  501    0  0.00000000000E+00  0.00000000000E+00  0.67436272910E+03  0.67436272910E+03  0.00000000000E+00 0. -1.
         -1   -1    0    0    0  501 -0.00000000000E+00 -0.00000000000E+00 -0.24774715300E+02  0.24774715300E+02  0.00000000000E+00 0.  1.
         25    2    1    2    0    0  0.74295562533E+02 -0.52470163920E+01  0.36582676343E+03  0.39373109820E+03  0.12509034758E+03 0.  0.
          5    1    3    3  502    0  0.60913145268E+02 -0.61485325372E+02  0.19642311493E+03  0.21468667630E+03  0.41800000000E+01 0.  1.
         -5    1    3    3    0  502  0.13382417265E+02  0.56238308980E+02  0.16940364850E+03  0.17904442190E+03  0.41800000000E+01 0.  1.
        -11    1    1    2    0    0 -0.44903273256E+02  0.35946180046E+02  0.22885543648E+03  0.23597297010E+03  0.00000000000E+00 0.  1.
         11    1    1    2    0    0 -0.29392289277E+02 -0.30699163654E+02  0.54905813888E+02  0.69433376100E+02  0.00000000000E+00 0. -1.
</event>
<event>
 7    1  0.2820496E-009  0.1085262E+03  0.7561462E-02  0.1263324E+00
          2   -1    0    0  501    0  0.00000000000E+00  0.00000000000E+00  0.20903410181E+03  0.20903410181E+03  0.00000000000E+00 0.  1.
         -2   -1    0    0    0  501 -0.00000000000E+00 -0.00000000000E+00 -0.83736639867E+02  0.83736639867E+02  0.00000000000E+00 0. -1.
         25    2    1    2    0    0 -0.32076651693E+02  0.59591011926E+02  0.32477556724E+02  0.14588362049E+03  0.12508892338E+03 0.  0.
          5    1    3    3  502    0  0.35874559802E+02 -0.27458793122E+01 -0.18245896515E+02  0.40557478149E+02  0.41800000000E+01 0. -1.
         -5    1    3    3    0  502 -0.67951211494E+02  0.62336891238E+02  0.50723453239E+02  0.10532614235E+03  0.41800000000E+01 0. -1.
        -11    1    1    2    0    0  0.31654142783E+02 -0.28517615608E+01 -0.65577339315E+01  0.32451828510E+02  0.00000000000E+00 0. -1.
         11    1    1    2    0    0  0.42250890985E+00 -0.56739250365E+02  0.99377639147E+02  0.11443529267E+03  0.00000000000E+00 0.  1.
</event>
<event>
 7    1  0.2820496E-009  0.1510239E+03  0.7561462E-02  0.1199220E+00
          2   -1    0    0  501    0  0.00000000000E+00  0.00000000000E+00  0.79643093372E+02  0.79643093372E+02  0.00000000000E+00 0. -1.
         -2   -1    0    0    0  501 -0.00000000000E+00 -0.00000000000E+00 -0.43070447703E+03  0.43070447703E+03  0.00000000000E+00 0.  1.
         25    2    1    2    0    0 -0.12849758952E+03 -0.32526406712E+02 -0.83618862960E+02  0.20052347914E+03  0.12509178149E+03 0.  0.
          5    1    3    3  502    0 -0.92474600836E+02  0.12447193398E+02 -0.10351058057E+03  0.13942165224E+03  0.41800000000E+01 0.  1.
         -5    1    3    3    0  502 -0.36022988689E+02 -0.44973600109E+02  0.19891717610E+02  0.61101826898E+02  0.41800000000E+01 0.  1.
        -11    1    1    2    0    0  0.13183166625E+03  0.43955915988E+02 -0.21466332216E+03  0.25571869830E+03  0.00000000000E+00 0. -1.
         11    1    1    2    0    0 -0.33340767284E+01 -0.11429509276E+02 -0.52779198532E+02  0.54105392962E+02  0.00000000000E+00 0.  1.
</event>
<event>
 7    1  0.2820496E-009  0.2004060E+03  0.7561462E-02  0.1149397E+00
          2   -1    0    0  501    0  0.00000000000E+00  0.00000000000E+00  0.44859496594E+03  0.44859496594E+03  0.00000000000E+00 0. -1.
         -2   -1    0    0    0  501 -0.00000000000E+00 -0.00000000000E+00 -0.36608566785E+03  0.36608566785E+03  0.00000000000E+00 0.  1.
         25    2    1    2    0    0  0.12377341517E+03  0.12294182206E+03 -0.31027392963E+03  0.37729523809E+03  0.12508890984E+03 0.  0.
          5    1    3    3  502    0  0.14868308127E+03  0.11541083249E+03 -0.27464929342E+03  0.33298051848E+03  0.41800000000E+01 0.  1.
         -5    1    3    3    0  502 -0.24909666099E+02  0.75309895639E+01 -0.35624636212E+02  0.44314719611E+02  0.41800000000E+01 0.  1.
        -11    1    1    2    0    0 -0.13911878920E+02 -0.55639248944E+02  0.74529457845E+02  0.94042046367E+02  0.00000000000E+00 0.  1.
         11    1    1    2    0    0 -0.10986153625E+03 -0.67302573113E+02  0.31825376987E+03  0.34334334934E+03  0.00000000000E+00 0. -1.
</event>
<event>
 7    1  0.2820496E-009  0.8086364E+02  0.7561462E-02  0.1326618E+00
          1   -1    0    0  501    0  0.00000000000E+00  0.00000000000E+00  0.72701281145E+02  0.72701281145E+02  0.00000000000E+00 0. -1.
         -1   -1    0    0    0  501 -0.00000000000E+00 -0.00000000000E+00 -0.23376202854E+03  0.23376202854E+03  0.00000000000E+00 0.  1.
         25    2    1    2    0    0 -0.21572908097E+02  0.27281913680E+02 -0.14992068145E+02  0.13070375605E+03  0.12509602936E+03 0.  0.
          5    1    3    3  502    0  0.36139546825E+02  0.32251388712E+02  0.30096187407E+02  0.57179295335E+02  0.41800000000E+01 0. -1.
         -5    1    3    3    0  502 -0.57712454921E+02 -0.49694750315E+01 -0.45088255552E+02  0.73524460718E+02  0.41800000000E+01 0. -1.
        -11    1    1    2    0    0  0.30043266646E+02 -0.33142404268E+02 -0.15549238582E+03  0.16179894586E+03  0.00000000000E+00 0.  1.
         11    1    1    2    0    0 -0.84703585487E+01  0.58604905872E+01  0.94237065739E+01  0.13960607775E+02  0.00000000000E+00 0. -1.
</event>
<event>
 7    1  0.2820496E-009  0.1021411E+03  0.7561462E-02  0.1275857E+00
         -1   -1    0    0    0  501 -0.00000000000E+00  0.00000000000E+00  0.11564173439E+03  0.11564173439E+03  0.00000000000E+00 0.  1.
          1   -1    0    0  501    0  0.00000000000E+00 -0.00000000000E+00 -0.12069919621E+03  0.12069919621E+03  0.00000000000E+00 0. -1.
         25    2    1    2    0    0 -0.10322252019E+02  0.45650980316E+02 -0.25584923982E+01  0.13360323824E+03  0.12511082484E+03 0.  0.
          5    1    3    3  502    0 -0.26793342935E+02  0.75014800995E+02 -0.34591771263E+02  0.86943468030E+02  0.41800000000E+01 0.  1.
         -5    1    3    3    0  502  0.16471090916E+02 -0.29363820679E+02  0.32033278865E+02  0.46659770206E+02  0.41800000000E+01 0.  1.
        -11    1    1    2    0    0  0.41474791899E+02 -0.89125322077E+01  0.22979780793E+02  0.48245848720E+02  0.00000000000E+00 0.  1.
         11    1    1    2    0    0 -0.31152539880E+02 -0.36738448108E+02 -0.25478750217E+02  0.54491843637E+02  0.00000000000E+00 0. -1.
</event>
<event>
 7    1  0.2820496E-009  0.1490441E+03  0.7561462E-02  0.1201653E+00
         -2   -1    0    0    0  501 -0.00000000000E+00  0.00000000000E+00  0.45533839132E+02  0.45533839132E+02  0.00000000000E+00 0.  1.
          2   -1    0    0  501    0  0.00000000000E+00 -0.00000000000E+00 -0.64199327460E+03  0.64199327460E+03  0.00000000000E+00 0. -1.
         25    2    1    2    0    0 -0.10974804649E+03  0.31638505331E+01 -0.47062520711E+03  0.49918945662E+03  0.12508950547E+03 0.  0.
          5    1    3    3  502    0 -0.13595747939E+03 -0.99961201393E+00 -0.34765362923E+03  0.37331749724E+03  0.41800000000E+01 0. -1.
         -5    1    3    3    0  502  0.26209432904E+02  0.41634625471E+01 -0.12297157788E+03  0.12587195938E+03  0.41800000000E+01 0. -1.
        -11    1    1    2    0    0  0.28963410307E+02  0.35351399146E+02 -0.20418494343E+02  0.50055124307E+02  0.00000000000E+00 0.  1.
         11    1    1    2    0    0  0.80784636178E+02 -0.38515249679E+02 -0.10541573402E+03  0.13828253280E+03  0.00000000000E+00 0. -1.
</event>
<event>
 7    1  0.2820496E-009  0.3910458E+03  0.7561462E-02  0.1046925E+00
         -2   -1    0    0    0  501 -0.00000000000E+00  0.00000000000E+00  0.21885764455E+03  0.21885764455E+03  0.00000000000E+00 0.  1.
          2   -1    0    0  501    0  0.00000000000E+00 -0.00000000000E+00 -0.12856373024E+04  0.12856373024E+04  0.00000000000E+00 0. -1.
         25    2    1    2    0    0 -0.25248039751E+03 -0.29261785342E+03 -0.10294827614E+04  0.11067311126E+04  0.12508972842E+03 0.  0.
          5    1    3    3  502    0 -0.92489488559E+02 -0.88484274467E+02 -0.19870693488E+03  0.23640154545E+03  0.41800000000E+01 0.  1.
         -5    1    3    3    0  502 -0.15999090895E+03 -0.20413357895E+03 -0.83077582655E+03  0.87032956710E+03  0.41800000000E+01 0.  1.
        -11    1    1    2    0    0  0.12301365807E+03  0.20232919452E+03 -0.60927430773E+01  0.23686828522E+03  0.00000000000E+00 0. -1.
         11    1    1    2    0    0  0.12946673944E+03  0.90288658901E+02 -0.31204153309E+02  0.16089554914E+03  0.00000000000E+00 0.  1.
</event>
<event>
 7    1  0.2820496E-009  0.9670193E+02  0.7561462E-02  0.1287388E+00
         -4   -1    0    0    0  501 -0.00000000000E+00  0.00000000000E+00  0.21781271481E+03  0.21781271481E+03  0.00000000000E+00 0.  1.
          4   -1    0    0  501    0  0.00000000000E+00 -0.00000000000E+00 -0.63297950138E+02  0.63297950138E+02  0.00000000000E+00 0. -1.
         25    2    1    2    0    0  0.40200971021E+02 -0.73454910087E+01  0.71237941416E+02  0.14963913982E+03  0.12508778342E+03 0.  0.
          5    1    3    3  502    0 -0.14947255616E+02  0.40688550639E+02 -0.50924660667E+01  0.43845002157E+02  0.41800000000E+01 0. -1.
         -5    1    3    3    0  502  0.55148226638E+02 -0.48034041647E+02  0.76330407482E+02  0.10579413767E+03  0.41800000000E+01 0. -1.
        -11    1    1    2    0    0 -0.57917521977E+02  0.97189578139E+01  0.93845320834E+02  0.11070610523E+03  0.00000000000E+00 0.  1.
         11    1    1    2    0    0  0.17716550956E+02 -0.23734668051E+01 -0.10568497576E+02  0.20765419896E+02  0.00000000000E+00 0. -1.
</event>
<event>
 7    1  0.2820496E-009  0.1431553E+03  0.7561462E-02  0.1209145E+00
         -1   -1    0    0    0  501 -0.00000000000E+00  0.00000000000E+00  0.66329096980E+02  0.66329096980E+02  0.00000000000E+00 0.  1.
          1   -1    0    0  501    0  0.00000000000E+00 -0.00000000000E+00 -0.36242185210E+03  0.36242185210E+03  0.00000000000E+00 0. -1.
         25    2    1    2    0    0  0.95947383545E+02 -0.34438015076E+02 -0.99601065069E+02  0.18962899330E+03  0.12508759190E+03 0.  0.
          5    1    3    3  502    0  0.10037701038E+03 -0.64932595379E+02 -0.10363672539E+03  0.15827137898E+03  0.41800000000E+01 0.  1.
         -5    1    3    3    0  502 -0.44296268354E+01  0.30494580303E+02  0.40356603175E+01  0.31357614322E+02  0.41800000000E+01 0.  1.
        -11    1    1    2    0    0 -0.95857151841E+02 -0.51583982017E+01 -0.12783928366E+03  0.15986896221E+03  0.00000000000E+00 0. -1.
         11    1    1    2    0    0 -0.90231703549E-01  0.39596413277E+02 -0.68652406389E+02  0.79252993566E+02  0.00000000000E+00 0.  1.
</event>
<event>
 7    1  0.2820496E-009  0.7817804E+02  0.7561462E-02  0.1334303E+00
          1   -1    0    0  501    0  0.00000000000E+00  0.00000000000E+00  0.48611733408E+03  0.48611733408E+03  0.00000000000E+00 0. -1.
         -1   -1    0    0    0  501 -0.00000000000E+00 -0.00000000000E+00 -0.32597483748E+02  0.32597483748E+02  0.00000000000E+00 0.  1.
         25    2    1    2    0    0 -0.46011072002E+02 -0.32638120570E+01  0.34081054263E+03  0.36595943700E+03  0.12508721895E+03 0.  0.
          5    1    3    3  502    0 -0.67391637312E+01 -0.10467687693E+02 -0.76472198003E+01  0.15196749130E+02  0.41800000000E+01 0.  1.
         -5    1    3    3    0  502 -0.39271908271E+02  0.72038756359E+01  0.34845776243E+03  0.35076268787E+03  0.41800000000E+01 0.  1.
        -11    1    1    2    0    0  0.73365431899E+02  0.12047943569E+02  0.79696524334E+02  0.10899163056E+03  0.00000000000E+00 0. -1.
         11    1    1    2    0    0 -0.27354359896E+02 -0.87841315122E+01  0.33012783372E+02  0.43763750271E+02  0.00000000000E+00 0.  1.
</event>
<event>
 7    1  0.6384188E-009  0.1903622E+03  0.7561462E-02  0.1158135E+00
          2   -1    0    0  501    0  0.00000000000E+00  0.00000000000E+00  0.67860378715E+03  0.67860378715E+03  0.00000000000E+00 0.  1.
         -2   -1    0    0    0  501 -0.00000000000E+00 -0.00000000000E+00 -0.78313262611E+02  0.78313262611E+02  0.00000000000E+00 0. -1.
         25    2    1    2    0    0 -0.11919778316E+03 -0.12456291722E+03  0.13475644351E+03  0.25205422985E+03  0.12509198159E+03 0.  0.
          5    1    3    3  502    0 -0.12623752901E+03 -0.93920878848E+02  0.55853800739E+02  0.16701546237E+03  0.41800000000E+01 0. -1.
         -5    1    3    3    0  502  0.70397458518E+01 -0.30642038374E+02  0.78902642770E+02  0.85038767473E+02  0.41800000000E+01 0. -1.
        -11    1    1    2    0    0  0.31357332238E+02  0.93204938874E+02  0.28789022401E+03  0.30422232659E+03  0.00000000000E+00 0.  1.
         11    1    1    2    0    0  0.87840450922E+02  0.31357978348E+02  0.17764385702E+03  0.20064049332E+03  0.00000000000E+00 0. -1.
</event>
<event>
 7    1  0.2820496E-009  0.1220750E+03  0.7561462E-02  0.1239713E+00
          2   -1    0    0  501    0  0.00000000000E+00  0.00000000000E+00  0.52571357039E+03  0.52571357039E+03  0.00000000000E+00 0.  1.
         -2   -1    0    0    0  501 -0.00000000000E+00 -0.00000000000E+00 -0.44645998767E+02  0.44645998767E+02  0.00000000000E+00 0. -1.
         25    2    1    2    0    0 -0.78477297961E+02 -0.32370225040E+02  0.37693832309E+03  0.40612795034E+03  0.12510353661E+03 0.  0.
          5    1    3    3  502    0 -0.14109690969E+02  0.43186578462E+02  0.70385521541E+02  0.83879425254E+02  0.41800000000E+01 0.  1.
         -5    1    3    3    0  502 -0.64367606993E+02 -0.75556803502E+02  0.30655280155E+03  0.32224852509E+03  0.41800000000E+01 0.  1.
        -11    1    1    2    0    0  0.69111168035E+02  0.45724870749E+02  0.29690083850E+02  0.88026237175E+02  0.00000000000E+00 0. -1.
         11    1    1    2    0    0  0.93661299260E+01 -0.13354645709E+02  0.74439164686E+02  0.76205381640E+02  0.00000000000E+00 0.  1.
</event>
<event>
 7    1  0.3006630E-009  0.9440533E+02  0.7561462E-02  0.1292521E+00
          1   -1    0    0  501    0  0.00000000000E+00  0.00000000000E+00  0.12299122639E+03  0.12299122639E+03  0.00000000000E+00 0. -1.
         -1   -1    0    0    0  501 -0.00000000000E+00 -0.00000000000E+00 -0.10142287675E+03  0.10142287675E+03  0.00000000000E+00 0.  1.
         25    2    1    2    0    0  0.11621199319E+02  0.11544787767E+02  0.34126979194E+02  0.13069391758E+03  0.12509162636E+03 0.  0.
          5    1    3    3  502    0  0.51436934709E+02  0.28494271033E+02 -0.19101119917E+02  0.61967789343E+02  0.41800000000E+01 0. -1.
         -5    1    3    3    0  502 -0.39815735390E+02 -0.16949483267E+02  0.53228099111E+02  0.68726128238E+02  0.41800000000E+01 0. -1.
        -11    1    1    2    0    0 -0.36995267982E+02  0.22970826320E+02 -0.23532084017E+02  0.49498158482E+02  0.00000000000E+00 0.  1.
         11    1    1    2    0    0  0.25374068663E+02 -0.34515614087E+02  0.10973454460E+02  0.44222027080E+02  0.00000000000E+00 0. -1.
</event>
<event>
 7    1  0.2820496E-009  0.1205962E+03  0.7561462E-02  0.1242117E+00
         -2   -1    0    0    0  501 -0.00000000000E+00  0.00000000000E+00  0.99861591866E+02  0.99861591866E+02  0.00000000000E+00 0.  1.
          2   -1    0    0  501    0  0.00000000000E+00 -0.00000000000E+00 -0.19420581958E+03  0.19420581958E+03  0.00000000000E+00 0. -1.
         25    2    1    2    0    0 -0.87579172169E+02 -0.18414341254E+02 -0.51834297665E+02  0.16231005094E+03  0.12509419995E+03 0.  0.
          5    1    3    3  502    0 -0.66076607015E+02 -0.53578938848E+02 -0.76168730559E+02  0.11426271744E+03  0.41800000000E+01 0.  1.
         -5    1    3    3    0  502 -0.21502565154E+02  0.35164597594E+02  0.24334432894E+02  0.48047333500E+02  0.41800000000E+01 0.  1.
        -11    1    1    2    0    0 -0.11114802248E+01  0.25586762459E+02 -0.33721069252E+02  0.42344165040E+02  0.00000000000E+00 0. -1.
         11    1    1    2    0    0  0.88690652394E+02 -0.71724212055E+01 -0.87888607934E+01  0.89413195458E+02  0.00000000000E+00 0.  1.
</event>
<event>
 7    1  0.2820496E-009  0.1124713E+03  0.7561462E-02  0.1256061E+00
         -1   -1    0    0    0  501 -0.00000000000E+00  0.00000000000E+00  0.32025728510E+02  0.32025728510E+02  0.00000000000E+00 0.  1.
          1   -1    0    0  501    0  0.00000000000E+00 -0.00000000000E+00 -0.52722595778E+03  0.52722595778E+03  0.00000000000E+00 0. -1.
         25    2    1    2    0    0  0.54844708001E+02  0.22429832183E+02 -0.18787467014E+03  0.23335803077E+03  0.12509212397E+03 0.  0.
          5    1    3    3  502    0  0.74159818247E+02  0.51388444566E+02 -0.82587541291E+02  0.12238719399E+03  0.41800000000E+01 0.  1.
         -5    1    3    3    0  502 -0.19315110246E+02 -0.28958612383E+02 -0.10528712885E+03  0.11097083678E+03  0.41800000000E+01 0.  1.
        -11    1    1    2    0    0  0.24012799211E+01  0.25064461986E+02 -0.32118414401E+02  0.40811590799E+02  0.00000000000E+00 0.  1.
         11    1    1    2    0    0 -0.57245987922E+02 -0.47494294169E+02 -0.27520714473E+03  0.28508206472E+03  0.00000000000E+00 0. -1.
</event>
<event>
 7    1  0.2820496E-009  0.1390960E+03  0.7561462E-02  0.1214551E+00
         -1   -1    0    0    0  501 -0.00000000000E+00  0.00000000000E+00  0.12350659317E+03  0.12350659317E+03  0.00000000000E+00 0.  1.
          1   -1    0    0  501    0  0.00000000000E+00 -0.00000000000E+00 -0.46456596312E+03  0.46456596312E+03  0.00000000000E+00 0. -1.
         25    2    1    2    0    0 -0.41938295386E+02  0.89841843292E+02  0.55915987849E+02  0.16912523251E+03  0.12508544739E+03 0.  0.
          5    1    3    3  502    0 -0.52978864670E+01  0.10882516423E+03  0.64619956397E+02  0.12674460594E+03  0.41800000000E+01 0.  1.
         -5    1    3    3    0  502 -0.36640408919E+02 -0.18983320941E+02 -0.87039685478E+01  0.42380626566E+02  0.41800000000E+01 0.  1.
        -11    1    1    2    0    0  0.36897918886E+02  0.79222303699E+00 -0.18007696032E+03  0.18382000890E+03  0.00000000000E+00 0. -1.
         11    1    1    2    0    0  0.50403764997E+01 -0.90634066329E+02 -0.21689839748E+03  0.23512731488E+03  0.00000000000E+00 0.  1.
</event>
<event>
 7    1  0.2820496E-009  0.1051968E+03  0.7561462E-02  0.1269732E+00
         -2   -1    0    0    0  501 -0.00000000000E+00  0.00000000000E+00  0.57373141170E+02  0.57373141170E+02  0.00000000000E+00 0.  1.
          2   -1    0    0  501    0  0.00000000000E+00 -0.00000000000E+00 -0.36232939163E+03  0.36232939163E+03  0.00000000000E+00 0. -1.
         25    2    1    2    0    0  0.68356157792E+01 -0.26346886111E+02 -0.34205764103E+02  0.13250921474E+03  0.12509106140E+03 0.  0.
          5    1    3    3  502    0  0.11602735644E+02  0.48882212666E+02 -0.25550259963E+02  0.56518867414E+02  0.41800000000E+01 0. -1.
         -5    1    3    3    0  502 -0.47671198652E+01 -0.75229098778E+02 -0.86555041397E+01  0.75990347325E+02  0.41800000000E+01 0. -1.
        -11    1    1    2    0    0 -0.34489208874E+02  0.40683180432E+02 -0.97215872134E+02  0.11088531234E+03  0.00000000000E+00 0.  1.
         11    1    1    2    0    0  0.27653593095E+02 -0.14336294321E+02 -0.17353461422E+03  0.17630800572E+03  0.00000000000E+00 0. -1.
</event>
<event>
 7    1  0.2820496E-009  0.7958060E+02  0.7561462E-02  0.1330246E+00
          3   -1    0    0  501    0  0.00000000000E+00  0.00000000000E+00  0.52375701185E+03  0.52375701185E+03  0.00000000000E+00 0. -1.
         -3   -1    0    0    0  501 -0.00000000000E+00 -0.00000000000E+00 -0.25381398819E+02  0.25381398819E+02  0.00000000000E+00 0.  1.
         25    2    1    2    0    0 -0.27267516120E+02  0.17899262380E+02  0.34681246358E+03  0.37012159581E+03  0.12508880749E+03 0.  0.
          5    1    3    3  502    0  0.30569877560E+01 -0.18487172479E+02  0.30839284922E+03  0.30898987454E+03  0.41800000000E+01 0.  1.
         -5    1    3    3    0  502 -0.30324503876E+02  0.36386434860E+02  0.38419614359E+02  0.61131721263E+02  0.41800000000E+01 0.  1.
        -11    1    1    2    0    0  0.58376019065E+02 -0.45266555702E+01  0.73832112636E+02  0.94230733144E+02  0.00000000000E+00 0.  1.
         11    1    1    2    0    0 -0.31108502945E+02 -0.13372606810E+02  0.77731036813E+02  0.84786081714E+02  0.00000000000E+00 0. -1.
</event>
<event>
 7    1  0.2820496E-009  0.1011244E+03  0.7561462E-02  0.1277949E+00
          1   -1    0    0  501    0  0.00000000000E+00  0.00000000000E+00  0.64212685221E+03  0.64212685221E+03  0.00000000000E+00 0. -1.
         -1   -1    0    0    0  501 -0.00000000000E+00 -0.00000000000E+00 -0.20584599224E+02  0.20584599224E+02  0.00000000000E+00 0.  1.
         25    2    1    2    0    0 -0.22356437281E+02 -0.18680250991E+02  0.46673994793E+03  0.48408156806E+03  0.12506007947E+03 0.  0.
          5    1    3    3  502    0 -0.54091882016E+02  0.27591598839E+02  0.14187209539E+03  0.15437743319E+03  0.41800000000E+01 0. -1.
         -5    1    3    3    0  502  0.31735444734E+02 -0.46271849830E+02  0.32486785254E+03  0.32970413487E+03  0.41800000000E+01 0. -1.
        -11    1    1    2    0    0  0.57927418819E+01  0.49655455245E+02  0.63592644846E+02  0.80890324344E+02  0.00000000000E+00 0.  1.
         11    1    1    2    0    0  0.16563695399E+02 -0.30975204254E+02  0.91209660215E+02  0.97739559035E+02  0.00000000000E+00 0. -1.
</event>
<event>
 7    1  0.2820496E-009  0.1602525E+03  0.7561462E-02  0.1188412E+00
          2   -1    0    0  501    0  0.00000000000E+00  0.00000000000E+00  0.25045980197E+03  0.25045980197E+03  0.00000000000E+00 0. -1.
         -2   -1    0    0    0  501 -0.00000000000E+00 -0.00000000000E+00 -0.13141184658E+03  0.13141184658E+03  0.00000000000E+00 0.  1.
         25    2    1    2    0    0 -0.10277574857E+03 -0.86066139094E+02  0.12223678271E+03  0.22036122183E+03  0.12508797802E+03 0.  0.
          5    1    3    3  502    0 -0.94112492354E+02 -0.23663554011E+02  0.12360968189E+03  0.15720671379E+03  0.41800000000E+01 0.  1.
         -5    1    3    3    0  502 -0.86632562193E+01 -0.62402585084E+02 -0.13728991717E+01  0.63154508038E+02  0.41800000000E+01 0.  1.
        -11    1    1    2    0    0  0.37728545943E+02  0.87375484390E+02  0.79454307628E+01  0.95504179602E+02  0.00000000000E+00 0.  1.
         11    1    1    2    0    0  0.65047202630E+02 -0.13093452964E+01 -0.11134258097E+02  0.66006247117E+02  0.00000000000E+00 0. -1.
</event>
<event>
 7    1  0.2820496E-009  0.1773336E+03  0.7561462E-02  0.1170409E+00
         -1   -1    0    0    0  501 -0.00000000000E+00  0.00000000000E+00  0.42734231306E+02  0.42734231306E+02  0.00000000000E+00 0.  1.
          1   -1    0    0  501    0  0.00000000000E+00 -0.00000000000E+00 -0.91593644042E+03  0.91593644042E+03  0.00000000000E+00 0. -1.
         25    2    1    2    0    0  0.16112644613E+03 -0.24515711314E+02 -0.38833330196E+03  0.43933199888E+03  0.12508836910E+03 0.  0.
          5    1    3    3  502    0  0.51978931247E+02  0.11906513064E+02 -0.26604499234E+03  0.27136872461E+03  0.41800000000E+01 0.  1.
         -5    1    3    3    0  502  0.10914751488E+03 -0.36422224379E+02 -0.12228830962E+03  0.16796327427E+03  0.41800000000E+01 0.  1.
        -11    1    1    2    0    0 -0.12492532623E+03  0.57078180638E+02 -0.36055389391E+03  0.38582815637E+03  0.00000000000E+00 0.  1.
         11    1    1    2    0    0 -0.36201119904E+02 -0.32562469324E+02 -0.12431501325E+03  0.13351051648E+03  0.00000000000E+00 0. -1.
</event>
<event>
 7    1  0.2820496E-009  0.8626234E+02  0.7561462E-02  0.1312164E+00
          3   -1    0    0  501    0  0.00000000000E+00  0.00000000000E+00  0.10632544836E+03  0.10632544836E+03  0.00000000000E+00 0. -1.
         -3   -1    0    0    0  501 -0.00000000000E+00 -0.00000000000E+00 -0.15372645369E+03  0.15372645369E+03  0.00000000000E+00 0.  1.
         25    2    1    2    0    0  0.42610850360E+02 -0.34485531338E+02 -0.67424373095E+02  0.15230936456E+03  0.12508860862E+03 0.  0.
          5    1    3    3  502    0  0.45983691069E+01 -0.35474973289E+02 -0.97312660254E+02  0.10376340865E+03  0.41800000000E+01 0. -1.
         -5    1    3    3    0  502  0.38012481253E+02  0.98944195112E+00  0.29888287159E+02  0.48545955915E+02  0.41800000000E+01 0. -1.
        -11    1    1    2    0    0 -0.65342364193E+02  0.37478055242E+02  0.32038066859E+02  0.81857601425E+02  0.00000000000E+00 0. -1.
         11    1    1    2    0    0  0.22731513833E+02 -0.29925239048E+01 -0.12014699100E+02  0.25884936061E+02  0.00000000000E+00 0.  1.
</event>
<event>
 7    1  0.2820496E-009  0.1187177E+03  0.7561462E-02  0.1245228E+00
         -3   -1    0    0    0  501 -0.00000000000E+00  0.00000000000E+00  0.22216389313E+02  0.22216389313E+02  0.00000000000E+00 0.  1.
          3   -1    0    0  501    0  0.00000000000E+00 -0.00000000000E+00 -0.78554392780E+03  0.78554392780E+03  0.00000000000E+00 0. -1.
         25    2    1    2    0    0 -0.27322888186E+00 -0.68964210269E+02 -0.32652838092E+03  0.35640488639E+03  0.12509005774E+03 0.  0.
          5    1    3    3  502    0  0.47605710851E+02 -0.57695453915E+02 -0.27510064151E+03  0.28511910576E+03  0.41800000000E+01 0. -1.
         -5    1    3    3    0  502 -0.47878939733E+02 -0.11268756353E+02 -0.51427739407E+02  0.71285780631E+02  0.41800000000E+01 0. -1.
        -11    1    1    2    0    0 -0.58272333157E+01  0.90542574219E+02 -0.33127186371E+03  0.34347192328E+03  0.00000000000E+00 0.  1.
         11    1    1    2    0    0  0.61004621976E+01 -0.21578363951E+02 -0.10552729385E+03  0.10788350744E+03  0.00000000000E+00 0. -1.
</event>
<event>
 7    1  0.2820496E-009  0.1209691E+03  0.7561462E-02  0.1241507E+00
          1   -1    0    0  501    0  0.00000000000E+00  0.00000000000E+00  0.15991704144E+03  0.15991704144E+03  0.00000000000E+00 0. -1.
         -1   -1    0    0    0  501 -0.00000000000E+00 -0.00000000000E+00 -0.13250458500E+03  0.13250458500E+03  0.00000000000E+00 0.  1.
         25    2    1    2    0    0 -0.34517369679E+02 -0.93824134106E+02  0.29578648731E+02  0.16284581325E+03  0.12509774371E+03 0.  0.
          5    1    3    3  502    0  0.78587601129E+01 -0.51842136916E+02 -0.43615251943E+02  0.68331031549E+02  0.41800000000E+01 0.  1.
         -5    1    3    3    0  502 -0.42376129792E+02 -0.41981997190E+02  0.73193900674E+02  0.94514781702E+02  0.41800000000E+01 0.  1.
        -11    1    1    2    0    0 -0.18634298397E+02  0.67886641708E+02 -0.12019658807E+00  0.70397781544E+02  0.00000000000E+00 0. -1.
         11    1    1    2    0    0  0.53151668076E+02  0.25937492398E+02 -0.20459957056E+01  0.59178031647E+02  0.00000000000E+00 0.  1.
</event>
<event>
 7    1  0.2820496E-009  0.9516753E+02  0.7561462E-02  0.1290799E+00
         -1   -1    0    0    0  501 -0.00000000000E+00  0.00000000000E+00  0.69318039009E+02  0.69318039009E+02  0.00000000000E+00 0.  1.
          1   -1    0    0  501    0  0.00000000000E+00 -0.00000000000E+00 -0.21340654332E+03  0.21340654332E+03  0.00000000000E+00 0. -1.
         25    2    1    2    0    0 -0.52446766352E+02  0.11502389218E+02 -0.83248392245E+02  0.15957590693E+03  0.12510478409E+03 0.  0.
          5    1    3    3  502    0 -0.25670355226E+02  0.65602479646E+02 -0.23090475943E+02  0.74251565320E+02  0.41800000000E+01 0.  1.
         -5    1    3    3    0  502 -0.26776411126E+02 -0.54100090428E+02 -0.60157916302E+02  0.85324341608E+02  0.41800000000E+01 0.  1.
        -11    1    1    2    0    0  0.37728942317E+02 -0.19538361272E+02  0.15319126047E+02  0.45165210864E+02  0.00000000000E+00 0.  1.
         11    1    1    2    0    0  0.14717824035E+02  0.80359720540E+01 -0.76159238112E+02  0.77983464536E+02  0.00000000000E+00 0. -1.
</event>
<event>
 6    1  0.2820496E-009  0.1574375E+03  0.7561462E-02  0.1191621E+00
         -2   -1    0    0    0  501 -0.00000000000E+00  0.00000000000E+00  0.59462252388E+02  0.59462252388E+02  0.00000000000E+00 0.  1.
          2   -1    0    0  501    0  0.00000000000E+00 -0.00000000000E+00 -0.46974511836E+03  0.46974511836E+03  0.00000000000E+00 0. -1.
          5    1    1    2  502    0  0.34253431127E+02 -0.12611474132E+02 -0.28538891359E+02  0.46521903914E+02  0.41800000000E+01 0.  1.
         -5    1    1    2    0  502 -0.11172373482E+03 -0.74144375002E+02 -0.10649982215E+03  0.17128708587E+03  0.41800000000E+01 0.  1.
        -11    1    1    2    0    0  0.79655929147E+02  0.26883970745E+02 -0.13712332155E+03  0.16084346503E+03  0.00000000000E+00 0. -1.
         11    1    1    2    0    0 -0.21856254570E+01  0.59871878389E+02 -0.13812083092E+03  0.15055491594E+03  0.00000000000E+00 0.  1.
</event>
<event>
 7    1  0.2820496E-009  0.1734972E+03  0.7561462E-02  0.1174249E+00
          2   -1    0    0  501    0  0.00000000000E+00  0.00000000000E+00  0.30064511079E+03  0.30064511079E+03  0.00000000000E+00 0. -1.
         -2   -1    0    0    0  501 -0.00000000000E+00 -0.00000000000E+00 -0.12128045610E+03  0.12128045610E+03  0.00000000000E+00 0.  1.
         25    2    1    2    0    0  0.14233274422E+03 -0.13761893590E+02  0.16469875751E+03  0.25143858625E+03  0.12509069564E+03 0.  0.
          5    1    3    3  502    0 -0.81954534083E+01 -0.28425941447E+02  0.61268933921E+02  0.68165638467E+02  0.41800000000E+01 0.  1.
         -5    1    3    3    0  502  0.15052819763E+03  0.14664047857E+02  0.10342982359E+03  0.18327294778E+03  0.41800000000E+01 0.  1.
        -11    1    1    2    0    0  0.66375609105E+01 -0.12875086655E+02 -0.93776385765E+01  0.17255873681E+02  0.00000000000E+00 0.  1.
         11    1    1    2    0    0 -0.14897030513E+03  0.26636980245E+02  0.24043535755E+02  0.15323110696E+03  0.00000000000E+00 0. -1.
</event>
<event>
 7    1  0.2820496E-009  0.1501093E+03  0.7561462E-02  0.1200339E+00
         -1   -1    0    0    0  501 -0.00000000000E+00  0.00000000000E+00  0.37831430998E+03  0.37831430998E+03  0.00000000000E+00 0.  1.
          1   -1    0    0  501    0  0.00000000000E+00 -0.00000000000E+00 -0.81510354717E+02  0.81510354717E+02  0.00000000000E+00 0. -1.
         25    2    1    2    0    0  0.25768796738E+02 -0.13499165717E+03  0.15220218539E+03  0.24020907645E+03  0.12509243295E+03 0.  0.
          5    1    3    3  502    0  0.58112423155E+00 -0.79189102637E+01  0.10012427335E+03  0.10052556570E+03  0.41800000000E+01 0. -1.
         -5    1    3    3    0  502  0.25187672507E+02 -0.12707274691E+03  0.52077912033E+02  0.13968351075E+03  0.41800000000E+01 0. -1.
        -11    1    1    2    0    0 -0.16223372171E+01  0.13736094196E+03  0.13743492394E+03  0.19431679977E+03  0.00000000000E+00 0.  1.
         11    1    1    2    0    0 -0.24146459521E+02 -0.23692847950E+01  0.71668459419E+01  0.25298788481E+02  0.00000000000E+00 0. -1.
</event>
<event>
 7    1  0.2820496E-009  0.9654715E+02  0.7561462E-02  0.1287729E+00
         -2   -1    0    0    0  501 -0.00000000000E+00  0.00000000000E+00  0.56598029915E+02  0.56598029915E+02  0.00000000000E+00 0. -1.
          2   -1    0    0  501    0  0.00000000000E+00 -0.00000000000E+00 -0.25720359734E+03  0.25720359734E+03  0.00000000000E+00 0.  1.
         25    2    1    2    0    0 -0.48971525711E+02  0.12431641910E+02 -0.12920150590E+03  0.18679872285E+03  0.12509187695E+03 0.  0.
          5    1    3    3  502    0  0.81252786217E+01 -0.26896366083E+02 -0.11158366563E+03  0.11514261373E+03  0.41800000000E+01 0. -1.
         -5    1    3    3    0  502 -0.57096804333E+02  0.39328007993E+02 -0.17617840267E+02  0.71656109114E+02  0.41800000000E+01 0. -1.
        -11    1    1    2    0    0  0.44219927066E+02 -0.44546160429E+02 -0.70684577901E+02  0.94530798746E+02  0.00000000000E+00 0. -1.
         11    1    1    2    0    0  0.47515986453E+01  0.32114518519E+02 -0.71948362386E+00  0.32472105661E+02  0.00000000000E+00 0.  1.
</event>
<event>
 7    1  0.2820496E-009  0.1067129E+03  0.7561462E-02  0.1266781E+00
         -2   -1    0    0    0  501 -0.00000000000E+00  0.00000000000E+00  0.97246283974E+02  0.97246283974E+02  0.00000000000E+00 0.  1.
          2   -1    0    0  501    0  0.00000000000E+00 -0.00000000000E+00 -0.15444517999E+03  0.15444517999E+03  0.00000000000E+00 0. -1.
         25    2    1    2    0    0 -0.22625897681E+02  0.40782835057E+02 -0.23587925429E+01  0.13352151963E+03  0.12508901399E+03 0.  0.
          5    1    3    3  502    0 -0.18634883977E+00  0.81009292529E+02 -0.20780357868E+02  0.83736705662E+02  0.41800000000E+01 0.  1.
         -5    1    3    3    0  502 -0.22439548841E+02 -0.40226457472E+02  0.18421565325E+02  0.49784813970E+02  0.41800000000E+01 0.  1.
        -11    1    1    2    0    0  0.36206371911E+02 -0.55350924224E+02 -0.71967775898E+01  0.66531344396E+02  0.00000000000E+00 0.  1.
         11    1    1    2    0    0 -0.13580474229E+02  0.14568089168E+02 -0.47643325887E+02  0.51638599941E+02  0.00000000000E+00 0. -1.
</event>
<event>
 7    1  0.2820496E-009  0.3839773E+03  0.7561462E-02  0.1049473E+00
          2   -1    0    0  501    0  0.00000000000E+00  0.00000000000E+00  0.53826863814E+03  0.53826863814E+03  0.00000000000E+00 0. -1.
         -2   -1    0    0    0  501 -0.00000000000E+00 -0.00000000000E+00 -0.31774708949E+03  0.31774708949E+03  0.00000000000E+00 0.  1.
         25    2    1    2    0    0  0.37084486296E+02 -0.37454709847E+03  0.24736869030E+03  0.46743357416E+03  0.12506833820E+03 0.  0.
          5    1    3    3  502    0  0.42974457364E+01 -0.28148733527E+03  0.23721036193E+03  0.36815732529E+03  0.41800000000E+01 0. -1.
         -5    1    3    3    0  502  0.32787040560E+02 -0.93059763202E+02  0.10158328370E+02  0.99276248878E+02  0.41800000000E+01 0. -1.
        -11    1    1    2    0    0  0.91151086743E+01  0.29869613332E+03 -0.21550168124E+02  0.29961120642E+03  0.00000000000E+00 0. -1.
         11    1    1    2    0    0 -0.46199594970E+02  0.75850965146E+02 -0.52969735290E+01  0.88970947042E+02  0.00000000000E+00 0.  1.
</event>
<event>
 7    1  0.2820496E-009  0.1315867E+03  0.7561462E-02  0.1225120E+00
          4   -1    0    0  501    0  0.00000000000E+00  0.00000000000E+00  0.74116799053E+02  0.74116799053E+02  0.00000000000E+00 0. -1.
         -4   -1    0    0    0  501 -0.00000000000E+00 -0.00000000000E+00 -0.32391840369E+03  0.32391840369E+03  0.00000000000E+00 0.  1.
         25    2    1    2    0    0 -0.43532581454E+02  0.10249130674E+03 -0.12295270325E+03  0.20776067457E+03  0.12509027564E+03 0.  0.
          5    1    3    3  502    0  0.91310537861E+01  0.18911215179E+01  0.21599464996E+02  0.23894806380E+02  0.41800000000E+01 0.  1.
         -5    1    3    3    0  502 -0.52663635240E+02  0.10060018522E+03 -0.14455216824E+03  0.18386586819E+03  0.41800000000E+01 0.  1.
        -11    1    1    2    0    0  0.46684375134E+02 -0.11236975809E+02 -0.27481215589E+02  0.55325561156E+02  0.00000000000E+00 0.  1.
         11    1    1    2    0    0 -0.31517936802E+01 -0.91254330928E+02 -0.99367685800E+02  0.13494896701E+03  0.00000000000E+00 0. -1.
</event>
<event>
 7    1  0.2820496E-009  0.3145385E+03  0.7561462E-02  0.1078191E+00
         -2   -1    0    0    0  501 -0.00000000000E+00  0.00000000000E+00  0.92979555849E+02  0.92979555849E+02  0.00000000000E+00 0.  1.
          2   -1    0    0  501    0  0.00000000000E+00 -0.00000000000E+00 -0.11640708828E+04  0.11640708828E+04  0.00000000000E+00 0. -1.
         25    2    1    2    0    0 -0.13989772830E+03  0.27475628275E+03 -0.60746578522E+03  0.69262152922E+03  0.12509002051E+03 0.  0.
          5    1    3    3  502    0 -0.15199974439E+03  0.25712930852E+03 -0.59879563987E+03  0.66917344114E+03  0.41800000000E+01 0.  1.
         -5    1    3    3    0  502  0.12102016094E+02  0.17626974238E+02 -0.86701453442E+01  0.23448088081E+02  0.41800000000E+01 0.  1.
        -11    1    1    2    0    0  0.10763053569E+03 -0.19946248668E+03 -0.25986136808E+03  0.34481523521E+03  0.00000000000E+00 0.  1.
         11    1    1    2    0    0  0.32267192605E+02 -0.75293796071E+02 -0.20376417368E+03  0.21961367426E+03  0.00000000000E+00 0. -1.
</event>
<event>
 7    1  0.2820496E-009  0.1177818E+03  0.7561462E-02  0.1246802E+00
         -1   -1    0    0    0  501 -0.00000000000E+00  0.00000000000E+00  0.35362814520E+02  0.35362814520E+02  0.00000000000E+00 0.  1.
          1   -1    0    0  501    0  0.00000000000E+00 -0.00000000000E+00 -0.53025357778E+03  0.53025357778E+03  0.00000000000E+00 0. -1.
         25    2    1    2    0    0 -0.79729341041E+02 -0.13555633314E+01 -0.38079053265E+03  0.40866700445E+03  0.12509470570E+03 0.  0.
          5    1    3    3  502    0 -0.91723872470E+02 -0.45238628878E+02 -0.27509707711E+03  0.29352287229E+03  0.41800000000E+01 0. -1.
         -5    1    3    3    0  502  0.11994531429E+02  0.43883065547E+02 -0.10569345555E+03  0.11514413216E+03  0.41800000000E+01 0. -1.
        -11    1    1    2    0    0  0.28314500091E+01  0.97621893404E+01  0.76369729152E+01  0.12713803726E+02  0.00000000000E+00 0.  1.
         11    1    1    2    0    0  0.76897891032E+02 -0.84066260090E+01 -0.12173720352E+03  0.14423558412E+03  0.00000000000E+00 0. -1.
</event>
<event>
 7    1  0.2820496E-009  0.1968513E+03  0.7561462E-02  0.1152423E+00
         -1   -1    0    0    0  501 -0.00000000000E+00  0.00000000000E+00  0.15164593143E+03  0.15164593143E+03  0.00000000000E+00 0.  1.
          1   -1    0    0  501    0  0.00000000000E+00 -0.00000000000E+00 -0.30704562756E+03  0.30704562756E+03  0.00000000000E+00 0. -1.
         25    2    1    2    0    0 -0.11187499949E+03  0.13628827755E+03 -0.17529144984E+02  0.21689771948E+03  0.12508732823E+03 0.  0.
          5    1    3    3  502    0 -0.10845486612E+03  0.15840856365E+03 -0.79318792786E+01  0.19218771587E+03  0.41800000000E+01 0. -1.
         -5    1    3    3    0  502 -0.34201333711E+01 -0.22120286101E+02 -0.95972657054E+01  0.24710003611E+02  0.41800000000E+01 0. -1.
        -11    1    1    2    0    0  0.72591361378E+02 -0.64651648326E+02 -0.21417145703E+02  0.99539115467E+02  0.00000000000E+00 0.  1.
         11    1    1    2    0    0  0.39283638117E+02 -0.71636629223E+02 -0.11645340544E+03  0.14225472403E+03  0.00000000000E+00 0. -1.
</event>
<event>
 7    1  0.2820496E-009  0.2717609E+03  0.7561462E-02  0.1100276E+00
          1   -1    0    0  501    0  0.00000000000E+00  0.00000000000E+00  0.29634497127E+04  0.29634497127E+04  0.00000000000E+00 0. -1.
         -1   -1    0    0    0  501 -0.00000000000E+00 -0.00000000000E+00 -0.32162336250E+02  0.32162336250E+02  0.00000000000E+00 0.  1.
         25    2    1    2    0    0  0.23704405685E+03  0.81182916051E+02  0.21889208124E+04  0.22067633118E+04  0.12509772471E+03 0.  0.
          5    1    3    3  502    0 -0.13943195507E+02  0.80601191338E+01  0.81133066657E+02  0.82821646485E+02  0.41800000000E+01 0. -1.
         -5    1    3    3    0  502  0.25098725235E+03  0.73122796917E+02  0.21077877458E+04  0.21239416654E+04  0.41800000000E+01 0. -1.
        -11    1    1    2    0    0 -0.10055099268E+03 -0.80705234986E+02  0.32099351830E+03  0.34592004260E+03  0.00000000000E+00 0.  1.
         11    1    1    2    0    0 -0.13649306417E+03 -0.47768106494E+00  0.42137304575E+03  0.44292869452E+03  0.00000000000E+00 0. -1.
</event>
<event>
 7    1  0.2820496E-009  0.8801886E+02  0.7561462E-02  0.1307721E+00
          2   -1    0    0  501    0  0.00000000000E+00  0.00000000000E+00  0.48194460598E+02  0.48194460598E+02  0.00000000000E+00 0. -1.
         -2   -1    0    0    0  501 -0.00000000000E+00 -0.00000000000E+00 -0.29093030854E+03  0.29093030854E+03  0.00000000000E+00 0.  1.
         25    2    1    2    0    0 -0.45384817939E+02  0.20612866915E+02 -0.13563776277E+03  0.19112755907E+03  0.12508984438E+03 0.  0.
          5    1    3    3  502    0 -0.22690119243E+02  0.42128563286E+02 -0.14923291778E+03  0.15677242584E+03  0.41800000000E+01 0.  1.
         -5    1    3    3    0  502 -0.22694698696E+02 -0.21515696371E+02  0.13595155015E+02  0.34355133228E+02  0.41800000000E+01 0.  1.
        -11    1    1    2    0    0  0.34829801878E+02  0.29252422695E+02 -0.75148159506E+02  0.87841136203E+02  0.00000000000E+00 0.  1.
         11    1    1    2    0    0  0.10555016061E+02 -0.49865289610E+02 -0.31949925666E+02  0.60156073858E+02  0.00000000000E+00 0. -1.
</event>
<event>
 7    1  0.2820496E-009  0.1900377E+03  0.7561462E-02  0.1158427E+00
          3   -1    0    0  501    0  0.00000000000E+00  0.00000000000E+00  0.67589434928E+03  0.67589434928E+03  0.00000000000E+00 0. -1.
         -3   -1    0    0    0  501 -0.00000000000E+00 -0.00000000000E+00 -0.80879916167E+02  0.80879916167E+02  0.00000000000E+00 0.  1.
         25    2    1    2    0    0  0.69761359248E+02  0.15506031598E+03  0.49816606066E+03  0.54104128824E+03  0.12508358308E+03 0.  0.
          5    1    3    3  502    0  0.15534683319E+02  0.15341729154E+03  0.32962324364E+03  0.36393288788E+03  0.41800000000E+01 0. -1.
         -5    1    3    3    0  502  0.54226675929E+02  0.16430244356E+01  0.16854281702E+03  0.17710840036E+03  0.41800000000E+01 0. -1.
        -11    1    1    2    0    0 -0.16162882905E+02 -0.61406799351E+02 -0.95270528565E+01  0.64209022158E+02  0.00000000000E+00 0.  1.
         11    1    1    2    0    0 -0.53598476343E+02 -0.93653516628E+02  0.10637542531E+03  0.15152395505E+03  0.00000000000E+00 0. -1.
</event>
<event>
 7    1  0.2820496E-009  0.1483116E+03  0.7561462E-02  0.1202563E+00
          3   -1    0    0  501    0  0.00000000000E+00  0.00000000000E+00  0.17030034579E+03  0.17030034579E+03  0.00000000000E+00 0. -1.
         -3   -1    0    0    0  501 -0.00000000000E+00 -0.00000000000E+00 -0.16022145088E+03  0.16022145088E+03  0.00000000000E+00 0.  1.
         25    2    1    2    0    0  0.59742559808E+02  0.10975250473E+03  0.88718970839E+01  0.17701461550E+03  0.12506269545E+03 0.  0.
          5    1    3    3  502    0  0.76117340667E+02  0.11552192202E+03 -0.23169088982E+02  0.14033332855E+03  0.41800000000E+01 0.  1.
         -5    1    3    3    0  502 -0.16374780859E+02 -0.57694172853E+01  0.32040986066E+02  0.36681286947E+02  0.41800000000E+01 0.  1.
        -11    1    1    2    0    0 -0.69121656364E+02 -0.65858385078E+02  0.30125098673E+02  0.10011319510E+03  0.00000000000E+00 0. -1.
         11    1    1    2    0    0  0.93790965556E+01 -0.43894119655E+02 -0.28918100849E+02  0.53393986077E+02  0.00000000000E+00 0.  1.
</event>
<event>
 7    1  0.2820496E-009  0.9439464E+02  0.7561462E-02  0.1292545E+00
         -2   -1    0    0    0  501 -0.00000000000E+00  0.00000000000E+00  0.20921237720E+03  0.20921237720E+03  0.00000000000E+00 0.  1.
          2   -1    0    0  501    0  0.00000000000E+00 -0.00000000000E+00 -0.71892481768E+02  0.71892481768E+02  0.00000000000E+00 0. -1.
         25    2    1    2    0    0 -0.16013703346E+02 -0.21525510707E+02  0.19459993324E+02  0.12940475626E+03  0.12508842192E+03 0.  0.
          5    1    3    3  502    0  0.99367927927E+01  0.50215065999E+02  0.11095201131E+02  0.52543968183E+02  0.41800000000E+01 0.  1.
         -5    1    3    3    0  502 -0.25950496139E+02 -0.71740576706E+02  0.83647921938E+01  0.76860788081E+02  0.41800000000E+01 0.  1.
        -11    1    1    2    0    0 -0.88556032019E+01 -0.14654757461E+02 -0.76346451328E+01  0.18747571326E+02  0.00000000000E+00 0. -1.
         11    1    1    2    0    0  0.24869306548E+02  0.36180268168E+02  0.12549454724E+03  0.13295253138E+03  0.00000000000E+00 0.  1.
</event>
<event>
 7    1  0.2820496E-009  0.1056450E+03  0.7561462E-02  0.1268854E+00
          2   -1    0    0  501    0  0.00000000000E+00  0.00000000000E+00  0.46541955195E+03  0.46541955195E+03  0.00000000000E+00 0. -1.
         -2   -1    0    0    0  501 -0.00000000000E+00 -0.00000000000E+00 -0.43379529962E+02  0.43379529962E+02  0.00000000000E+00 0.  1.
         25    2    1    2    0    0  0.27347964307E+02 -0.84591254775E+02  0.19215039378E+03  0.24591227999E+03  0.12508990400E+03 0.  0.
          5    1    3    3  502    0  0.21406985204E+02 -0.14462541087E+02 -0.12829558074E+02  0.29146081565E+02  0.41800000000E+01 0. -1.
         -5    1    3    3    0  502  0.59409791021E+01 -0.70128713688E+02  0.20497995186E+03  0.21676619842E+03  0.41800000000E+01 0. -1.
        -11    1    1    2    0    0 -0.36712226533E+02  0.81540354432E+01  0.28229825521E+02  0.47023386947E+02  0.00000000000E+00 0.  1.
         11    1    1    2    0    0  0.93642622263E+01  0.76437219332E+02  0.20165980269E+03  0.21586341498E+03  0.00000000000E+00 0. -1.
</event>
<event>
 7    1  0.2820496E-009  0.1016052E+03  0.7561462E-02  0.1276956E+00
         -1   -1    0    0    0  501 -0.00000000000E+00  0.00000000000E+00  0.36944074559E+03  0.36944074559E+03  0.00000000000E+00 0.  1.
          1   -1    0    0  501    0  0.00000000000E+00 -0.00000000000E+00 -0.55124839577E+02  0.55124839577E+02  0.00000000000E+00 0. -1.
         25    2    1    2    0    0  0.63327540355E+02  0.90523488619E+01  0.27190875481E+03  0.30604785742E+03  0.12505437899E+03 0.  0.
          5    1    3    3  502    0  0.58098107033E+02 -0.48147739572E+02  0.10414926107E+03  0.12867842029E+03  0.41800000000E+01 0.  1.
         -5    1    3    3    0  502  0.52294333214E+01  0.57200088434E+02  0.16775949374E+03  0.17736943714E+03  0.41800000000E+01 0.  1.
        -11    1    1    2    0    0 -0.35843229277E+02  0.92626079849E+01  0.67536100394E+02  0.77017256820E+02  0.00000000000E+00 0.  1.
         11    1    1    2    0    0 -0.27484311077E+02 -0.18314956847E+02 -0.25128949187E+02  0.41500470925E+02  0.00000000000E+00 0. -1.
</event>
<event>
 7    1  0.2820496E-009  0.6400256E+02  0.7561462E-02  0.1381763E+00
         -1   -1    0    0    0  501 -0.00000000000E+00  0.00000000000E+00  0.53605760507E+01  0.53605760507E+01  0.00000000000E+00 0.  1.
          1   -1    0    0  501    0  0.00000000000E+00 -0.00000000000E+00 -0.35931755710E+04  0.35931755710E+04  0.00000000000E+00 0. -1.
         25    2    1    2    0    0 -0.13880163542E+02  0.11610935035E+02 -0.30450047509E+04  0.30476266496E+04  0.12508712851E+03 0.  0.
          5    1    3    3  502    0 -0.22122985441E+02  0.71113360390E+01 -0.30253857237E+04  0.30254778543E+04  0.41800000000E+01 0. -1.
         -5    1    3    3    0  502  0.82428218988E+01  0.44995989959E+01 -0.19619027253E+02  0.22148795325E+02  0.41800000000E+01 0. -1.
        -11    1    1    2    0    0 -0.31789270063E+02  0.20910062009E+02 -0.22180409153E+03  0.22504409214E+03  0.00000000000E+00 0.  1.
         11    1    1    2    0    0  0.45669433605E+02 -0.32520997044E+02 -0.32100615249E+03  0.32586540527E+03  0.00000000000E+00 0. -1.
</event>
<event>
 7    1  0.2820496E-009  0.9114620E+02  0.7561462E-02  0.1300100E+00
         -1   -1    0    0    0  501 -0.00000000000E+00  0.00000000000E+00  0.28571429517E+02  0.28571429517E+02  0.00000000000E+00 0.  1.
          1   -1    0    0  501    0  0.00000000000E+00 -0.00000000000E+00 -0.52241735682E+03  0.52241735682E+03  0.00000000000E+00 0. -1.
         25    2    1    2    0    0  0.51826456571E+02 -0.21111544158E+02 -0.26797479146E+03  0.30098086385E+03  0.12508921875E+03 0.  0.
          5    1    3    3  502    0  0.80577346979E+02 -0.13777345929E+02 -0.25590443734E+03  0.26867652960E+03  0.41800000000E+01 0.  1.
         -5    1    3    3    0  502 -0.28750890408E+02 -0.73341982288E+01 -0.12070354127E+02  0.32304334255E+02  0.41800000000E+01 0.  1.
        -11    1    1    2    0    0 -0.57571509687E+02  0.10663246505E+02 -0.23004167560E+03  0.23737598039E+03  0.00000000000E+00 0. -1.
         11    1    1    2    0    0  0.57450531158E+01  0.10448297652E+02  0.41705397622E+01  0.12631942093E+02  0.00000000000E+00 0.  1.
</event>
<event>
 7    1  0.2820496E-009  0.9958248E+02  0.7561462E-02  0.1281176E+00
          1   -1    0    0  501    0  0.00000000000E+00  0.00000000000E+00  0.24888404342E+03  0.24888404342E+03  0.00000000000E+00 0. -1.
         -1   -1    0    0    0  501 -0.00000000000E+00 -0.00000000000E+00 -0.52494522073E+02  0.52494522073E+02  0.00000000000E+00 0.  1.
         25    2    1    2    0    0 -0.25106539386E+02 -0.20754454223E+02  0.99421042233E+02  0.16307365549E+03  0.12508951909E+03 0.  0.
          5    1    3    3  502    0 -0.35568361826E+02  0.31522525303E+02 -0.27121414625E+01  0.47787091100E+02  0.41800000000E+01 0.  1.
         -5    1    3    3    0  502  0.10461822440E+02 -0.52276979526E+02  0.10213318370E+03  0.11528656439E+03  0.41800000000E+01 0.  1.
        -11    1    1    2    0    0  0.53972708320E+02 -0.10980443905E+02  0.46630736341E+02  0.72166813450E+02  0.00000000000E+00 0. -1.
         11    1    1    2    0    0 -0.28866168934E+02  0.31734898129E+02  0.50337742774E+02  0.66138096554E+02  0.00000000000E+00 0.  1.
</event>
<event>
 7    1  0.4018428E-009  0.1099437E+03  0.7561462E-02  0.1260674E+00
         -2   -1    0    0    0  501 -0.00000000000E+00  0.00000000000E+00  0.30238504461E+02  0.30238504461E+02  0.00000000000E+00 0.  1.
          2   -1    0    0  501    0  0.00000000000E+00 -0.00000000000E+00 -0.82956201259E+03  0.82956201259E+03  0.00000000000E+00 0. -1.
         25    2    1    2    0    0  0.10534467243E+03 -0.29375787736E+01 -0.55214867834E+03  0.57586607819E+03  0.12508975835E+03 0.  0.
          5    1    3    3  502    0  0.71594099165E+02 -0.21647866716E+02 -0.52027592159E+03  0.52564137218E+03  0.41800000000E+01 0. -1.
         -5    1    3    3    0  502  0.33750573266E+02  0.18710287942E+02 -0.31872756749E+02  0.50224706006E+02  0.41800000000E+01 0. -1.
        -11    1    1    2    0    0 -0.34526528642E+02 -0.50451532904E+01 -0.10020603637E+02  0.36303543203E+02  0.00000000000E+00 0.  1.
         11    1    1    2    0    0 -0.70818143788E+02  0.79827320640E+01 -0.23715422615E+03  0.24763089565E+03  0.00000000000E+00 0. -1.
</event>
<event>
 7    1  0.2820496E-009  0.7769486E+02  0.7561462E-02  0.1335723E+00
         -1   -1    0    0    0  501 -0.00000000000E+00  0.00000000000E+00  0.27452716493E+03  0.27452716493E+03  0.00000000000E+00 0.  1.
          1   -1    0    0  501    0  0.00000000000E+00 -0.00000000000E+00 -0.30926572199E+02  0.30926572199E+02  0.00000000000E+00 0. -1.
         25    2    1    2    0    0 -0.17145108688E+02  0.24682467948E+01  0.14841372451E+03  0.19487100568E+03  0.12509207904E+03 0.  0.
          5    1    3    3  502    0  0.18400188557E+02  0.45500801995E+02  0.12471393518E+03  0.13408925367E+03  0.41800000000E+01 0. -1.
         -5    1    3    3    0  502 -0.35545297245E+02 -0.43032555200E+02  0.23699789329E+02  0.60781752011E+02  0.41800000000E+01 0. -1.
        -11    1    1    2    0    0  0.10199708037E+02 -0.24777797579E+02  0.75212798785E+02  0.79843211346E+02  0.00000000000E+00 0.  1.
         11    1    1    2    0    0  0.69454006502E+01  0.22309550784E+02  0.19974069436E+02  0.30739520104E+02  0.00000000000E+00 0. -1.
</event>
<event>
 7    1  0.2820496E-009  0.1771132E+03  0.7561462E-02  0.1170627E+00
         -1   -1    0    0    0  501 -0.00000000000E+00  0.00000000000E+00  0.56275344820E+02  0.56275344820E+02  0.00000000000E+00 0.  1.
          1   -1    0    0  501    0  0.00000000000E+00 -0.00000000000E+00 -0.72181833977E+03  0.72181833977E+03  0.00000000000E+00 0. -1.
         25    2    1    2    0    0  0.11301835968E+03  0.92641598449E+02 -0.51431945800E+03  0.54911499876E+03  0.12508861497E+03 0.  0.
          5    1    3    3  502    0  0.53111641477E+02  0.11447455977E+03 -0.37873660436E+03  0.39922945680E+03  0.41800000000E+01 0.  1.
         -5    1    3    3    0  502  0.59906718207E+02 -0.21832961324E+02 -0.13558285365E+03  0.14988554196E+03  0.41800000000E+01 0.  1.
        -11    1    1    2    0    0 -0.10968902715E+03 -0.10464990782E+03 -0.11387736575E+03  0.18960838672E+03  0.00000000000E+00 0.  1.
         11    1    1    2    0    0 -0.33293325343E+01  0.12008309372E+02 -0.37346171187E+02  0.39370299102E+02  0.00000000000E+00 0. -1.
</event>
<event>
 7    1  0.2820496E-009  0.9584491E+02  0.7561462E-02  0.1289284E+00
          2   -1    0    0  501    0  0.00000000000E+00  0.00000000000E+00  0.60953087213E+03  0.60953087213E+03  0.00000000000E+00 0. -1.
         -2   -1    0    0    0  501 -0.00000000000E+00 -0.00000000000E+00 -0.23865503011E+02  0.23865503011E+02  0.00000000000E+00 0.  1.
         25    2    1    2    0    0  0.25668639605E+02  0.22077078839E+02  0.45143286324E+03  0.46967365987E+03  0.12512170191E+03 0.  0.
          5    1    3    3  502    0 -0.19306255323E+02  0.60407541233E+02  0.15767554966E+03  0.17000251143E+03  0.41800000000E+01 0. -1.
         -5    1    3    3    0  502  0.44974894928E+02 -0.38330462395E+02  0.29375731358E+03  0.29967114844E+03  0.41800000000E+01 0. -1.
        -11    1    1    2    0    0  0.10288537907E+00 -0.38392175274E+02  0.15955056544E+02  0.41575636339E+02  0.00000000000E+00 0.  1.
         11    1    1    2    0    0 -0.25771524984E+02  0.16315096435E+02  0.11827744933E+03  0.12214707893E+03  0.00000000000E+00 0. -1.
</event>
<event>
 7    1  0.2820496E-009  0.9944758E+02  0.7561462E-02  0.1281462E+00
          2   -1    0    0  501    0  0.00000000000E+00  0.00000000000E+00  0.79652391878E+02  0.79652391878E+02  0.00000000000E+00 0. -1.
         -2   -1    0    0    0  501 -0.00000000000E+00 -0.00000000000E+00 -0.28495149730E+03  0.28495149730E+03  0.00000000000E+00 0.  1.
         25    2    1    2    0    0 -0.69423401406E+02  0.46865011279E+02 -0.18191094157E+03  0.23612404767E+03  0.12508811805E+03 0.  0.
          5    1    3    3  502    0 -0.80094007766E+01  0.15642696930E+02 -0.16376322185E+03  0.16475651641E+03  0.41800000000E+01 0.  1.
         -5    1    3    3    0  502 -0.61414000629E+02  0.31222314349E+02 -0.18147719721E+02  0.71367531257E+02  0.41800000000E+01 0.  1.
        -11    1    1    2    0    0  0.65968510772E+02 -0.65437120886E+02 -0.41991818374E+02  0.10196653379E+03  0.00000000000E+00 0.  1.
         11    1    1    2    0    0  0.34548906340E+01  0.18572109607E+02  0.18603654524E+02  0.26513307719E+02  0.00000000000E+00 0. -1.
</event>
<event>
 7    1  0.2820496E-009  0.1530447E+03  0.7561462E-02  0.1196781E+00
         -1   -1    0    0    0  501 -0.00000000000E+00  0.00000000000E+00  0.66469240866E+03  0.66469240866E+03  0.00000000000E+00 0. -1.
          1   -1    0    0  501    0  0.00000000000E+00 -0.00000000000E+00 -0.45610610644E+02  0.45610610644E+02  0.00000000000E+00 0.  1.
         25    2    1    2    0    0  0.13641498556E+03 -0.13925561724E+02  0.32023934498E+03  0.37013978504E+03  0.12508897968E+03 0.  0.
          5    1    3    3  502    0 -0.25416569407E+01 -0.25731947470E+02  0.13885264615E+03  0.14130153178E+03  0.41800000000E+01 0.  1.
         -5    1    3    3    0  502  0.13895664250E+03  0.11806385747E+02  0.18138669883E+03  0.22883825326E+03  0.41800000000E+01 0.  1.
        -11    1    1    2    0    0 -0.11017564470E+03  0.23115566680E+02  0.28984873960E+03  0.31094258949E+03  0.00000000000E+00 0. -1.
         11    1    1    2    0    0 -0.26239340860E+02 -0.91900049568E+01  0.89937134305E+01  0.29220644776E+02  0.00000000000E+00 0.  1.
</event>
<event>
 7    1  0.2820496E-009  0.1001740E+03  0.7561462E-02  0.1279930E+00
         -2   -1    0    0    0  501 -0.00000000000E+00  0.00000000000E+00  0.30081027533E+03  0.30081027533E+03  0.00000000000E+00 0.  1.
          2   -1    0    0  501    0  0.00000000000E+00 -0.00000000000E+00 -0.58212662348E+02  0.58212662348E+02  0.00000000000E+00 0. -1.
         25    2    1    2    0    0 -0.49860878744E+01  0.60381555594E+02  0.19627711423E+03  0.24050627880E+03  0.12509105182E+03 0.  0.
          5    1    3    3  502    0  0.59794125871E+02  0.31392060850E+02  0.88740758897E+02  0.11159387825E+03  0.41800000000E+01 0. -1.
         -5    1    3    3    0  502 -0.64780213745E+02  0.28989494744E+02  0.10753635533E+03  0.12891240055E+03  0.41800000000E+01 0. -1.
        -11    1    1    2    0    0 -0.34154733963E+01 -0.24635811794E+02  0.70360777831E+02  0.74627258681E+02  0.00000000000E+00 0.  1.
         11    1    1    2    0    0  0.84015612707E+01 -0.35745743800E+02 -0.24040279075E+02  0.43889400196E+02  0.00000000000E+00 0. -1.
</event>
<event>
 7    1  0.2820496E-009  0.1190391E+03  0.7561462E-02  0.1244691E+00
         -1   -1    0    0    0  501 -0.00000000000E+00  0.00000000000E+00  0.37864835415E+02  0.37864835415E+02  0.00000000000E+00 0.  1.
          1   -1    0    0  501    0  0.00000000000E+00 -0.00000000000E+00 -0.51137207517E+03  0.51137207517E+03  0.00000000000E+00 0. -1.
         25    2    1    2    0    0 -0.57806754284E+02 -0.61661456339E+02 -0.21848592100E+03  0.26557162240E+03  0.12509369653E+03 0.  0.
          5    1    3    3  502    0 -0.35312953237E+02 -0.87909381794E+02 -0.84103470190E+02  0.12675145037E+03  0.41800000000E+01 0. -1.
         -5    1    3    3    0  502 -0.22493801048E+02  0.26247925456E+02 -0.13438245081E+03  0.13882017203E+03  0.41800000000E+01 0. -1.
        -11    1    1    2    0    0  0.72176153405E+02  0.40241674099E+02 -0.23997426111E+03  0.25380393111E+03  0.00000000000E+00 0. -1.
         11    1    1    2    0    0 -0.14369399121E+02  0.21419782240E+02 -0.15047057651E+02  0.29861357073E+02  0.00000000000E+00 0.  1.
</event>
<event>
 7    1  0.2820496E-009  0.7905175E+02  0.7561462E-02  0.1331764E+00
          3   -1    0    0  501    0  0.00000000000E+00  0.00000000000E+00  0.18115322727E+03  0.18115322727E+03  0.00000000000E+00 0. -1.
         -3   -1    0    0    0  501 -0.00000000000E+00 -0.00000000000E+00 -0.80172140339E+02  0.80172140339E+02  0.00000000000E+00 0.  1.
         25    2    1    2    0    0  0.36025476075E+02  0.40687746707E+02  0.74009247047E+02  0.15517439664E+03  0.12509355326E+03 0.  0.
          5    1    3    3  502    0  0.33133170131E+02  0.33457025153E+02 -0.26556599229E+02  0.54220889495E+02  0.41800000000E+01 0.  1.
         -5    1    3    3    0  502  0.28923059440E+01  0.72307215532E+01  0.10056584628E+03  0.10095350715E+03  0.41800000000E+01 0.  1.
        -11    1    1    2    0    0 -0.64059991902E+02 -0.19859098774E+02  0.23448398451E+02  0.71048530995E+02  0.00000000000E+00 0.  1.
         11    1    1    2    0    0  0.28034515827E+02 -0.20828647932E+02  0.35234414311E+01  0.35102439970E+02  0.00000000000E+00 0. -1.
</event>
<event>
 7    1  0.2820496E-009  0.1104415E+03  0.7561462E-02  0.1259754E+00
          1   -1    0    0  501    0  0.00000000000E+00  0.00000000000E+00  0.22256696206E+02  0.22256696206E+02  0.00000000000E+00 0. -1.
         -1   -1    0    0    0  501 -0.00000000000E+00 -0.00000000000E+00 -0.79959748786E+03  0.79959748786E+03  0.00000000000E+00 0.  1.
         25    2    1    2    0    0 -0.63115795767E+02 -0.37457114182E+02 -0.53084569599E+03  0.55030122885E+03  0.12509056893E+03 0.  0.
          5    1    3    3  502    0  0.33268152168E+02 -0.10615572918E+02 -0.65939343433E+02  0.74732387553E+02  0.41800000000E+01 0.  1.
         -5    1    3    3    0  502 -0.96383947935E+02 -0.26841541264E+02 -0.46490635256E+03  0.47556884129E+03  0.41800000000E+01 0.  1.
        -11    1    1    2    0    0  0.20936063216E+02 -0.90324333469E+01 -0.68282504538E+01  0.23801861259E+02  0.00000000000E+00 0.  1.
         11    1    1    2    0    0  0.42179732550E+02  0.46489547529E+02 -0.23966684521E+03  0.24775109396E+03  0.00000000000E+00 0. -1.
</event>
<event>
 7    1  0.2820496E-009  0.1446058E+03  0.7561462E-02  0.1207263E+00
          1   -1    0    0  501    0  0.00000000000E+00  0.00000000000E+00  0.41000795417E+03  0.41000795417E+03  0.00000000000E+00 0. -1.
         -1   -1    0    0    0  501 -0.00000000000E+00 -0.00000000000E+00 -0.55477478612E+02  0.55477478612E+02  0.00000000000E+00 0.  1.
         25    2    1    2    0    0  0.97294960823E+02 -0.47504170263E+02  0.23079916446E+03  0.28396937083E+03  0.12508954256E+03 0.  0.
          5    1    3    3  502    0  0.27644977123E+02  0.41810558999E+02  0.52575617333E+02  0.72760123295E+02  0.41800000000E+01 0.  1.
         -5    1    3    3    0  502  0.69649983700E+02 -0.89314729261E+02  0.17822354713E+03  0.21120924753E+03  0.41800000000E+01 0.  1.
        -11    1    1    2    0    0 -0.88937909435E+02  0.62296377089E+02  0.80812246153E+02  0.13535660110E+03  0.00000000000E+00 0.  1.
         11    1    1    2    0    0 -0.83570513887E+01 -0.14792206827E+02  0.42919064938E+02  0.46159460849E+02  0.00000000000E+00 0. -1.
</event>
<event>
 7    1  0.2820496E-009  0.1272246E+03  0.7561462E-02  0.1231633E+00
          2   -1    0    0  501    0  0.00000000000E+00  0.00000000000E+00  0.36082040267E+03  0.36082040267E+03  0.00000000000E+00 0.  1.
         -2   -1    0    0    0  501 -0.00000000000E+00 -0.00000000000E+00 -0.45923713733E+02  0.45923713733E+02  0.00000000000E+00 0. -1.
         25    2    1    2    0    0 -0.58218946912E+02  0.36875468415E+02  0.19344779077E+03  0.24045457335E+03  0.12508840130E+03 0.  0.
          5    1    3    3  502    0  0.14991837324E+02 -0.34924858498E+02  0.71389726167E+02  0.80984358549E+02  0.41800000000E+01 0. -1.
         -5    1    3    3    0  502 -0.73210784237E+02  0.71800326913E+02  0.12205806461E+03  0.15947021480E+03  0.41800000000E+01 0. -1.
        -11    1    1    2    0    0  0.76744988859E+02 -0.49357350340E+02  0.98078014451E+02  0.13395983826E+03  0.00000000000E+00 0.  1.
         11    1    1    2    0    0 -0.18526041947E+02  0.12481881925E+02  0.23370883716E+02  0.32329704797E+02  0.00000000000E+00 0. -1.
</event>
<event>
 7    1  0.2820496E-009  0.1306132E+03  0.7561462E-02  0.1226549E+00
         -2   -1    0    0    0  501 -0.00000000000E+00  0.00000000000E+00  0.41086656810E+02  0.41086656810E+02  0.00000000000E+00 0.  1.
          2   -1    0    0  501    0  0.00000000000E+00 -0.00000000000E+00 -0.45081240959E+03  0.45081240959E+03  0.00000000000E+00 0. -1.
         25    2    1    2    0    0  0.63285363097E+02 -0.39218689466E+02 -0.15991588382E+03  0.21624933834E+03  0.12509014210E+03 0.  0.
          5    1    3    3  502    0  0.85856757175E+02 -0.66992640560E+02 -0.11169762009E+03  0.15605520618E+03  0.41800000000E+01 0. -1.
         -5    1    3    3    0  502 -0.22571394078E+02  0.27773951094E+02 -0.48218263723E+02  0.60194132160E+02  0.41800000000E+01 0. -1.
        -11    1    1    2    0    0 -0.18988420512E+02 -0.29125666426E+02 -0.84223348149E+02  0.91117709210E+02  0.00000000000E+00 0. -1.
         11    1    1    2    0    0 -0.44296942585E+02  0.68344355892E+02 -0.16558652082E+03  0.18453201885E+03  0.00000000000E+00 0.  1.
</event>
<event>
 7    1  0.2820496E-009  0.1218116E+03  0.7561462E-02  0.1240138E+00
         -1   -1    0    0    0  501 -0.00000000000E+00  0.00000000000E+00  0.25275163068E+03  0.25275163068E+03  0.00000000000E+00 0.  1.
          1   -1    0    0  501    0  0.00000000000E+00 -0.00000000000E+00 -0.70046945450E+02  0.70046945450E+02  0.00000000000E+00 0. -1.
         25    2    1    2    0    0 -0.17588720830E+02 -0.70319753199E+02  0.13943158609E+03  0.20086088414E+03  0.12509874815E+03 0.  0.
          5    1    3    3  502    0  0.45314218721E+02  0.41601875111E+01  0.32347652782E+02  0.55986861128E+02  0.41800000000E+01 0. -1.
         -5    1    3    3    0  502 -0.62902939551E+02 -0.74479940710E+02  0.10708393331E+03  0.14487402302E+03  0.41800000000E+01 0. -1.
        -11    1    1    2    0    0  0.44564741991E+02  0.42007035815E+02 -0.30458379849E+01  0.61317896374E+02  0.00000000000E+00 0. -1.
         11    1    1    2    0    0 -0.26976021161E+02  0.28312717384E+02  0.46318937123E+02  0.60619795608E+02  0.00000000000E+00 0.  1.
</event>
<event>
 7    1  0.2820496E-009  0.1162902E+03  0.7561462E-02  0.1249346E+00
          1   -1    0    0  501    0  0.00000000000E+00  0.00000000000E+00  0.86906447064E+02  0.86906447064E+02  0.00000000000E+00 0. -1.
         -1   -1    0    0    0  501 -0.00000000000E+00 -0.00000000000E+00 -0.20207400338E+03  0.20207400338E+03  0.00000000000E+00 0.  1.
         25    2    1    2    0    0 -0.60005487989E+02 -0.44116354171E+02 -0.46178165877E+02  0.15273021130E+03  0.12508870111E+03 0.  0.
          5    1    3    3  502    0 -0.85871116738E+02 -0.61284067548E+02 -0.11825212006E+02  0.10623979322E+03  0.41800000000E+01 0.  1.
         -5    1    3    3    0  502  0.25865628750E+02  0.17167713377E+02 -0.34352953872E+02  0.46490418076E+02  0.41800000000E+01 0.  1.
        -11    1    1    2    0    0  0.69323304408E+02  0.49250761308E+02 -0.82885536452E+02  0.11874919021E+03  0.00000000000E+00 0.  1.
         11    1    1    2    0    0 -0.93178164191E+01 -0.51344071367E+01  0.13896146017E+02  0.17501048928E+02  0.00000000000E+00 0. -1.
</event>
<event>
 7    1  0.2820496E-009  0.1079733E+03  0.7561462E-02  0.1264370E+00
         -1   -1    0    0    0  501 -0.00000000000E+00  0.00000000000E+00  0.12568467416E+03  0.12568467416E+03  0.00000000000E+00 0.  1.
          1   -1    0    0  501    0  0.00000000000E+00 -0.00000000000E+00 -0.13598028524E+03  0.13598028524E+03  0.00000000000E+00 0. -1.
         25    2    1    2    0    0  0.33229331297E+02  0.57494841974E+02  0.21170581302E+02  0.14319748985E+03  0.12508989677E+03 0.  0.
          5    1    3    3  502    0  0.25255129888E+02 -0.32254625837E+02  0.32271076193E+02  0.52317083560E+02  0.41800000000E+01 0. -1.
         -5    1    3    3    0  502  0.79742014092E+01  0.89749467812E+02 -0.11100494891E+02  0.90880406290E+02  0.41800000000E+01 0. -1.
        -11    1    1    2    0    0  0.85136013309E+01 -0.37184283177E+02  0.24818054687E+02  0.45509209633E+02  0.00000000000E+00 0.  1.
         11    1    1    2    0    0 -0.41742932628E+02 -0.20310558798E+02 -0.56284247063E+02  0.72958259920E+02  0.00000000000E+00 0. -1.
</event>
<event>
 7    1  0.2820496E-009  0.1089288E+03  0.7561462E-02  0.1262566E+00
         -3   -1    0    0    0  501 -0.00000000000E+00  0.00000000000E+00  0.15465688889E+03  0.15465688889E+03  0.00000000000E+00 0.  1.
          3   -1    0    0  501    0  0.00000000000E+00 -0.00000000000E+00 -0.10767279915E+03  0.10767279915E+03  0.00000000000E+00 0. -1.
         25    2    1    2    0    0 -0.45699743833E+02  0.45701736569E+02  0.53881759843E+02  0.15075703158E+03  0.12508926099E+03 0.  0.
          5    1    3    3  502    0 -0.63627156543E+02  0.59724929387E+02 -0.49811437836E+01  0.87508664905E+02  0.41800000000E+01 0.  1.
         -5    1    3    3    0  502  0.17927412710E+02 -0.14023192818E+02  0.58862903627E+02  0.63248366672E+02  0.41800000000E+01 0.  1.
        -11    1    1    2    0    0 -0.15246585393E+02  0.14959511261E+02 -0.13600064392E+02  0.25322067348E+02  0.00000000000E+00 0. -1.
         11    1    1    2    0    0  0.60946329226E+02 -0.60661247830E+02  0.67023942874E+01  0.86250589121E+02  0.00000000000E+00 0.  1.
</event>
<event>
 7    1  0.2820496E-009  0.1238365E+03  0.7561462E-02  0.1236899E+00
         -1   -1    0    0    0  501 -0.00000000000E+00  0.00000000000E+00  0.17855127509E+03  0.17855127509E+03  0.00000000000E+00 0.  1.
          1   -1    0    0  501    0  0.00000000000E+00 -0.00000000000E+00 -0.95831696230E+02  0.95831696230E+02  0.00000000000E+00 0. -1.
         25    2    1    2    0    0  0.30165818653E+01 -0.67952781748E+02  0.77008699127E+02  0.16187636230E+03  0.12508771569E+03 0.  0.
          5    1    3    3  502    0 -0.47334316731E+02  0.10729086151E+02  0.22719744805E+02  0.53752302593E+02  0.41800000000E+01 0. -1.
         -5    1    3    3    0  502  0.50350898597E+02 -0.78681867899E+02  0.54288954322E+02  0.10812405970E+03  0.41800000000E+01 0. -1.
        -11    1    1    2    0    0  0.38790001962E+02  0.34388313087E+02 -0.16607336119E+02  0.54433665522E+02  0.00000000000E+00 0. -1.
         11    1    1    2    0    0 -0.41806583828E+02  0.33564468661E+02  0.22318215850E+02  0.58072943498E+02  0.00000000000E+00 0.  1.
</event>
<event>
 7    1  0.2820496E-009  0.1244865E+03  0.7561462E-02  0.1235874E+00
         -2   -1    0    0    0  501 -0.00000000000E+00  0.00000000000E+00  0.36655573385E+02  0.36655573385E+02  0.00000000000E+00 0.  1.
          2   -1    0    0  501    0  0.00000000000E+00 -0.00000000000E+00 -0.59245636702E+03  0.59245636702E+03  0.00000000000E+00 0. -1.
         25    2    1    2    0    0  0.50311677530E+02  0.51154367350E+02 -0.44884371110E+03  0.47144034371E+03  0.12508911420E+03 0.  0.
          5    1    3    3  502    0 -0.14047702494E+02 -0.29517988083E+02 -0.18846547687E+03  0.19132526738E+03  0.41800000000E+01 0. -1.
         -5    1    3    3    0  502  0.64359380024E+02  0.80672355433E+02 -0.26037823423E+03  0.28011507633E+03  0.41800000000E+01 0. -1.
        -11    1    1    2    0    0 -0.20909231449E+02 -0.73107289230E+02 -0.88231153109E+02  0.11647578322E+03  0.00000000000E+00 0. -1.
         11    1    1    2    0    0 -0.29402446081E+02  0.21952921880E+02 -0.18725929427E+02  0.41195813471E+02  0.00000000000E+00 0.  1.
</event>
<event>
 7    1  0.2820496E-009  0.1218551E+03  0.7561462E-02  0.1240068E+00
          1   -1    0    0  501    0  0.00000000000E+00  0.00000000000E+00  0.18434755255E+04  0.18434755255E+04  0.00000000000E+00 0. -1.
         -1   -1    0    0    0  501 -0.00000000000E+00 -0.00000000000E+00 -0.10602070307E+02  0.10602070307E+02  0.00000000000E+00 0.  1.
         25    2    1    2    0    0  0.51304727954E+02  0.51899129285E+02  0.13242098380E+04  0.13321051059E+04  0.12508646331E+03 0.  0.
          5    1    3    3  502    0 -0.21328674670E+01  0.71598840219E+02  0.10240870597E+04  0.10265976433E+04  0.41800000000E+01 0. -1.
         -5    1    3    3    0  502  0.53437595421E+02 -0.19699710935E+02  0.30012277835E+03  0.30550746259E+03  0.41800000000E+01 0. -1.
        -11    1    1    2    0    0 -0.40290775436E+02  0.17972125256E+02  0.24740931495E+03  0.25131198339E+03  0.00000000000E+00 0. -1.
         11    1    1    2    0    0 -0.11013952517E+02 -0.69871254540E+02  0.26125430218E+03  0.27066050648E+03  0.00000000000E+00 0.  1.
</event>
<event>
 7    1  0.2820496E-009  0.1244699E+03  0.7561462E-02  0.1235900E+00
         -1   -1    0    0    0  501 -0.00000000000E+00  0.00000000000E+00  0.82706149445E+02  0.82706149445E+02  0.00000000000E+00 0.  1.
          1   -1    0    0  501    0  0.00000000000E+00 -0.00000000000E+00 -0.26461828998E+03  0.26461828998E+03  0.00000000000E+00 0. -1.
         25    2    1    2    0    0 -0.53400502095E+02  0.71260337516E+02 -0.40870734068E+02  0.15890313869E+03  0.12510052460E+03 0.  0.
          5    1    3    3  502    0  0.66198526429E+01  0.67589672695E+02 -0.64883358095E+02  0.94018662306E+02  0.41800000000E+01 0.  1.
         -5    1    3    3    0  502 -0.60020354738E+02  0.36706648212E+01  0.24012624027E+02  0.64884476385E+02  0.41800000000E+01 0.  1.
        -11    1    1    2    0    0 -0.62151860789E+00 -0.66375243545E+02 -0.52693107164E+02  0.84750355655E+02  0.00000000000E+00 0.  1.
         11    1    1    2    0    0  0.54022020703E+02 -0.48850939711E+01 -0.88348299302E+02  0.10367094508E+03  0.00000000000E+00 0. -1.
</event>
<event>
 7    1  0.2820496E-009  0.1242259E+03  0.7561462E-02  0.1236284E+00
          2   -1    0    0  501    0  0.00000000000E+00  0.00000000000E+00  0.79060829987E+03  0.79060829987E+03  0.00000000000E+00 0.  1.
         -2   -1    0    0    0  501 -0.00000000000E+00 -0.00000000000E+00 -0.33024761786E+02  0.33024761786E+02  0.00000000000E+00 0. -1.
         25    2    1    2    0    0 -0.94839201519E+02 -0.52762944016E+02  0.52458615754E+03  0.55009614398E+03  0.12504690531E+03 0.  0.
          5    1    3    3  502    0 -0.28274038446E+02 -0.30715808571E+02  0.43121638953E+03  0.43325273126E+03  0.41800000000E+01 0.  1.
         -5    1    3    3    0  502 -0.66565163073E+02 -0.22047135445E+02  0.93369768013E+02  0.11684341272E+03  0.41800000000E+01 0.  1.
        -11    1    1    2    0    0  0.60073249657E+01  0.46836301821E+02  0.12470768699E+03  0.13334816952E+03  0.00000000000E+00 0.  1.
         11    1    1    2    0    0  0.88831876553E+02  0.59266421947E+01  0.10828969355E+03  0.14018874816E+03  0.00000000000E+00 0. -1.
</event>
<event>
 7    1  0.2820496E-009  0.1313734E+03  0.7561462E-02  0.1225432E+00
         -1   -1    0    0    0  501 -0.00000000000E+00  0.00000000000E+00  0.35360135269E+02  0.35360135269E+02  0.00000000000E+00 0.  1.
          1   -1    0    0  501    0  0.00000000000E+00 -0.00000000000E+00 -0.59539770940E+03  0.59539770940E+03  0.00000000000E+00 0. -1.
         25    2    1    2    0    0  0.33237789907E+02 -0.75491236686E+02 -0.40401451895E+03  0.43090486013E+03  0.12509032526E+03 0.  0.
          5    1    3    3  502    0 -0.32611605477E+02  0.16098757941E+02 -0.11203421266E+03  0.11786358227E+03  0.41800000000E+01 0. -1.
         -5    1    3    3    0  502  0.65849395384E+02 -0.91589994627E+02 -0.29198030628E+03  0.31304127786E+03  0.41800000000E+01 0. -1.
        -11    1    1    2    0    0  0.21205181495E+02  0.47546197723E+02 -0.30832323436E+02  0.60505642783E+02  0.00000000000E+00 0.  1.
         11    1    1    2    0    0 -0.54442971402E+02  0.27945038963E+02 -0.12519073175E+03  0.13934734175E+03  0.00000000000E+00 0. -1.
</event>
<event>
 7    1  0.2820496E-009  0.1518930E+03  0.7561462E-02  0.1198166E+00
          2   -1    0    0  501    0  0.00000000000E+00  0.00000000000E+00  0.98389098726E+03  0.98389098726E+03  0.00000000000E+00 0. -1.
         -2   -1    0    0    0  501 -0.00000000000E+00 -0.00000000000E+00 -0.32595032743E+02  0.32595032743E+02  0.00000000000E+00 0.  1.
         25    2    1    2    0    0  0.13503628192E+03 -0.67886477434E+01  0.59427276547E+03  0.62216385919E+03  0.12508742834E+03 0.  0.
          5    1    3    3  502    0  0.80186380543E+02  0.17584488667E+02  0.12863399823E+03  0.15265401327E+03  0.41800000000E+01 0. -1.
         -5    1    3    3    0  502  0.54849901373E+02 -0.24373136411E+02  0.46563876724E+03  0.46950984592E+03  0.41800000000E+01 0. -1.
        -11    1    1    2    0    0 -0.50435012376E+02  0.45920094579E+02  0.10114391168E+03  0.12199359176E+03  0.00000000000E+00 0. -1.
         11    1    1    2    0    0 -0.84601269540E+02 -0.39131446836E+02  0.25587927737E+03  0.27232856906E+03  0.00000000000E+00 0.  1.
</event>
<event>
 7    1  0.2820496E-009  0.9985261E+02  0.7561462E-02  0.1280606E+00
         -2   -1    0    0    0  501 -0.00000000000E+00  0.00000000000E+00  0.75227898550E+03  0.75227898550E+03  0.00000000000E+00 0.  1.
          2   -1    0    0  501    0  0.00000000000E+00 -0.00000000000E+00 -0.27026023576E+02  0.27026023576E+02  0.00000000000E+00 0. -1.
         25    2    1    2    0    0 -0.43783341551E+02  0.48651750401E+02  0.56008894067E+03  0.57760792651E+03  0.12508925409E+03 0.  0.
          5    1    3    3  502    0 -0.48130344532E+02  0.67850183441E+02  0.19600852616E+03  0.21297181078E+03  0.41800000000E+01 0. -1.
         -5    1    3    3    0  502  0.43470029810E+01 -0.19198433040E+02  0.36408041450E+03  0.36463611573E+03  0.41800000000E+01 0. -1.
        -11    1    1    2    0    0  0.63184323483E+02 -0.41586595812E+02  0.16447847746E+03  0.18103831979E+03  0.00000000000E+00 0.  1.
         11    1    1    2    0    0 -0.19400981932E+02 -0.70651545891E+01  0.68554379726E+00  0.20658762780E+02  0.00000000000E+00 0. -1.
</event>
<event>
 7    1  0.2820496E-009  0.1031796E+03  0.7561462E-02  0.1273748E+00
         -2   -1    0    0    0  501 -0.00000000000E+00  0.00000000000E+00  0.21898041601E+03  0.21898041601E+03  0.00000000000E+00 0.  1.
          2   -1    0    0  501    0  0.00000000000E+00 -0.00000000000E+00 -0.11766212423E+03  0.11766212423E+03  0.00000000000E+00 0. -1.
         25    2    1    2    0    0  0.91711294749E+02 -0.45402945492E+02  0.11496642885E+03  0.19835897757E+03  0.12512639680E+03 0.  0.
          5    1    3    3  502    0  0.56100721880E+02 -0.19877962444E+02 -0.14681012065E+02  0.61444518890E+02  0.41800000000E+01 0.  1.
         -5    1    3    3    0  502  0.35610572869E+02 -0.25524983048E+02  0.12964744091E+03  0.13691445868E+03  0.41800000000E+01 0.  1.
        -11    1    1    2    0    0 -0.80085286333E+02  0.42650172590E+02 -0.47478459831E+02  0.10240553919E+03  0.00000000000E+00 0. -1.
         11    1    1    2    0    0 -0.11626008416E+02  0.27527729024E+01  0.33830322761E+02  0.35878023475E+02  0.00000000000E+00 0.  1.
</event>
<event>
 7    1  0.2820496E-009  0.1082152E+03  0.7561462E-02  0.1263911E+00
          1   -1    0    0  501    0  0.00000000000E+00  0.00000000000E+00  0.16074581423E+03  0.16074581423E+03  0.00000000000E+00 0. -1.
         -1   -1    0    0    0  501 -0.00000000000E+00 -0.00000000000E+00 -0.21683117779E+03  0.21683117779E+03  0.00000000000E+00 0.  1.
         25    2    1    2    0    0  0.70062990390E+02  0.41847686116E+02  0.10055984869E+03  0.18005511887E+03  0.12509001242E+03 0.  0.
          5    1    3    3  502    0 -0.13964091124E+02  0.42786754555E+02  0.82396557883E+02  0.93980675445E+02  0.41800000000E+01 0.  1.
         -5    1    3    3    0  502  0.84027081514E+02 -0.93906843814E+00  0.18163290803E+02  0.86074443420E+02  0.41800000000E+01 0.  1.
        -11    1    1    2    0    0 -0.67794792282E+02 -0.28479915543E+02 -0.16565504139E+03  0.18124246795E+03  0.00000000000E+00 0.  1.
         11    1    1    2    0    0 -0.22681981083E+01 -0.13367770573E+02  0.90098291488E+01  0.16279405212E+02  0.00000000000E+00 0. -1.
</event>
<event>
 7    1  0.2820496E-009  0.1757862E+03  0.7561462E-02  0.1171945E+00
          2   -1    0    0  501    0  0.00000000000E+00  0.00000000000E+00  0.21269195488E+03  0.21269195488E+03  0.00000000000E+00 0. -1.
         -2   -1    0    0    0  501 -0.00000000000E+00 -0.00000000000E+00 -0.23041058002E+03  0.23041058002E+03  0.00000000000E+00 0.  1.
         25    2    1    2    0    0 -0.10606637028E+03 -0.11224676451E+03  0.10425477368E+03  0.22442262363E+03  0.12508814938E+03 0.  0.
          5    1    3    3  502    0  0.16855013239E+02 -0.15562024606E+02  0.56069517429E+02  0.60725046446E+02  0.41800000000E+01 0.  1.
         -5    1    3    3    0  502 -0.12292138352E+03 -0.96684739901E+02  0.48185256250E+02  0.16369757719E+03  0.41800000000E+01 0.  1.
        -11    1    1    2    0    0  0.73364846276E+02  0.11766356614E+03 -0.12323320315E+03  0.18550886185E+03  0.00000000000E+00 0.  1.
         11    1    1    2    0    0  0.32701524008E+02 -0.54168016315E+01  0.12598043413E+01  0.33171049416E+02  0.00000000000E+00 0. -1.
</event>
<event>
 7    1  0.2820496E-009  0.9209385E+02  0.7561462E-02  0.1297859E+00
          2   -1    0    0  501    0  0.00000000000E+00  0.00000000000E+00  0.83705992944E+02  0.83705992944E+02  0.00000000000E+00 0. -1.
         -2   -1    0    0    0  501 -0.00000000000E+00 -0.00000000000E+00 -0.16496547810E+03  0.16496547810E+03  0.00000000000E+00 0.  1.
         25    2    1    2    0    0 -0.39830507645E+02  0.10373703224E+02 -0.30304397482E+02  0.13513694764E+03  0.12509818165E+03 0.  0.
          5    1    3    3  502    0  0.28120236027E+02  0.73425508638E+01 -0.55250413652E+02  0.62567893812E+02  0.41800000000E+01 0. -1.
         -5    1    3    3    0  502 -0.67950743673E+02  0.30311523604E+01  0.24946016170E+02  0.72569053825E+02  0.41800000000E+01 0. -1.
        -11    1    1    2    0    0  0.44885893428E+02  0.24706565326E+02 -0.58009359044E+02  0.77396663596E+02  0.00000000000E+00 0.  1.
         11    1    1    2    0    0 -0.50553857822E+01 -0.35080268550E+02  0.70542713721E+01  0.36137859809E+02  0.00000000000E+00 0. -1.
</event>
<event>
 7    1  0.2820496E-009  0.1383404E+03  0.7561462E-02  0.1215580E+00
          1   -1    0    0  501    0  0.00000000000E+00  0.00000000000E+00  0.55738313411E+03  0.55738313411E+03  0.00000000000E+00 0. -1.
         -1   -1    0    0    0  501 -0.00000000000E+00 -0.00000000000E+00 -0.39146891084E+02  0.39146891084E+02  0.00000000000E+00 0.  1.
         25    2    1    2    0    0 -0.36543885257E+02  0.90517234184E+02  0.24491124016E+03  0.29181569063E+03  0.12508419767E+03 0.  0.
          5    1    3    3  502    0 -0.55032526086E+02 -0.10205144784E+02  0.90146050621E+02  0.10619089768E+03  0.41800000000E+01 0. -1.
         -5    1    3    3    0  502  0.18488640830E+02  0.10072237897E+03  0.15476518953E+03  0.18562479295E+03  0.41800000000E+01 0. -1.
        -11    1    1    2    0    0 -0.16354649209E+02 -0.46349757836E+02  0.46534189402E+02  0.67684602278E+02  0.00000000000E+00 0.  1.
         11    1    1    2    0    0  0.52898534465E+02 -0.44167476348E+02  0.22679081347E+03  0.23702973229E+03  0.00000000000E+00 0. -1.
</event>
<event>
 7    1  0.2820496E-009  0.7466269E+02  0.7561462E-02  0.1344919E+00
         -1   -1    0    0    0  501 -0.00000000000E+00  0.00000000000E+00  0.24455608340E+02  0.24455608340E+02  0.00000000000E+00 0.  1.
          1   -1    0    0  501    0  0.00000000000E+00 -0.00000000000E+00 -0.62303460181E+03  0.62303460181E+03  0.00000000000E+00 0. -1.
         25    2    1    2    0    0  0.94538954723E+01  0.41735882358E+02 -0.48097387878E+03  0.49881715578E+03  0.12510564663E+03 0.  0.
          5    1    3    3  502    0 -0.10490279571E+02  0.38275532313E+02 -0.37180981565E+02  0.54543195080E+02  0.41800000000E+01 0.  1.
         -5    1    3    3    0  502  0.19944175043E+02  0.34603500445E+01 -0.44379289722E+03  0.44427396071E+03  0.41800000000E+01 0.  1.
        -11    1    1    2    0    0  0.34433157078E+02 -0.17932697152E+02 -0.35651118961E+02  0.52708881763E+02  0.00000000000E+00 0.  1.
         11    1    1    2    0    0 -0.43887052550E+02 -0.23803185206E+02 -0.81953995724E+02  0.95964172599E+02  0.00000000000E+00 0. -1.
</event>
<event>
 7    1  0.2820496E-009  0.9708821E+02  0.7561462E-02  0.1286541E+00
         -2   -1    0    0    0  501 -0.00000000000E+00  0.00000000000E+00  0.30967424666E+03  0.30967424666E+03  0.00000000000E+00 0. -1.
          2   -1    0    0  501    0  0.00000000000E+00 -0.00000000000E+00 -0.50421349450E+02  0.50421349450E+02  0.00000000000E+00 0.  1.
         25    2    1    2    0    0  0.67137466443E+02 -0.19398380179E+01  0.13012935195E+03  0.19258984102E+03  0.12508395682E+03 0.  0.
          5    1    3    3  502    0  0.93475581333E+02 -0.25025426067E+01  0.13617233144E+03  0.16524019872E+03  0.41800000000E+01 0.  1.
         -5    1    3    3    0  502 -0.26338114890E+02  0.56270458873E+00 -0.60429794935E+01  0.27349642293E+02  0.41800000000E+01 0.  1.
        -11    1    1    2    0    0 -0.50986351680E+02 -0.12209580774E+02  0.13534963204E+03  0.14514890566E+03  0.00000000000E+00 0. -1.
         11    1    1    2    0    0 -0.16151114763E+02  0.14149418792E+02 -0.62260867730E+01  0.22356849437E+02  0.00000000000E+00 0.  1.
</event>
<event>
 7    1  0.2820496E-009  0.8108741E+02  0.7561462E-02  0.1325994E+00
          1   -1    0    0  501    0  0.00000000000E+00  0.00000000000E+00  0.22254841367E+03  0.22254841367E+03  0.00000000000E+00 0. -1.
         -1   -1    0    0    0  501 -0.00000000000E+00 -0.00000000000E+00 -0.63249607089E+02  0.63249607089E+02  0.00000000000E+00 0.  1.
         25    2    1    2    0    0 -0.31641879244E+02  0.12534582661E+02  0.13023477757E+03  0.18375696693E+03  0.12508877376E+03 0.  0.
          5    1    3    3  502    0 -0.42810021055E+01  0.52167226116E+02  0.90461459000E+01  0.53282751574E+02  0.41800000000E+01 0. -1.
         -5    1    3    3    0  502 -0.27360877139E+02 -0.39632643455E+02  0.12118863167E+03  0.13047421535E+03  0.41800000000E+01 0. -1.
        -11    1    1    2    0    0  0.23456407098E+02  0.18092101978E+02 -0.25400640081E+02  0.39022041265E+02  0.00000000000E+00 0.  1.
         11    1    1    2    0    0  0.81854721459E+01 -0.30626684639E+02  0.54464669093E+02  0.63019012573E+02  0.00000000000E+00 0. -1.
</event>
<event>
 7    1  0.2820496E-009  0.1013479E+03  0.7561462E-02  0.1277487E+00
         -3   -1    0    0    0  501 -0.00000000000E+00  0.00000000000E+00  0.25923906805E+03  0.25923906805E+03  0.00000000000E+00 0. -1.
          3   -1    0    0  501    0  0.00000000000E+00 -0.00000000000E+00 -0.62652490999E+02  0.62652490999E+02  0.00000000000E+00 0.  1.
         25    2    1    2    0    0 -0.54336618460E+02 -0.86384125239E+00  0.59034617365E+02  0.14860967851E+03  0.12508611503E+03 0.  0.
          5    1    3    3  502    0 -0.65893339415E+00  0.34807302625E+02  0.74376886489E+02  0.82227587542E+02  0.41800000000E+01 0. -1.
         -5    1    3    3    0  502 -0.53677685066E+02 -0.35671143877E+02 -0.15342269124E+02  0.66382090969E+02  0.41800000000E+01 0. -1.
        -11    1    1    2    0    0 -0.79189989661E+01 -0.31780402089E+02  0.61776613902E+02  0.69921774339E+02  0.00000000000E+00 0.  1.
         11    1    1    2    0    0  0.62255617426E+02  0.32644243341E+02  0.75775345782E+02  0.10336010620E+03  0.00000000000E+00 0. -1.
</event>
<event>
 7    1  0.2820496E-009  0.9051523E+02  0.7561462E-02  0.1301609E+00
         -1   -1    0    0    0  501 -0.00000000000E+00  0.00000000000E+00  0.22549711336E+02  0.22549711336E+02  0.00000000000E+00 0.  1.
          1   -1    0    0  501    0  0.00000000000E+00 -0.00000000000E+00 -0.55565412565E+03  0.55565412565E+03  0.00000000000E+00 0. -1.
         25    2    1    2    0    0 -0.24965385551E+02 -0.82049300727E+01 -0.32929839438E+03  0.35322531208E+03  0.12506037424E+03 0.  0.
          5    1    3    3  502    0  0.51215702378E+01  0.33833427142E+02 -0.20513225696E+02  0.40114786579E+02  0.41800000000E+01 0.  1.
         -5    1    3    3    0  502 -0.30086955789E+02 -0.42038357214E+02 -0.30878516868E+03  0.31311052551E+03  0.41800000000E+01 0.  1.
        -11    1    1    2    0    0 -0.27578806200E+02 -0.20920917525E+02 -0.86865851887E+02  0.93509098838E+02  0.00000000000E+00 0.  1.
         11    1    1    2    0    0  0.52544191751E+02  0.29125847598E+02 -0.11694016805E+03  0.13146942606E+03  0.00000000000E+00 0. -1.
</event>
<event>
 7    1  0.2820496E-009  0.3329987E+03  0.7561462E-02  0.1069818E+00
          2   -1    0    0  501    0  0.00000000000E+00  0.00000000000E+00  0.97036683296E+03  0.97036683296E+03  0.00000000000E+00 0. -1.
         -2   -1    0    0    0  501 -0.00000000000E+00 -0.00000000000E+00 -0.14852067002E+03  0.14852067002E+03  0.00000000000E+00 0.  1.
         25    2    1    2    0    0 -0.31941577854E+03 -0.61987173067E+02  0.65452819171E+03  0.74156807165E+03  0.12508877627E+03 0.  0.
          5    1    3    3  502    0 -0.16835534926E+03 -0.79483884746E+02  0.26954272692E+03  0.32761557593E+03  0.41800000000E+01 0.  1.
         -5    1    3    3    0  502 -0.15106042928E+03  0.17496711679E+02  0.38498546479E+03  0.41395249572E+03  0.41800000000E+01 0.  1.
        -11    1    1    2    0    0  0.20560012998E+03  0.58572764878E+02  0.62945413524E+02  0.22285490193E+03  0.00000000000E+00 0. -1.
         11    1    1    2    0    0  0.11381564856E+03  0.34144081888E+01  0.10437255770E+03  0.15446452939E+03  0.00000000000E+00 0.  1.
</event>
<event>
 7    1  0.2820496E-009  0.1533786E+03  0.7561462E-02  0.1196382E+00
         -1   -1    0    0    0  501 -0.00000000000E+00  0.00000000000E+00  0.28593081546E+03  0.28593081546E+03  0.00000000000E+00 0.  1.
          1   -1    0    0  501    0  0.00000000000E+00 -0.00000000000E+00 -0.95218562976E+02  0.95218562976E+02  0.00000000000E+00 0. -1.
         25    2    1    2    0    0 -0.82795234431E+02 -0.90676817896E+02  0.84323073883E+02  0.19451549872E+03  0.12509421372E+03 0.  0.
          5    1    3    3  502    0 -0.93041012629E+01  0.26872144993E+02 -0.55148318763E+01  0.29267118879E+02  0.41800000000E+01 0.  1.
         -5    1    3    3    0  502 -0.73491133168E+02 -0.11754896289E+03  0.89837905759E+02  0.16524837985E+03  0.41800000000E+01 0.  1.
        -11    1    1    2    0    0  0.38245547448E+02 -0.49797706830E-01  0.68953139372E+02  0.78849602463E+02  0.00000000000E+00 0.  1.
         11    1    1    2    0    0  0.44549686983E+02  0.90726615603E+02  0.37436039231E+02  0.10778427725E+03  0.00000000000E+00 0. -1.
</event>
<event>
 7    1  0.2820496E-009  0.1097551E+03  0.7561462E-02  0.1261024E+00
         -1   -1    0    0    0  501 -0.00000000000E+00  0.00000000000E+00  0.24562319607E+03  0.24562319607E+03  0.00000000000E+00 0.  1.
          1   -1    0    0  501    0  0.00000000000E+00 -0.00000000000E+00 -0.61245575206E+02  0.61245575206E+02  0.00000000000E+00 0. -1.
         25    2    1    2    0    0 -0.11714223422E+02  0.55701122855E+02  0.11649102778E+03  0.18016064361E+03  0.12509140592E+03 0.  0.
          5    1    3    3  502    0  0.39978592149E+02 -0.59554369692E+01  0.83953785636E+02  0.93270925708E+02  0.41800000000E+01 0.  1.
         -5    1    3    3    0  502 -0.51692815571E+02  0.61656559824E+02  0.32537242146E+02  0.86889717904E+02  0.41800000000E+01 0.  1.
        -11    1    1    2    0    0  0.24754190976E+01  0.20952777025E+02  0.38870062729E+02  0.44227009184E+02  0.00000000000E+00 0.  1.
         11    1    1    2    0    0  0.92388043248E+01 -0.76653899880E+02  0.29016530354E+02  0.82481118482E+02  0.00000000000E+00 0. -1.
</event>
<event>
 7    1  0.2820496E-009  0.1184845E+03  0.7561462E-02  0.1245618E+00
         -1   -1    0    0    0  501 -0.00000000000E+00  0.00000000000E+00  0.18759525521E+03  0.18759525521E+03  0.00000000000E+00 0.  1.
          1   -1    0    0  501    0  0.00000000000E+00 -0.00000000000E+00 -0.14778284866E+03  0.14778284866E+03  0.00000000000E+00 0. -1.
         25    2    1    2    0    0  0.75725364719E+02 -0.27216207986E+02  0.11997145937E+03  0.19109082309E+03  0.12508996270E+03 0.  0.
          5    1    3    3  502    0  0.78311395740E+02  0.11208815804E+02  0.12893654812E+03  0.15132884092E+03  0.41800000000E+01 0. -1.
         -5    1    3    3    0  502 -0.25860310212E+01 -0.38425023790E+02 -0.89650887505E+01  0.39761982169E+02  0.41800000000E+01 0. -1.
        -11    1    1    2    0    0 -0.91477582495E+02  0.38893588838E+02 -0.73329033527E+02  0.12352330351E+03  0.00000000000E+00 0.  1.
         11    1    1    2    0    0  0.15752217776E+02 -0.11677380853E+02 -0.68300192939E+01  0.20763977268E+02  0.00000000000E+00 0. -1.
</event>
<event>
 7    1  0.2820496E-009  0.2134069E+03  0.7561462E-02  0.1138896E+00
          2   -1    0    0  501    0  0.00000000000E+00  0.00000000000E+00  0.25515178873E+03  0.25515178873E+03  0.00000000000E+00 0. -1.
         -2   -1    0    0    0  501 -0.00000000000E+00 -0.00000000000E+00 -0.23464903172E+03  0.23464903172E+03  0.00000000000E+00 0.  1.
         25    2    1    2    0    0 -0.75611514091E+02 -0.18193815077E+03 -0.85529223921E+02  0.24855857739E+03  0.12509007346E+03 0.  0.
          5    1    3    3  502    0  0.88749142972E+01 -0.12652248735E+03 -0.73681169560E+02  0.14674157917E+03  0.41800000000E+01 0.  1.
         -5    1    3    3    0  502 -0.84486428388E+02 -0.55415663424E+02 -0.11848054361E+02  0.10181699822E+03  0.41800000000E+01 0.  1.
        -11    1    1    2    0    0  0.93734508214E+01  0.53070924147E+02 -0.10981013784E+02  0.54999702125E+02  0.00000000000E+00 0.  1.
         11    1    1    2    0    0  0.66238063270E+02  0.12886722663E+03  0.11701299471E+03  0.18624254094E+03  0.00000000000E+00 0. -1.
</event>
<event>
 7    1  0.3180822E-009  0.1236189E+03  0.7561462E-02  0.1237244E+00
         -1   -1    0    0    0  501 -0.00000000000E+00  0.00000000000E+00  0.41920634657E+02  0.41920634657E+02  0.00000000000E+00 0.  1.
          1   -1    0    0  501    0  0.00000000000E+00 -0.00000000000E+00 -0.55607977398E+03  0.55607977398E+03  0.00000000000E+00 0. -1.
         25    2    1    2    0    0  0.33864503989E+02 -0.99632821949E+02 -0.24096504177E+03  0.29117961425E+03  0.12509161666E+03 0.  0.
          5    1    3    3  502    0  0.36583572444E+02 -0.43464754395E+02 -0.15877656667E+02  0.59136410346E+02  0.41800000000E+01 0. -1.
         -5    1    3    3    0  502 -0.27190684546E+01 -0.56168067554E+02 -0.22508738510E+03  0.23204320390E+03  0.41800000000E+01 0. -1.
        -11    1    1    2    0    0 -0.46207452630E+02  0.15332884913E+02 -0.60226046035E+02  0.77442899347E+02  0.00000000000E+00 0.  1.
         11    1    1    2    0    0  0.12342948640E+02  0.84299937036E+02 -0.21296805152E+03  0.22937789504E+03  0.00000000000E+00 0. -1.
</event>
<event>
 7    1  0.2820496E-009  0.1444778E+03  0.7561462E-02  0.1207428E+00
          2   -1    0    0  501    0  0.00000000000E+00  0.00000000000E+00  0.77890442497E+03  0.77890442497E+03  0.00000000000E+00 0. -1.
         -2   -1    0    0    0  501 -0.00000000000E+00 -0.00000000000E+00 -0.40838293415E+02  0.40838293415E+02  0.00000000000E+00 0.  1.
         25    2    1    2    0    0  0.19721706804E+02  0.12831212014E+03  0.50645975827E+03  0.53758921607E+03  0.12509089733E+03 0.  0.
          5    1    3    3  502    0  0.14875748394E+02  0.77853932831E+02  0.46568424429E+03  0.47240005348E+03  0.41800000000E+01 0. -1.
         -5    1    3    3    0  502  0.48459584096E+01  0.50458187305E+02  0.40775513982E+02  0.65189162593E+02  0.41800000000E+01 0. -1.
        -11    1    1    2    0    0  0.10707317119E+02 -0.12784035179E+03  0.20444957717E+03  0.24136576350E+03  0.00000000000E+00 0. -1.
         11    1    1    2    0    0 -0.30429023923E+02 -0.47176834600E+00  0.27156796117E+02  0.40787738815E+02  0.00000000000E+00 0.  1.
</event>
<event>
 7    1  0.2820496E-009  0.1212034E+03  0.7561462E-02  0.1241125E+00
          2   -1    0    0  501    0  0.00000000000E+00  0.00000000000E+00  0.60785369079E+03  0.60785369079E+03  0.00000000000E+00 0. -1.
         -2   -1    0    0    0  501 -0.00000000000E+00 -0.00000000000E+00 -0.31684583858E+02  0.31684583858E+02  0.00000000000E+00 0.  1.
         25    2    1    2    0    0 -0.71896697771E+02  0.49416767095E+02  0.33474407874E+03  0.36784766510E+03  0.12508858640E+03 0.  0.
          5    1    3    3  502    0 -0.38036916502E+02 -0.40366547705E+02  0.14182134411E+03  0.15233854153E+03  0.41800000000E+01 0. -1.
         -5    1    3    3    0  502 -0.33859781269E+02  0.89783314800E+02  0.19292273463E+03  0.21550912357E+03  0.41800000000E+01 0. -1.
        -11    1    1    2    0    0  0.46641771349E+02 -0.45541461497E+02  0.23694704248E+03  0.24575064697E+03  0.00000000000E+00 0. -1.
         11    1    1    2    0    0  0.25254926422E+02 -0.38753055980E+01  0.44779857093E+01  0.25939962569E+02  0.00000000000E+00 0.  1.
</event>
<event>
 7    1  0.3207923E-009  0.1528439E+03  0.7561462E-02  0.1197021E+00
          3   -1    0    0  501    0  0.00000000000E+00  0.00000000000E+00  0.46620864503E+02  0.46620864503E+02  0.00000000000E+00 0. -1.
         -3   -1    0    0    0  501 -0.00000000000E+00 -0.00000000000E+00 -0.59998773969E+03  0.59998773969E+03  0.00000000000E+00 0.  1.
         25    2    1    2    0    0 -0.33152133022E+02  0.11324968048E+03 -0.20445262190E+03  0.26715699347E+03  0.12508968984E+03 0.  0.
          5    1    3    3  502    0 -0.41266136568E+02  0.13476062681E+03 -0.14041995726E+03  0.19899386262E+03  0.41800000000E+01 0.  1.
         -5    1    3    3    0  502  0.81140035460E+01 -0.21510946329E+02 -0.64032664640E+02  0.68163130844E+02  0.41800000000E+01 0.  1.
        -11    1    1    2    0    0 -0.20040092490E+02 -0.69857466562E+02 -0.23952037332E+03  0.25030317652E+03  0.00000000000E+00 0.  1.
         11    1    1    2    0    0  0.53192225512E+02 -0.43392213916E+02 -0.10939387997E+03  0.12914843421E+03  0.00000000000E+00 0. -1.
</event>
<event>
 7    1  0.2820496E-009  0.1765257E+03  0.7561462E-02  0.1171209E+00
          1   -1    0    0  501    0  0.00000000000E+00  0.00000000000E+00  0.52598165397E+03  0.52598165397E+03  0.00000000000E+00 0. -1.
         -1   -1    0    0    0  501 -0.00000000000E+00 -0.00000000000E+00 -0.66319328138E+02  0.66319328138E+02  0.00000000000E+00 0.  1.
         25    2    1    2    0    0  0.64051468419E+02  0.13136152553E+03  0.17034040325E+03  0.25694681233E+03  0.12508944957E+03 0.  0.
          5    1    3    3  502    0  0.25212490764E+02 -0.17877029532E+02  0.64033275219E+01  0.31839172081E+02  0.41800000000E+01 0. -1.
         -5    1    3    3    0  502  0.38838977655E+02  0.14923855506E+03  0.16393707573E+03  0.22510764025E+03  0.41800000000E+01 0. -1.
        -11    1    1    2    0    0 -0.28684108755E+02  0.28291407037E+01  0.32520742804E+02  0.43455504193E+02  0.00000000000E+00 0.  1.
         11    1    1    2    0    0 -0.35367359664E+02 -0.13419066623E+03  0.25680117978E+03  0.29189866558E+03  0.00000000000E+00 0. -1.
</event>
<event>
 7    1  0.2820496E-009  0.1083703E+03  0.7561462E-02  0.1263618E+00
          1   -1    0    0  501    0  0.00000000000E+00  0.00000000000E+00  0.17142456373E+03  0.17142456373E+03  0.00000000000E+00 0. -1.
         -1   -1    0    0    0  501 -0.00000000000E+00 -0.00000000000E+00 -0.80314823094E+02  0.80314823094E+02  0.00000000000E+00 0.  1.
         25    2    1    2    0    0  0.21955267598E+02 -0.30852356726E+01  0.59044570183E+02  0.14008398101E+03  0.12508280463E+03 0.  0.
          5    1    3    3  502    0  0.73506202880E+02 -0.65600206771E+01  0.24838091796E+02  0.77978195267E+02  0.41800000000E+01 0.  1.
         -5    1    3    3    0  502 -0.51550935282E+02  0.34747850045E+01  0.34206478388E+02  0.62105785744E+02  0.41800000000E+01 0.  1.
        -11    1    1    2    0    0  0.88234648586E+01  0.41121698578E+02  0.44438909560E+02  0.61185491000E+02  0.00000000000E+00 0.  1.
         11    1    1    2    0    0 -0.30778732457E+02 -0.38036462905E+02 -0.12373739104E+02  0.50469914815E+02  0.00000000000E+00 0. -1.
</event>
<event>
 7    1  0.2820496E-009  0.1559053E+03  0.7561462E-02  0.1193399E+00
          1   -1    0    0  501    0  0.00000000000E+00  0.00000000000E+00  0.13119283992E+02  0.13119283992E+02  0.00000000000E+00 0. -1.
         -1   -1    0    0    0  501 -0.00000000000E+00 -0.00000000000E+00 -0.23851624676E+04  0.23851624676E+04  0.00000000000E+00 0.  1.
         25    2    1    2    0    0 -0.97223920458E+02  0.85776236791E+02 -0.15881405548E+04  0.15983268384E+04  0.12509279472E+03 0.  0.
          5    1    3    3  502    0  0.12401711068E+02  0.30319749625E+02 -0.10429808806E+03  0.10940134016E+03  0.41800000000E+01 0.  1.
         -5    1    3    3    0  502 -0.10962563153E+03  0.55456487166E+02 -0.14838424667E+04  0.14889254983E+04  0.41800000000E+01 0.  1.
        -11    1    1    2    0    0  0.10287612719E+03 -0.41024703094E+02 -0.62659350574E+03  0.63630648688E+03  0.00000000000E+00 0.  1.
         11    1    1    2    0    0 -0.56522067281E+01 -0.44751533698E+02 -0.15730912309E+03  0.16364842626E+03  0.00000000000E+00 0. -1.
</event>
<event>
 7    1  0.2820496E-009  0.9287627E+02  0.7561462E-02  0.1296032E+00
          1   -1    0    0  501    0  0.00000000000E+00  0.00000000000E+00  0.86193366351E+03  0.86193366351E+03  0.00000000000E+00 0. -1.
         -1   -1    0    0    0  501 -0.00000000000E+00 -0.00000000000E+00 -0.14396931927E+02  0.14396931927E+02  0.00000000000E+00 0.  1.
         25    2    1    2    0    0 -0.93508500100E+01 -0.23467451962E+02  0.43099901385E+03  0.44949513734E+03  0.12509024286E+03 0.  0.
          5    1    3    3  502    0  0.35665878373E+02  0.10830931579E+02  0.41720359065E+02  0.56101913688E+02  0.41800000000E+01 0.  1.
         -5    1    3    3    0  502 -0.45016728383E+02 -0.34298383541E+02  0.38927865478E+03  0.39339322366E+03  0.41800000000E+01 0.  1.
        -11    1    1    2    0    0 -0.37417625532E+02 -0.33799399780E+01  0.13247904919E+03  0.13770330849E+03  0.00000000000E+00 0.  1.
         11    1    1    2    0    0  0.46768475542E+02  0.26847391940E+02  0.28405866854E+03  0.28913214960E+03  0.00000000000E+00 0. -1.
</event>
<event>
 7    1  0.2820496E-009  0.1318810E+03  0.7561462E-02  0.1224691E+00
         -1   -1    0    0    0  501 -0.00000000000E+00  0.00000000000E+00  0.74765546660E+03  0.74765546660E+03  0.00000000000E+00 0.  1.
          1   -1    0    0  501    0  0.00000000000E+00 -0.00000000000E+00 -0.28574760760E+02  0.28574760760E+02  0.00000000000E+00 0. -1.
         25    2    1    2    0    0 -0.79445368778E+02 -0.48108675961E+02  0.31226179381E+03  0.34897090599E+03  0.12508898444E+03 0.  0.
          5    1    3    3  502    0  0.18360774724E+02 -0.27236310816E+02  0.17035117819E+02  0.37237109372E+02  0.41800000000E+01 0.  1.
         -5    1    3    3    0  502 -0.97806143502E+02 -0.20872365145E+02  0.29522667600E+03  0.31173379662E+03  0.41800000000E+01 0.  1.
        -11    1    1    2    0    0  0.11120327124E+02  0.60155933159E+02  0.18716208795E+03  0.19690618359E+03  0.00000000000E+00 0.  1.
         11    1    1    2    0    0  0.68325041654E+02 -0.12047257198E+02  0.21965682408E+03  0.23035313778E+03  0.00000000000E+00 0. -1.
</event>
<event>
 7    1  0.2820496E-009  0.1042286E+03  0.7561462E-02  0.1271647E+00
          3   -1    0    0  501    0  0.00000000000E+00  0.00000000000E+00  0.88062579825E+02  0.88062579825E+02  0.00000000000E+00 0. -1.
         -3   -1    0    0    0  501 -0.00000000000E+00 -0.00000000000E+00 -0.18741746712E+03  0.18741746712E+03  0.00000000000E+00 0.  1.
         25    2    1    2    0    0  0.16546546430E+02 -0.33502302701E+02  0.65395012161E+01  0.13072496283E+03  0.12510019323E+03 0.  0.
          5    1    3    3  502    0  0.38055273981E+02  0.27197445528E+02 -0.30806664987E+02  0.56164294072E+02  0.41800000000E+01 0. -1.
         -5    1    3    3    0  502 -0.21508727551E+02 -0.60699748229E+02  0.37346166203E+02  0.74560668760E+02  0.41800000000E+01 0. -1.
        -11    1    1    2    0    0  0.31257011594E+02  0.37702972124E+02 -0.66963326504E+02  0.82961448741E+02  0.00000000000E+00 0.  1.
         11    1    1    2    0    0 -0.47803558024E+02 -0.42006694227E+01 -0.38931062005E+02  0.61793635370E+02  0.00000000000E+00 0. -1.
</event>
<event>
 7    1  0.2820496E-009  0.1108442E+03  0.7561462E-02  0.1259015E+00
          2   -1    0    0  501    0  0.00000000000E+00  0.00000000000E+00  0.33171724946E+03  0.33171724946E+03  0.00000000000E+00 0. -1.
         -2   -1    0    0    0  501 -0.00000000000E+00 -0.00000000000E+00 -0.42650984869E+02  0.42650984869E+02  0.00000000000E+00 0.  1.
         25    2    1    2    0    0  0.41277432171E+02  0.26572653358E+02  0.16637452422E+03  0.21386321124E+03  0.12508820288E+03 0.  0.
          5    1    3    3  502    0  0.80123297398E+02  0.37790624711E+01  0.66698551557E+02  0.10440399072E+03  0.41800000000E+01 0. -1.
         -5    1    3    3    0  502 -0.38845865227E+02  0.22793590886E+02  0.99675972660E+02  0.10945922052E+03  0.41800000000E+01 0. -1.
        -11    1    1    2    0    0 -0.42961331800E+02 -0.53803565167E+02  0.57038465874E+02  0.89408535633E+02  0.00000000000E+00 0. -1.
         11    1    1    2    0    0  0.16838996293E+01  0.27230911810E+02  0.65653274496E+02  0.71096487452E+02  0.00000000000E+00 0.  1.
</event>
<event>
 7    1  0.2820496E-009  0.1490763E+03  0.7561462E-02  0.1201613E+00
          2   -1    0    0  501    0  0.00000000000E+00  0.00000000000E+00  0.20994415635E+04  0.20994415635E+04  0.00000000000E+00 0.  1.
         -2   -1    0    0    0  501 -0.00000000000E+00 -0.00000000000E+00 -0.15438320378E+02  0.15438320378E+02  0.00000000000E+00 0. -1.
         25    2    1    2    0    0 -0.10677885111E+03  0.54710533957E+02  0.15644100899E+04  0.15739825848E+04  0.12508909811E+03 0.  0.
          5    1    3    3  502    0 -0.72396129854E+02 -0.32334158210E+02  0.75957632721E+03  0.76371484643E+03  0.41800000000E+01 0. -1.
         -5    1    3    3    0  502 -0.34382721253E+02  0.87044692167E+02  0.80483376266E+03  0.81026773839E+03  0.41800000000E+01 0. -1.
        -11    1    1    2    0    0  0.80200790681E+02 -0.22472093109E+02  0.46366082521E+03  0.47108228860E+03  0.00000000000E+00 0.  1.
         11    1    1    2    0    0  0.26578060427E+02 -0.32238440847E+02  0.55932327998E+02  0.69815010417E+02  0.00000000000E+00 0. -1.
</event>
<event>
 7    1  0.2820496E-009  0.8195187E+02  0.7561462E-02  0.1323602E+00
          3   -1    0    0  501    0  0.00000000000E+00  0.00000000000E+00  0.73303230092E+02  0.73303230092E+02  0.00000000000E+00 0. -1.
         -3   -1    0    0    0  501 -0.00000000000E+00 -0.00000000000E+00 -0.22216366656E+03  0.22216366656E+03  0.00000000000E+00 0.  1.
         25    2    1    2    0    0 -0.61999801432E+02 -0.22059515557E+02 -0.98430919392E+02  0.17224430162E+03  0.12509538738E+03 0.  0.
          5    1    3    3  502    0 -0.60225438541E+02 -0.35536520432E+01  0.10741571236E+02  0.61421377736E+02  0.41800000000E+01 0. -1.
         -5    1    3    3    0  502 -0.17743628907E+01 -0.18505863514E+02 -0.10917249063E+03  0.11082292388E+03  0.41800000000E+01 0. -1.
        -11    1    1    2    0    0  0.52210165251E+02  0.38753737128E+02 -0.70110667124E+02  0.95620390825E+02  0.00000000000E+00 0.  1.
         11    1    1    2    0    0  0.97896361812E+01 -0.16694221571E+02  0.19681150043E+02  0.27602204214E+02  0.00000000000E+00 0. -1.
</event>
<event>
 7    1  0.3423530E-009  0.1766679E+03  0.7561462E-02  0.1171067E+00
          1   -1    0    0  501    0  0.00000000000E+00  0.00000000000E+00  0.10723343358E+04  0.10723343358E+04  0.00000000000E+00 0. -1.
         -1   -1    0    0    0  501 -0.00000000000E+00 -0.00000000000E+00 -0.32305854986E+02  0.32305854986E+02  0.00000000000E+00 0.  1.
         25    2    1    2    0    0  0.13236506160E+03  0.70710594110E+02  0.50675387260E+03  0.54311846905E+03  0.12513067721E+03 0.  0.
          5    1    3    3  502    0  0.13426794166E+03  0.10896391365E+02  0.32994492999E+03  0.35640951268E+03  0.41800000000E+01 0. -1.
         -5    1    3    3    0  502 -0.19028800606E+01  0.59814202745E+02  0.17680894261E+03  0.18670895638E+03  0.41800000000E+01 0. -1.
        -11    1    1    2    0    0 -0.41953872731E+02  0.27993858135E+01  0.54854564025E+02  0.69115752130E+02  0.00000000000E+00 0.  1.
         11    1    1    2    0    0 -0.90411188868E+02 -0.73509979923E+02  0.47842004418E+03  0.49240596960E+03  0.00000000000E+00 0. -1.
</event>
<event>
 7    1  0.2820496E-009  0.1649356E+03  0.7561462E-02  0.1183235E+00
         -1   -1    0    0    0  501 -0.00000000000E+00  0.00000000000E+00  0.77107573830E+03  0.77107573830E+03  0.00000000000E+00 0.  1.
          1   -1    0    0  501    0  0.00000000000E+00 -0.00000000000E+00 -0.40979617822E+02  0.40979617822E+02  0.00000000000E+00 0. -1.
         25    2    1    2    0    0 -0.17380021108E+02  0.13935392134E+03  0.40413867865E+03  0.44575986014E+03  0.12510875591E+03 0.  0.
          5    1    3    3  502    0 -0.52079342902E+02  0.91456226556E+02  0.34987066544E+03  0.36538124510E+03  0.41800000000E+01 0. -1.
         -5    1    3    3    0  502  0.34699321793E+02  0.47897694787E+02  0.54268013207E+02  0.80378615043E+02  0.41800000000E+01 0. -1.
        -11    1    1    2    0    0  0.38052197739E+02 -0.13947987290E+03  0.30074316067E+03  0.33369005587E+03  0.00000000000E+00 0.  1.
         11    1    1    2    0    0 -0.20672176631E+02  0.12595155895E+00  0.25214281164E+02  0.32605440115E+02  0.00000000000E+00 0. -1.
</event>
<event>
 7    1  0.2820496E-009  0.1174502E+03  0.7561462E-02  0.1247364E+00
          1   -1    0    0  501    0  0.00000000000E+00  0.00000000000E+00  0.33353570117E+03  0.33353570117E+03  0.00000000000E+00 0. -1.
         -1   -1    0    0    0  501 -0.00000000000E+00 -0.00000000000E+00 -0.43376219424E+02  0.43376219424E+02  0.00000000000E+00 0.  1.
         25    2    1    2    0    0  0.48379411243E+02  0.15083448106E+02  0.17764710660E+03  0.22310075106E+03  0.12508945920E+03 0.  0.
          5    1    3    3  502    0  0.88257435053E+02 -0.26647537112E+01  0.13858116990E+03  0.16437362563E+03  0.41800000000E+01 0.  1.
         -5    1    3    3    0  502 -0.39878023810E+02  0.17748201817E+02  0.39065936703E+02  0.58727125430E+02  0.41800000000E+01 0.  1.
        -11    1    1    2    0    0  0.11814541864E+02 -0.36810394609E+02  0.27678921506E+02  0.47546937298E+02  0.00000000000E+00 0.  1.
         11    1    1    2    0    0 -0.60193953107E+02  0.21726946503E+02  0.84833453638E+02  0.10626423223E+03  0.00000000000E+00 0. -1.
</event>
<event>
 7    1  0.2820496E-009  0.1924475E+03  0.7561462E-02  0.1156272E+00
          2   -1    0    0  501    0  0.00000000000E+00  0.00000000000E+00  0.79658481812E+03  0.79658481812E+03  0.00000000000E+00 0. -1.
         -2   -1    0    0    0  501 -0.00000000000E+00 -0.00000000000E+00 -0.57321814280E+02  0.57321814280E+02  0.00000000000E+00 0.  1.
         25    2    1    2    0    0  0.13771967046E+03  0.82174796941E+02  0.56587226525E+03  0.60131354726E+03  0.12508859523E+03 0.  0.
          5    1    3    3  502    0  0.40959018418E+01  0.67577409668E+02  0.16155468515E+03  0.17521664134E+03  0.41800000000E+01 0.  1.
         -5    1    3    3    0  502  0.13362376862E+03  0.14597387273E+02  0.40431758010E+03  0.42609690592E+03  0.41800000000E+01 0.  1.
        -11    1    1    2    0    0 -0.11313854992E+03 -0.18909175897E+02  0.12201661370E+03  0.16746922831E+03  0.00000000000E+00 0. -1.
         11    1    1    2    0    0 -0.24581120539E+02 -0.63265621045E+02  0.51374124893E+02  0.85123856830E+02  0.00000000000E+00 0.  1.
</event>
<event>
 7    1  0.2820496E-009  0.1713453E+03  0.7561462E-02  0.1176452E+00
          1   -1    0    0  501    0  0.00000000000E+00  0.00000000000E+00  0.66721837414E+02  0.66721837414E+02  0.00000000000E+00 0. -1.
         -1   -1    0    0    0  501 -0.00000000000E+00 -0.00000000000E+00 -0.51527122475E+03  0.51527122475E+03  0.00000000000E+00 0.  1.
         25    2    1    2    0    0  0.14518907310E+03  0.29205404516E+02 -0.19890252143E+03  0.27774512108E+03  0.12508923476E+03 0.  0.
          5    1    3    3  502    0  0.56228892411E+02  0.61874387783E+02 -0.40225095713E+02  0.92874425599E+02  0.41800000000E+01 0.  1.
         -5    1    3    3    0  502  0.88960180691E+02 -0.32668983268E+02 -0.15867742572E+03  0.18487069548E+03  0.41800000000E+01 0.  1.
        -11    1    1    2    0    0  0.71172582088E+01 -0.73853380790E+01 -0.55929126160E+02  0.56861812634E+02  0.00000000000E+00 0.  1.
         11    1    1    2    0    0 -0.15230633131E+03 -0.21820066437E+02 -0.19371773975E+03  0.24738612845E+03  0.00000000000E+00 0. -1.
</event>
<event>
 7    1  0.2820496E-009  0.1616436E+03  0.7561462E-02  0.1186854E+00
          3   -1    0    0  501    0  0.00000000000E+00  0.00000000000E+00  0.10376036119E+04  0.10376036119E+04  0.00000000000E+00 0. -1.
         -3   -1    0    0    0  501 -0.00000000000E+00 -0.00000000000E+00 -0.47751153450E+02  0.47751153450E+02  0.00000000000E+00 0.  1.
         25    2    1    2    0    0  0.13132427656E+03 -0.56869902192E+02  0.83285997253E+03  0.85427766264E+03  0.12511730357E+03 0.  0.
          5    1    3    3  502    0  0.73131537263E+02 -0.12838758482E+01  0.15275133596E+03  0.16941166759E+03  0.41800000000E+01 0. -1.
         -5    1    3    3    0  502  0.58192739297E+02 -0.55586026344E+02  0.68010863657E+03  0.68486599505E+03  0.41800000000E+01 0. -1.
        -11    1    1    2    0    0 -0.11922230427E+02 -0.22918774997E+02  0.20929865343E+02  0.33248595294E+02  0.00000000000E+00 0. -1.
         11    1    1    2    0    0 -0.11940204613E+03  0.79788677189E+02  0.13606262057E+03  0.19782850742E+03  0.00000000000E+00 0.  1.
</event>
<event>
 7    1  0.2820496E-009  0.1446214E+03  0.7561462E-02  0.1207242E+00
          1   -1    0    0  501    0  0.00000000000E+00  0.00000000000E+00  0.16447118789E+03  0.16447118789E+03  0.00000000000E+00 0. -1.
         -1   -1    0    0    0  501 -0.00000000000E+00 -0.00000000000E+00 -0.22692811383E+03  0.22692811383E+03  0.00000000000E+00 0.  1.
         25    2    1    2    0    0  0.47597305057E+01  0.10757857715E+03 -0.15157137776E+03  0.22409088753E+03  0.12508812103E+03 0.  0.
          5    1    3    3  502    0  0.57617773857E+02  0.45732648871E+02 -0.11062359649E+03  0.13291476795E+03  0.41800000000E+01 0.  1.
         -5    1    3    3    0  502 -0.52858043351E+02  0.61845928282E+02 -0.40947781269E+02  0.91176119586E+02  0.41800000000E+01 0.  1.
        -11    1    1    2    0    0  0.35624253454E+02 -0.29734325013E+02  0.65525205240E+01  0.46863130959E+02  0.00000000000E+00 0.  1.
         11    1    1    2    0    0 -0.40383983959E+02 -0.77844252140E+02  0.82561931301E+02  0.12044528323E+03  0.00000000000E+00 0. -1.
</event>
<event>
 7    1  0.2820496E-009  0.2179491E+03  0.7561462E-02  0.1135421E+00
         -2   -1    0    0    0  501 -0.00000000000E+00  0.00000000000E+00  0.26149101142E+02  0.26149101142E+02  0.00000000000E+00 0.  1.
          2   -1    0    0  501    0  0.00000000000E+00 -0.00000000000E+00 -0.21229037254E+04  0.21229037254E+04  0.00000000000E+00 0. -1.
         25    2    1    2    0    0 -0.16475041204E+03 -0.11927083120E+03 -0.12064094802E+04  0.12298116219E+04  0.12507822351E+03 0.  0.
          5    1    3    3  502    0 -0.17045849093E+03 -0.12554266994E+03 -0.95359138110E+03  0.97681679634E+03  0.41800000000E+01 0. -1.
         -5    1    3    3    0  502  0.57080788906E+01  0.62718387414E+01 -0.25281809912E+03  0.25299482558E+03  0.41800000000E+01 0. -1.
        -11    1    1    2    0    0  0.30905918581E+02  0.61686345546E+02 -0.15594406253E+03  0.17052545754E+03  0.00000000000E+00 0.  1.
         11    1    1    2    0    0  0.13384449345E+03  0.57584485656E+02 -0.73440108146E+03  0.74871574704E+03  0.00000000000E+00 0. -1.
</event>
<event>
 7    1  0.2820496E-009  0.2714912E+03  0.7561462E-02  0.1100429E+00
         -2   -1    0    0    0  501 -0.00000000000E+00  0.00000000000E+00  0.12423350072E+03  0.12423350072E+03  0.00000000000E+00 0.  1.
          2   -1    0    0  501    0  0.00000000000E+00 -0.00000000000E+00 -0.59487438115E+03  0.59487438115E+03  0.00000000000E+00 0. -1.
         25    2    1    2    0    0  0.24462806626E+03 -0.40722907302E+02 -0.25388200358E+03  0.37630318269E+03  0.12508704000E+03 0.  0.
          5    1    3    3  502    0 -0.71421024823E+01 -0.24006472045E+02 -0.22675243335E+02  0.34043492597E+02  0.41800000000E+01 0. -1.
         -5    1    3    3    0  502  0.25177016874E+03 -0.16716435256E+02 -0.23120676025E+03  0.34225969009E+03  0.41800000000E+01 0. -1.
        -11    1    1    2    0    0  0.61374398274E+00  0.19020483449E+02 -0.11266623441E+02  0.22115430724E+02  0.00000000000E+00 0. -1.
         11    1    1    2    0    0 -0.24524181024E+03  0.21702423852E+02 -0.20549225341E+03  0.32068926845E+03  0.00000000000E+00 0.  1.
</event>
<event>
 7    1  0.2883917E-009  0.1755813E+03  0.7561462E-02  0.1172149E+00
         -2   -1    0    0    0  501 -0.00000000000E+00  0.00000000000E+00  0.29611908956E+02  0.29611908956E+02  0.00000000000E+00 0.  1.
          2   -1    0    0  501    0  0.00000000000E+00 -0.00000000000E+00 -0.11877321983E+04  0.11877321983E+04  0.00000000000E+00 0. -1.
         25    2    1    2    0    0  0.13653351173E+03  0.41754277134E+02 -0.78294727927E+03  0.80562869247E+03  0.12508528499E+03 0.  0.
          5    1    3    3  502    0  0.71278606924E+02  0.81363220509E+02 -0.54689268439E+03  0.55750308887E+03  0.41800000000E+01 0. -1.
         -5    1    3    3    0  502  0.65254904807E+02 -0.39608943375E+02 -0.23605459488E+03  0.24812560360E+03  0.41800000000E+01 0. -1.
        -11    1    1    2    0    0 -0.11843940645E+03 -0.66481760753E+02 -0.33258877867E+03  0.35925341085E+03  0.00000000000E+00 0. -1.
         11    1    1    2    0    0 -0.18094105283E+02  0.24727483619E+02 -0.42584231368E+02  0.52462003901E+02  0.00000000000E+00 0.  1.
</event>
<event>
 7    1  0.2820496E-009  0.1118021E+03  0.7561462E-02  0.1257269E+00
         -1   -1    0    0    0  501 -0.00000000000E+00  0.00000000000E+00  0.11085716821E+03  0.11085716821E+03  0.00000000000E+00 0.  1.
          1   -1    0    0  501    0  0.00000000000E+00 -0.00000000000E+00 -0.23776123756E+03  0.23776123756E+03  0.00000000000E+00 0. -1.
         25    2    1    2    0    0 -0.57244121697E+02  0.72749569257E+02  0.14661545024E+02  0.15630197113E+03  0.12508379583E+03 0.  0.
          5    1    3    3  502    0 -0.54591149950E+02  0.33868339654E+02 -0.49435924357E+02  0.81170444750E+02  0.41800000000E+01 0. -1.
         -5    1    3    3    0  502 -0.26529717473E+01  0.38881229603E+02  0.64097469382E+02  0.75131526377E+02  0.41800000000E+01 0. -1.
        -11    1    1    2    0    0  0.26525368341E+02 -0.83400086047E+02 -0.13208889207E+03  0.15845076499E+03  0.00000000000E+00 0. -1.
         11    1    1    2    0    0  0.30718753357E+02  0.10650516789E+02 -0.94767223025E+01  0.33865669656E+02  0.00000000000E+00 0.  1.
</event>
<event>
 7    1  0.2820496E-009  0.1555886E+03  0.7561462E-02  0.1193769E+00
         -1   -1    0    0    0  501 -0.00000000000E+00  0.00000000000E+00  0.14393305345E+03  0.14393305345E+03  0.00000000000E+00 0.  1.
          1   -1    0    0  501    0  0.00000000000E+00 -0.00000000000E+00 -0.21021287663E+03  0.21021287663E+03  0.00000000000E+00 0. -1.
         25    2    1    2    0    0  0.10676758131E+03 -0.66414468431E+02 -0.85149519112E+02  0.19673602632E+03  0.12507767751E+03 0.  0.
          5    1    3    3  502    0  0.50361831903E+02  0.22075330098E+02  0.87764868408E+01  0.55840249218E+02  0.41800000000E+01 0. -1.
         -5    1    3    3    0  502  0.56405749407E+02 -0.88489798529E+02 -0.93926005953E+02  0.14089577710E+03  0.41800000000E+01 0. -1.
        -11    1    1    2    0    0 -0.10749220630E+02 -0.19434401664E+02  0.18030617395E+02  0.28606727807E+02  0.00000000000E+00 0.  1.
         11    1    1    2    0    0 -0.96018360680E+02  0.85848870096E+02  0.83907854108E+00  0.12880317596E+03  0.00000000000E+00 0. -1.
</event>
<event>
 7    1  0.2820496E-009  0.9795966E+02  0.7561462E-02  0.1284646E+00
          1   -1    0    0  501    0  0.00000000000E+00  0.00000000000E+00  0.42757503427E+03  0.42757503427E+03  0.00000000000E+00 0. -1.
         -1   -1    0    0    0  501 -0.00000000000E+00 -0.00000000000E+00 -0.37831352537E+02  0.37831352537E+02  0.00000000000E+00 0.  1.
         25    2    1    2    0    0  0.18674054941E+02 -0.37443465660E+02  0.32884798295E+03  0.35431548727E+03  0.12509090765E+03 0.  0.
          5    1    3    3  502    0 -0.43220121811E+02  0.19487791560E+02  0.11189746610E+03  0.12159880044E+03  0.41800000000E+01 0.  1.
         -5    1    3    3    0  502  0.61894176753E+02 -0.56931257221E+02  0.21695051686E+03  0.23271668683E+03  0.41800000000E+01 0.  1.
        -11    1    1    2    0    0 -0.25792312914E+02  0.46156782686E+02  0.75798311238E+02  0.92417941872E+02  0.00000000000E+00 0. -1.
         11    1    1    2    0    0  0.71182579726E+01 -0.87133170254E+01 -0.14902612456E+02  0.18672957670E+02  0.00000000000E+00 0.  1.
</event>
<event>
 7    1  0.2820496E-009  0.1011987E+03  0.7561462E-02  0.1277795E+00
         -2   -1    0    0    0  501 -0.00000000000E+00  0.00000000000E+00  0.27505713658E+02  0.27505713658E+02  0.00000000000E+00 0. -1.
          2   -1    0    0  501    0  0.00000000000E+00 -0.00000000000E+00 -0.52295652513E+03  0.52295652513E+03  0.00000000000E+00 0.  1.
         25    2    1    2    0    0 -0.45685551238E+02 -0.11130629996E+02 -0.26215398315E+03  0.29425103110E+03  0.12509155809E+03 0.  0.
          5    1    3    3  502    0 -0.67920283298E+02 -0.40977599822E+02 -0.99385445830E+02  0.12722919403E+03  0.41800000000E+01 0.  1.
         -5    1    3    3    0  502  0.22234732060E+02  0.29846969826E+02 -0.16276853732E+03  0.16702183707E+03  0.41800000000E+01 0.  1.
        -11    1    1    2    0    0  0.73768416419E+01  0.38005657532E+02 -0.34099034608E+02  0.51590618898E+02  0.00000000000E+00 0. -1.
         11    1    1    2    0    0  0.38308709596E+02 -0.26875027536E+02 -0.19919779372E+03  0.20462058879E+03  0.00000000000E+00 0.  1.
</event>
<event>
 7    1  0.2820496E-009  0.1445339E+03  0.7561462E-02  0.1207355E+00
          2   -1    0    0  501    0  0.00000000000E+00  0.00000000000E+00  0.10442203561E+04  0.10442203561E+04  0.00000000000E+00 0. -1.
         -2   -1    0    0    0  501 -0.00000000000E+00 -0.00000000000E+00 -0.30075562991E+02  0.30075562991E+02  0.00000000000E+00 0.  1.
         25    2    1    2    0    0 -0.63189415031E+02  0.12337177769E+03  0.51566399770E+03  0.54841480316E+03  0.12504375276E+03 0.  0.
          5    1    3    3  502    0 -0.67058355884E+02  0.72959254892E+02  0.15377267295E+03  0.18298465322E+03  0.41800000000E+01 0. -1.
         -5    1    3    3    0  502  0.38689408534E+01  0.50412522798E+02  0.36189132475E+03  0.36543014994E+03  0.41800000000E+01 0. -1.
        -11    1    1    2    0    0  0.20637128051E+02 -0.53494536913E+02  0.74136129853E+02  0.93721514517E+02  0.00000000000E+00 0.  1.
         11    1    1    2    0    0  0.42552286980E+02 -0.69877240777E+02  0.42434466557E+03  0.43215960143E+03  0.00000000000E+00 0. -1.
</event>
<event>
 7    1  0.2820496E-009  0.8666588E+02  0.7561462E-02  0.1311133E+00
         -2   -1    0    0    0  501 -0.00000000000E+00  0.00000000000E+00  0.44537391961E+02  0.44537391961E+02  0.00000000000E+00 0.  1.
          2   -1    0    0  501    0  0.00000000000E+00 -0.00000000000E+00 -0.26460006977E+03  0.26460006977E+03  0.00000000000E+00 0. -1.
         25    2    1    2    0    0  0.39473041117E+01  0.98045077006E+00 -0.14549645493E+03  0.19191700053E+03  0.12508546759E+03 0.  0.
          5    1    3    3  502    0 -0.84374130146E+01 -0.59310514880E+02 -0.94056575808E+02  0.11159318513E+03  0.41800000000E+01 0.  1.
         -5    1    3    3    0  502  0.12384717126E+02  0.60290965650E+02 -0.51439879119E+02  0.80323815404E+02  0.41800000000E+01 0.  1.
        -11    1    1    2    0    0 -0.66718511550E+01  0.24790332285E+02 -0.85368213111E+02  0.89144859540E+02  0.00000000000E+00 0. -1.
         11    1    1    2    0    0  0.27245470433E+01 -0.25770783055E+02  0.10801990227E+02  0.28075601663E+02  0.00000000000E+00 0.  1.
</event>
<event>
 7    1  0.2820496E-009  0.1851963E+03  0.7561462E-02  0.1162867E+00
          1   -1    0    0  501    0  0.00000000000E+00  0.00000000000E+00  0.33261035705E+03  0.33261035705E+03  0.00000000000E+00 0. -1.
         -1   -1    0    0    0  501 -0.00000000000E+00 -0.00000000000E+00 -0.12939056560E+03  0.12939056560E+03  0.00000000000E+00 0.  1.
         25    2    1    2    0    0  0.25404848495E+02 -0.16556893514E+03  0.45378497332E+02  0.21392790239E+03  0.12508981089E+03 0.  0.
          5    1    3    3  502    0  0.50166980992E+02 -0.17007292366E+03  0.20940155218E+02  0.17859867817E+03  0.41800000000E+01 0.  1.
         -5    1    3    3    0  502 -0.24762132496E+02  0.45039885203E+01  0.24438342114E+02  0.35329224215E+02  0.41800000000E+01 0.  1.
        -11    1    1    2    0    0 -0.15130381811E+02  0.94014875242E+02  0.14675172076E+03  0.17493939741E+03  0.00000000000E+00 0. -1.
         11    1    1    2    0    0 -0.10274466684E+02  0.71554059899E+02  0.11089573363E+02  0.73133622849E+02  0.00000000000E+00 0.  1.
</event>
<event>
 7    1  0.2820496E-009  0.1188375E+03  0.7561462E-02  0.1245027E+00
         -1   -1    0    0    0  501 -0.00000000000E+00  0.00000000000E+00  0.40237009452E+02  0.40237009452E+02  0.00000000000E+00 0.  1.
          1   -1    0    0  501    0  0.00000000000E+00 -0.00000000000E+00 -0.59724667354E+03  0.59724667354E+03  0.00000000000E+00 0. -1.
         25    2    1    2    0    0 -0.41327592031E+02  0.58478925368E+02 -0.12767836548E+03  0.19255301336E+03  0.12508854212E+03 0.  0.
          5    1    3    3  502    0 -0.62309656061E+02 -0.11083445644E+02 -0.91355199939E+02  0.11121412213E+03  0.41800000000E+01 0. -1.
         -5    1    3    3    0  502  0.20982064030E+02  0.69562371012E+02 -0.36323165537E+02  0.81338891229E+02  0.41800000000E+01 0. -1.
        -11    1    1    2    0    0  0.37898026111E+02  0.47099241452E+01 -0.67042479765E+02  0.77156580158E+02  0.00000000000E+00 0.  1.
         11    1    1    2    0    0  0.34295659196E+01 -0.63188849513E+02 -0.36228881885E+03  0.36777408947E+03  0.00000000000E+00 0. -1.
</event>
<event>
 7    1  0.2820496E-009  0.2082369E+03  0.7561462E-02  0.1142970E+00
         -1   -1    0    0    0  501 -0.00000000000E+00  0.00000000000E+00  0.40083425317E+03  0.40083425317E+03  0.00000000000E+00 0.  1.
          1   -1    0    0  501    0  0.00000000000E+00 -0.00000000000E+00 -0.14105469262E+03  0.14105469262E+03  0.00000000000E+00 0. -1.
         25    2    1    2    0    0  0.19769472574E+03 -0.61245731290E+02  0.17811253847E+03  0.30034327952E+03  0.12509102689E+03 0.  0.
          5    1    3    3  502    0  0.25550038066E+02 -0.11462534685E+02 -0.18860334807E+02  0.34020270069E+02  0.41800000000E+01 0. -1.
         -5    1    3    3    0  502  0.17214468767E+03 -0.49783196606E+02  0.19697287327E+03  0.26632300945E+03  0.41800000000E+01 0. -1.
        -11    1    1    2    0    0 -0.93997517289E+02  0.14281699225E+02  0.85183811244E+02  0.12765493288E+03  0.00000000000E+00 0. -1.
         11    1    1    2    0    0 -0.10369720845E+03  0.46964032065E+02 -0.35167891602E+01  0.11389073340E+03  0.00000000000E+00 0.  1.
</event>
<event>
 7    1  0.2820496E-009  0.1047451E+03  0.7561462E-02  0.1270623E+00
         -1   -1    0    0    0  501 -0.00000000000E+00  0.00000000000E+00  0.41185766479E+03  0.41185766479E+03  0.00000000000E+00 0.  1.
          1   -1    0    0  501    0  0.00000000000E+00 -0.00000000000E+00 -0.58604520685E+02  0.58604520685E+02  0.00000000000E+00 0. -1.
         25    2    1    2    0    0 -0.10594512809E+01  0.16791490723E+01  0.20973183628E+02  0.12685097715E+03  0.12508938402E+03 0.  0.
          5    1    3    3  502    0 -0.62125831277E+02 -0.91739371980E+01  0.10963871462E+02  0.63886296754E+02  0.41800000000E+01 0.  1.
         -5    1    3    3    0  502  0.61066379996E+02  0.10853086270E+02  0.10009312166E+02  0.62964680396E+02  0.41800000000E+01 0.  1.
        -11    1    1    2    0    0 -0.41655762318E+02 -0.78629511908E+00  0.20970397885E+03  0.21380266495E+03  0.00000000000E+00 0.  1.
         11    1    1    2    0    0  0.42715213599E+02 -0.89285395318E+00  0.12257598163E+03  0.12980854338E+03  0.00000000000E+00 0. -1.
</event>
<event>
 7    1  0.2820496E-009  0.2386472E+03  0.7561462E-02  0.1120697E+00
         -2   -1    0    0    0  501 -0.00000000000E+00  0.00000000000E+00  0.17897636976E+03  0.17897636976E+03  0.00000000000E+00 0. -1.
          2   -1    0    0  501    0  0.00000000000E+00 -0.00000000000E+00 -0.82950555683E+03  0.82950555683E+03  0.00000000000E+00 0.  1.
         25    2    1    2    0    0 -0.12150709638E+03 -0.16602969537E+03 -0.70010452656E+03  0.74035411565E+03  0.12509210296E+03 0.  0.
          5    1    3    3  502    0 -0.66094037138E+02 -0.25826489029E+01 -0.23798575138E+03  0.24704206541E+03  0.41800000000E+01 0.  1.
         -5    1    3    3    0  502 -0.55413059247E+02 -0.16344704647E+03 -0.46211877518E+03  0.49331205024E+03  0.41800000000E+01 0.  1.
        -11    1    1    2    0    0 -0.24200360584E+02  0.34148490361E+02  0.57876347999E+02  0.71424425122E+02  0.00000000000E+00 0. -1.
         11    1    1    2    0    0  0.14570745697E+03  0.13188120501E+03 -0.83010084994E+01  0.19670338582E+03  0.00000000000E+00 0.  1.
</event>
<event>
 7    1  0.2820496E-009  0.2130400E+03  0.7561462E-02  0.1139181E+00
         -2   -1    0    0    0  501 -0.00000000000E+00  0.00000000000E+00  0.40451861060E+02  0.40451861060E+02  0.00000000000E+00 0. -1.
          2   -1    0    0  501    0  0.00000000000E+00 -0.00000000000E+00 -0.15266752477E+04  0.15266752477E+04  0.00000000000E+00 0.  1.
         25    2    1    2    0    0  0.73864982312E+02  0.17748864481E+03 -0.41422726350E+03  0.47348733436E+03  0.12509106814E+03 0.  0.
          5    1    3    3  502    0  0.19078770450E+02  0.14628202259E+03 -0.19032389728E+03  0.24083830238E+03  0.41800000000E+01 0.  1.
         -5    1    3    3    0  502  0.54786211862E+02  0.31206622221E+02 -0.22390336622E+03  0.23264903199E+03  0.41800000000E+01 0.  1.
        -11    1    1    2    0    0 -0.71471573283E+02 -0.48668687954E+02 -0.48779641215E+03  0.49540101603E+03  0.00000000000E+00 0.  1.
         11    1    1    2    0    0 -0.23934090293E+01 -0.12881995686E+03 -0.58419971099E+03  0.59823875837E+03  0.00000000000E+00 0. -1.
</event>
<event>
 7    1  0.2820496E-009  0.2198263E+03  0.7561462E-02  0.1134013E+00
          2   -1    0    0  501    0  0.00000000000E+00  0.00000000000E+00  0.87319558861E+03  0.87319558861E+03  0.00000000000E+00 0. -1.
         -2   -1    0    0    0  501 -0.00000000000E+00 -0.00000000000E+00 -0.67482439964E+02  0.67482439964E+02  0.00000000000E+00 0.  1.
         25    2    1    2    0    0  0.16069342955E+03  0.14351186649E+03  0.45827510969E+03  0.52161416081E+03  0.12508885830E+03 0.  0.
          5    1    3    3  502    0  0.95231649636E+02  0.11704077533E+03  0.40745287822E+03  0.43451459188E+03  0.41800000000E+01 0. -1.
         -5    1    3    3    0  502  0.65461779916E+02  0.26471091167E+02  0.50822231473E+02  0.87099568938E+02  0.41800000000E+01 0. -1.
        -11    1    1    2    0    0 -0.39434697111E+02 -0.17665734650E+02  0.19373121832E+02  0.47354950813E+02  0.00000000000E+00 0.  1.
         11    1    1    2    0    0 -0.12125873244E+03 -0.12584613185E+03  0.32806491712E+03  0.37170891695E+03  0.00000000000E+00 0. -1.
</event>
<event>
 7    1  0.2820496E-009  0.1051901E+03  0.7561462E-02  0.1269746E+00
         -2   -1    0    0    0  501 -0.00000000000E+00  0.00000000000E+00  0.22051219856E+03  0.22051219856E+03  0.00000000000E+00 0. -1.
          2   -1    0    0  501    0  0.00000000000E+00 -0.00000000000E+00 -0.54084974998E+02  0.54084974998E+02  0.00000000000E+00 0.  1.
         25    2    1    2    0    0  0.97982902350E+01  0.65267699715E+01  0.10446891520E+03  0.16340058045E+03  0.12508952886E+03 0.  0.
          5    1    3    3  502    0 -0.18591257595E+02 -0.51493511378E+02  0.73230907491E+02  0.91528437029E+02  0.41800000000E+01 0. -1.
         -5    1    3    3    0  502  0.28389547830E+02  0.58020281350E+02  0.31238007709E+02  0.71872143418E+02  0.41800000000E+01 0. -1.
        -11    1    1    2    0    0  0.18240382774E+02  0.35681171968E+02  0.17278477804E+02  0.43639470574E+02  0.00000000000E+00 0. -1.
         11    1    1    2    0    0 -0.28038673009E+02 -0.42207941940E+02  0.44679830560E+02  0.67557122539E+02  0.00000000000E+00 0.  1.
</event>
<event>
 7    1  0.2965628E-009  0.8661084E+02  0.7561462E-02  0.1311273E+00
          1   -1    0    0  501    0  0.00000000000E+00  0.00000000000E+00  0.99259637936E+03  0.99259637936E+03  0.00000000000E+00 0. -1.
         -1   -1    0    0    0  501 -0.00000000000E+00 -0.00000000000E+00 -0.16307470517E+02  0.16307470517E+02  0.00000000000E+00 0.  1.
         25    2    1    2    0    0  0.26871445667E+02  0.13494676303E+02  0.77810063672E+03  0.78866515745E+03  0.12509176161E+03 0.  0.
          5    1    3    3  502    0 -0.24258700169E+02  0.18611032240E+02  0.50102287041E+02  0.58843577574E+02  0.41800000000E+01 0.  1.
         -5    1    3    3    0  502  0.51130145836E+02 -0.51163559370E+01  0.72799834968E+03  0.72982157987E+03  0.41800000000E+01 0.  1.
        -11    1    1    2    0    0 -0.27771055872E+02  0.33663354193E+02  0.59778420947E+02  0.74012921647E+02  0.00000000000E+00 0. -1.
         11    1    1    2    0    0  0.89961020470E+00 -0.47158030496E+02  0.13840985118E+03  0.14622577078E+03  0.00000000000E+00 0.  1.
</event>
<event>
 7    1  0.2820496E-009  0.2048189E+03  0.7561462E-02  0.1145736E+00
          2   -1    0    0  501    0  0.00000000000E+00  0.00000000000E+00  0.16912369801E+04  0.16912369801E+04  0.00000000000E+00 0. -1.
         -2   -1    0    0    0  501 -0.00000000000E+00 -0.00000000000E+00 -0.27800720760E+02  0.27800720760E+02  0.00000000000E+00 0.  1.
         25    2    1    2    0    0  0.17623896280E+03  0.22274169250E+02  0.11036772145E+04  0.11248591204E+04  0.12509331101E+03 0.  0.
          5    1    3    3  502    0  0.10174360819E+02 -0.33790601787E+02  0.10346805219E+03  0.10940033187E+03  0.41800000000E+01 0.  1.
         -5    1    3    3    0  502  0.16606460198E+03  0.56064771037E+02  0.10002091623E+04  0.10154587886E+04  0.41800000000E+01 0.  1.
        -11    1    1    2    0    0 -0.82590155690E+02  0.34231837014E+02  0.23067107857E+03  0.24739057979E+03  0.00000000000E+00 0. -1.
         11    1    1    2    0    0 -0.93648807112E+02 -0.56506006263E+02  0.32908796628E+03  0.34678800061E+03  0.00000000000E+00 0.  1.
</event>
<event>
 7    1  0.2820496E-009  0.1442808E+03  0.7561462E-02  0.1207682E+00
          1   -1    0    0  501    0  0.00000000000E+00  0.00000000000E+00  0.16151871680E+03  0.16151871680E+03  0.00000000000E+00 0. -1.
         -1   -1    0    0    0  501 -0.00000000000E+00 -0.00000000000E+00 -0.14401901232E+03  0.14401901232E+03  0.00000000000E+00 0.  1.
         25    2    1    2    0    0 -0.94360595192E+02 -0.46698555695E+02 -0.98549414991E+01  0.16379483806E+03  0.12508777748E+03 0.  0.
          5    1    3    3  502    0  0.28104220187E+02 -0.68195034081E+01 -0.18597389571E+02  0.34636514229E+02  0.41800000000E+01 0.  1.
         -5    1    3    3    0  502 -0.12246481538E+03 -0.39879052287E+02  0.87424480717E+01  0.12915832383E+03  0.41800000000E+01 0.  1.
        -11    1    1    2    0    0  0.55270760405E+02 -0.15153403087E+02 -0.12159475433E+02  0.58586136788E+02  0.00000000000E+00 0. -1.
         11    1    1    2    0    0  0.39089834786E+02  0.61851958782E+02  0.39514121411E+02  0.83156754264E+02  0.00000000000E+00 0.  1.
</event>
<event>
 7    1  0.2820496E-009  0.2637945E+03  0.7561462E-02  0.1104885E+00
          1   -1    0    0  501    0  0.00000000000E+00  0.00000000000E+00  0.12633352479E+04  0.12633352479E+04  0.00000000000E+00 0. -1.
         -1   -1    0    0    0  501 -0.00000000000E+00 -0.00000000000E+00 -0.62678480815E+02  0.62678480815E+02  0.00000000000E+00 0.  1.
         25    2    1    2    0    0  0.24283402276E+03 -0.36479249092E+02  0.41861538149E+03  0.50118592555E+03  0.12509754645E+03 0.  0.
          5    1    3    3  502    0  0.12828877247E+02 -0.42190829555E+02  0.51692023435E+02  0.68074840263E+02  0.41800000000E+01 0.  1.
         -5    1    3    3    0  502  0.23000514551E+03  0.57115804634E+01  0.36692335805E+03  0.43311108529E+03  0.41800000000E+01 0.  1.
        -11    1    1    2    0    0 -0.20530613178E+03  0.53212103700E+02  0.55592036577E+03  0.59500385612E+03  0.00000000000E+00 0.  1.
         11    1    1    2    0    0 -0.37527890980E+02 -0.16732854608E+02  0.22612101987E+03  0.22982394708E+03  0.00000000000E+00 0. -1.
</event>
<event>
 7    1  0.2820496E-009  0.1798963E+03  0.7561462E-02  0.1167903E+00
          2   -1    0    0  501    0  0.00000000000E+00  0.00000000000E+00  0.89100349161E+02  0.89100349161E+02  0.00000000000E+00 0. -1.
         -2   -1    0    0    0  501 -0.00000000000E+00 -0.00000000000E+00 -0.46110661676E+03  0.46110661676E+03  0.00000000000E+00 0.  1.
         25    2    1    2    0    0  0.97307287479E+02 -0.13698046962E+03 -0.23574961239E+03  0.31537393350E+03  0.12510188223E+03 0.  0.
          5    1    3    3  502    0  0.39876081621E+02 -0.35328248285E+02 -0.13299433204E+01  0.53454917095E+02  0.41800000000E+01 0.  1.
         -5    1    3    3    0  502  0.57431205858E+02 -0.10165222133E+03 -0.23441966907E+03  0.26191901641E+03  0.41800000000E+01 0.  1.
        -11    1    1    2    0    0 -0.34884551124E+02  0.11980841391E+03 -0.74338267019E+02  0.14524863474E+03  0.00000000000E+00 0. -1.
         11    1    1    2    0    0 -0.62422736355E+02  0.17172055706E+02 -0.61918388192E+02  0.89584397679E+02  0.00000000000E+00 0.  1.
</event>
<event>
 7    1  0.3354849E-009  0.1097620E+03  0.7561462E-02  0.1261011E+00
          2   -1    0    0  501    0  0.00000000000E+00  0.00000000000E+00  0.70274591593E+02  0.70274591593E+02  0.00000000000E+00 0. -1.
         -2   -1    0    0    0  501 -0.00000000000E+00 -0.00000000000E+00 -0.23846727738E+03  0.23846727738E+03  0.00000000000E+00 0.  1.
         25    2    1    2    0    0 -0.27731717118E+02 -0.20643320574E+02 -0.16646057583E+03  0.21107412203E+03  0.12509183372E+03 0.  0.
          5    1    3    3  502    0 -0.69561966605E+02 -0.43255435312E+02 -0.10727049108E+03  0.13503455313E+03  0.41800000000E+01 0.  1.
         -5    1    3    3    0  502  0.41830249487E+02  0.22612114738E+02 -0.59190084748E+02  0.76039568894E+02  0.41800000000E+01 0.  1.
        -11    1    1    2    0    0  0.27035015833E+02  0.51892313604E+02 -0.19546404591E+02  0.61690892559E+02  0.00000000000E+00 0.  1.
         11    1    1    2    0    0  0.69670128494E+00 -0.31248993030E+02  0.17814294639E+02  0.35976854387E+02  0.00000000000E+00 0. -1.
</event>
<event>
 7    1  0.2820496E-009  0.1553745E+03  0.7561462E-02  0.1194020E+00
         -1   -1    0    0    0  501 -0.00000000000E+00  0.00000000000E+00  0.12578770957E+03  0.12578770957E+03  0.00000000000E+00 0.  1.
          1   -1    0    0  501    0  0.00000000000E+00 -0.00000000000E+00 -0.22622208660E+03  0.22622208660E+03  0.00000000000E+00 0. -1.
         25    2    1    2    0    0  0.10352804643E+03 -0.75092426916E+02 -0.70063098719E+02  0.19212802926E+03  0.12508961926E+03 0.  0.
          5    1    3    3  502    0  0.73504477644E+02 -0.10536387200E+03 -0.75299183927E+02  0.14896943732E+03  0.41800000000E+01 0. -1.
         -5    1    3    3    0  502  0.30023568783E+02  0.30271445080E+02  0.52360852078E+01  0.43158591937E+02  0.41800000000E+01 0. -1.
        -11    1    1    2    0    0 -0.97311376278E+02  0.42492881045E+02 -0.54015305394E+02  0.11913354737E+03  0.00000000000E+00 0. -1.
         11    1    1    2    0    0 -0.62166701490E+01  0.32599545871E+02  0.23644027089E+02  0.40748219541E+02  0.00000000000E+00 0.  1.
</event>
<event>
 7    1  0.2820496E-009  0.1096151E+03  0.7561462E-02  0.1261284E+00
         -1   -1    0    0    0  501 -0.00000000000E+00  0.00000000000E+00  0.59356514113E+02  0.59356514113E+02  0.00000000000E+00 0.  1.
          1   -1    0    0  501    0  0.00000000000E+00 -0.00000000000E+00 -0.27942152348E+03  0.27942152348E+03  0.00000000000E+00 0. -1.
         25    2    1    2    0    0 -0.83927649070E+01  0.13963192866E+02 -0.20970023661E+03  0.24471902334E+03  0.12509117433E+03 0.  0.
          5    1    3    3  502    0 -0.26730602342E+02 -0.51345797596E+02 -0.10248568444E+03  0.11777819810E+03  0.41800000000E+01 0.  1.
         -5    1    3    3    0  502  0.18337837435E+02  0.65308990463E+02 -0.10721455217E+03  0.12694082525E+03  0.41800000000E+01 0.  1.
        -11    1    1    2    0    0  0.20080393399E+02  0.36376292165E+02 -0.11576883679E+01  0.41566778479E+02  0.00000000000E+00 0. -1.
         11    1    1    2    0    0 -0.11687628492E+02 -0.50339485032E+02 -0.92070843875E+01  0.52492235768E+02  0.00000000000E+00 0.  1.
</event>
<event>
 7    1  0.2820496E-009  0.8730794E+02  0.7561462E-02  0.1309505E+00
          2   -1    0    0  501    0  0.00000000000E+00  0.00000000000E+00  0.41238636811E+03  0.41238636811E+03  0.00000000000E+00 0. -1.
         -2   -1    0    0    0  501 -0.00000000000E+00 -0.00000000000E+00 -0.36466741730E+02  0.36466741730E+02  0.00000000000E+00 0.  1.
         25    2    1    2    0    0  0.14218952334E+02  0.17250754097E+02  0.30888326288E+03  0.33400178085E+03  0.12509417413E+03 0.  0.
          5    1    3    3  502    0 -0.61098571387E+01  0.59337673107E+02  0.25776722054E+03  0.26461236213E+03  0.41800000000E+01 0.  1.
         -5    1    3    3    0  502  0.20328809473E+02 -0.42086919010E+02  0.51116042336E+02  0.69389418721E+02  0.41800000000E+01 0.  1.
        -11    1    1    2    0    0  0.26253127709E+01 -0.39722032219E+02 -0.24706144319E+01  0.39885286089E+02  0.00000000000E+00 0.  1.
         11    1    1    2    0    0 -0.16844265105E+02  0.22471278121E+02  0.69506977935E+02  0.74966042906E+02  0.00000000000E+00 0. -1.
</event>
<event>
 7    1  0.2820496E-009  0.9243864E+02  0.7561462E-02  0.1297051E+00
          1   -1    0    0  501    0  0.00000000000E+00  0.00000000000E+00  0.90966550819E+03  0.90966550819E+03  0.00000000000E+00 0. -1.
         -1   -1    0    0    0  501 -0.00000000000E+00 -0.00000000000E+00 -0.16801331616E+02  0.16801331616E+02  0.00000000000E+00 0.  1.
         25    2    1    2    0    0 -0.12359376330E+02  0.10020411733E+02  0.70928175161E+03  0.72040341678E+03  0.12508923579E+03 0.  0.
          5    1    3    3  502    0 -0.29590458345E+02  0.47940443679E+02  0.61063207071E+03  0.61323965914E+03  0.41800000000E+01 0. -1.
         -5    1    3    3    0  502  0.17231082015E+02 -0.37920031945E+02  0.98649680906E+02  0.10716375765E+03  0.41800000000E+01 0. -1.
        -11    1    1    2    0    0 -0.36526441566E+02 -0.90421207824E+01  0.12056957695E+03  0.12630504252E+03  0.00000000000E+00 0. -1.
         11    1    1    2    0    0  0.48885817896E+02 -0.97829095103E+00  0.63012848010E+02  0.79758380493E+02  0.00000000000E+00 0.  1.
</event>
<event>
 7    1  0.2820496E-009  0.1260754E+03  0.7561462E-02  0.1233398E+00
         -2   -1    0    0    0  501 -0.00000000000E+00  0.00000000000E+00  0.47244797285E+02  0.47244797285E+02  0.00000000000E+00 0.  1.
          2   -1    0    0  501    0  0.00000000000E+00 -0.00000000000E+00 -0.77931695754E+03  0.77931695754E+03  0.00000000000E+00 0. -1.
         25    2    1    2    0    0 -0.10163487606E+03 -0.76597175776E+01 -0.64483661002E+03  0.66472177709E+03  0.12510982381E+03 0.  0.
          5    1    3    3  502    0  0.11010798541E+02  0.51824300390E+01 -0.33723240057E+01  0.13301888393E+02  0.41800000000E+01 0. -1.
         -5    1    3    3    0  502 -0.11264567460E+03 -0.12842147617E+02 -0.64146428601E+03  0.65141988870E+03  0.41800000000E+01 0. -1.
        -11    1    1    2    0    0  0.11162927469E+03 -0.23939499746E+01 -0.94164661466E+02  0.14606097847E+03  0.00000000000E+00 0. -1.
         11    1    1    2    0    0 -0.99943986315E+01  0.10053667552E+02  0.69291112293E+01  0.15778999261E+02  0.00000000000E+00 0.  1.
</event>
<event>
 7    1  0.2820496E-009  0.1176735E+03  0.7561462E-02  0.1246985E+00
         -2   -1    0    0    0  501 -0.00000000000E+00  0.00000000000E+00  0.36885994379E+03  0.36885994379E+03  0.00000000000E+00 0.  1.
          2   -1    0    0  501    0  0.00000000000E+00 -0.00000000000E+00 -0.55983983233E+02  0.55983983233E+02  0.00000000000E+00 0. -1.
         25    2    1    2    0    0  0.76745111841E+02  0.23627115466E+02  0.96966138896E+02  0.17747810626E+03  0.12509193952E+03 0.  0.
          5    1    3    3  502    0 -0.33401270030E+02  0.14962166840E+02  0.14687435110E+02  0.39657337610E+02  0.41800000000E+01 0. -1.
         -5    1    3    3    0  502  0.11014638187E+03  0.86649486254E+01  0.82278703785E+02  0.13782076865E+03  0.41800000000E+01 0. -1.
        -11    1    1    2    0    0 -0.32010499454E+02  0.81984052166E+01  0.17704252748E+03  0.18009981249E+03  0.00000000000E+00 0.  1.
         11    1    1    2    0    0 -0.44734612387E+02 -0.31825520682E+02  0.38867294183E+02  0.67266008275E+02  0.00000000000E+00 0. -1.
</event>
<event>
 7    1  0.2820496E-009  0.9594696E+02  0.7561462E-02  0.1289057E+00
         -1   -1    0    0    0  501 -0.00000000000E+00  0.00000000000E+00  0.27761756402E+02  0.27761756402E+02  0.00000000000E+00 0.  1.
          1   -1    0    0  501    0  0.00000000000E+00 -0.00000000000E+00 -0.91176824878E+03  0.91176824878E+03  0.00000000000E+00 0. -1.
         25    2    1    2    0    0 -0.51457141348E+00 -0.53387111530E+02 -0.77425816257E+03  0.78611079971E+03  0.12507613147E+03 0.  0.
          5    1    3    3  502    0  0.59494974186E+02 -0.26768744999E+02 -0.48993579461E+03  0.49427803198E+03  0.41800000000E+01 0. -1.
         -5    1    3    3    0  502 -0.60009545600E+02 -0.26618366531E+02 -0.28432236796E+03  0.29183276773E+03  0.41800000000E+01 0. -1.
        -11    1    1    2    0    0 -0.12655870469E+02  0.12519550781E+02  0.13862863586E+02  0.22563005028E+02  0.00000000000E+00 0.  1.
         11    1    1    2    0    0  0.13170441882E+02  0.40867560749E+02 -0.12361119340E+03  0.13085620044E+03  0.00000000000E+00 0. -1.
</event>
<event>
 7    1  0.2820496E-009  0.1060479E+03  0.7561462E-02  0.1268069E+00
         -1   -1    0    0    0  501 -0.00000000000E+00  0.00000000000E+00  0.18463074156E+02  0.18463074156E+02  0.00000000000E+00 0.  1.
          1   -1    0    0  501    0  0.00000000000E+00 -0.00000000000E+00 -0.82562505997E+03  0.82562505997E+03  0.00000000000E+00 0. -1.
         25    2    1    2    0    0  0.18666021598E+02 -0.11139238223E+02 -0.62878515478E+03  0.64147543360E+03  0.12508979998E+03 0.  0.
          5    1    3    3  502    0  0.70699851568E+02  0.54723071046E+01 -0.31157378466E+03  0.31956863245E+03  0.41800000000E+01 0. -1.
         -5    1    3    3    0  502 -0.52033829970E+02 -0.16611545328E+02 -0.31721137011E+03  0.32190680115E+03  0.41800000000E+01 0. -1.
        -11    1    1    2    0    0  0.99596026224E+01 -0.32555029943E+02 -0.30238716328E+02  0.45534642022E+02  0.00000000000E+00 0.  1.
         11    1    1    2    0    0 -0.28625624220E+02  0.43694268166E+02 -0.14813811471E+03  0.15707805850E+03  0.00000000000E+00 0. -1.
</event>
<event>
 7    1  0.2820496E-009  0.2498921E+03  0.7561462E-02  0.1113373E+00
          1   -1    0    0  501    0  0.00000000000E+00  0.00000000000E+00  0.39615927512E+03  0.39615927512E+03  0.00000000000E+00 0. -1.
         -1   -1    0    0    0  501 -0.00000000000E+00 -0.00000000000E+00 -0.24257058636E+03  0.24257058636E+03  0.00000000000E+00 0.  1.
         25    2    1    2    0    0 -0.21868034598E+03 -0.11149616856E+03 -0.81126801022E+02  0.28719595141E+03  0.12508983707E+03 0.  0.
          5    1    3    3  502    0 -0.16297283701E+03 -0.11312224007E+03 -0.10718917350E+03  0.22552999383E+03  0.41800000000E+01 0.  1.
         -5    1    3    3    0  502 -0.55707508975E+02  0.16260715113E+01  0.26062372480E+02  0.61665957578E+02  0.41800000000E+01 0.  1.
        -11    1    1    2    0    0  0.63880225374E+02  0.31930232518E+02  0.13023705591E+03  0.14853253407E+03  0.00000000000E+00 0. -1.
         11    1    1    2    0    0  0.15480012061E+03  0.79565936042E+02  0.10447843387E+03  0.20300137601E+03  0.00000000000E+00 0.  1.
</event>
<event>
 7    1  0.2820496E-009  0.1025796E+03  0.7561462E-02  0.1274963E+00
          1   -1    0    0  501    0  0.00000000000E+00  0.00000000000E+00  0.50017151359E+03  0.50017151359E+03  0.00000000000E+00 0. -1.
         -1   -1    0    0    0  501 -0.00000000000E+00 -0.00000000000E+00 -0.25070857231E+02  0.25070857231E+02  0.00000000000E+00 0.  1.
         25    2    1    2    0    0  0.86863026575E+01 -0.25802784620E+02  0.27824453072E+03  0.30628215617E+03  0.12508998668E+03 0.  0.
          5    1    3    3  502    0  0.61167548886E+02 -0.28759703239E+02  0.10293407288E+03  0.12321317027E+03  0.41800000000E+01 0.  1.
         -5    1    3    3    0  502 -0.52481246229E+02  0.29569186194E+01  0.17531045783E+03  0.18306898590E+03  0.41800000000E+01 0.  1.
        -11    1    1    2    0    0  0.33929572237E+02  0.24894502774E+02  0.46665978181E+02  0.62838409115E+02  0.00000000000E+00 0.  1.
         11    1    1    2    0    0 -0.42615874895E+02  0.90828184592E+00  0.15019014746E+03  0.15612180554E+03  0.00000000000E+00 0. -1.
</event>
<event>
 7    1  0.2820496E-009  0.1062775E+03  0.7561462E-02  0.1267623E+00
         -1   -1    0    0    0  501 -0.00000000000E+00  0.00000000000E+00  0.30958409887E+02  0.30958409887E+02  0.00000000000E+00 0.  1.
          1   -1    0    0  501    0  0.00000000000E+00 -0.00000000000E+00 -0.65566021836E+03  0.65566021836E+03  0.00000000000E+00 0. -1.
         25    2    1    2    0    0 -0.45847205448E+02 -0.77433415799E+01 -0.14838524760E+03  0.19956802889E+03  0.12508913168E+03 0.  0.
          5    1    3    3  502    0 -0.48316539473E+02 -0.52719433101E+02 -0.13426388336E+03  0.15217782160E+03  0.41800000000E+01 0. -1.
         -5    1    3    3    0  502  0.24693340246E+01  0.44976091521E+02 -0.14121364240E+02  0.47390207290E+02  0.41800000000E+01 0. -1.
        -11    1    1    2    0    0 -0.12839896399E+02 -0.25273015457E+02 -0.76090724019E+02  0.81199670760E+02  0.00000000000E+00 0.  1.
         11    1    1    2    0    0  0.58687101847E+02  0.33016357037E+02 -0.40022583686E+03  0.40585092860E+03  0.00000000000E+00 0. -1.
</event>
<event>
 7    1  0.2820496E-009  0.8532140E+02  0.7561462E-02  0.1314594E+00
          4   -1    0    0  501    0  0.00000000000E+00  0.00000000000E+00  0.14368317571E+03  0.14368317571E+03  0.00000000000E+00 0. -1.
         -4   -1    0    0    0  501 -0.00000000000E+00 -0.00000000000E+00 -0.10479110566E+03  0.10479110566E+03  0.00000000000E+00 0.  1.
         25    2    1    2    0    0 -0.21450330917E+02  0.27969380721E+02  0.68183099348E+02  0.14676042557E+03  0.12508910634E+03 0.  0.
          5    1    3    3  502    0  0.34206748358E+02  0.57117495967E+02  0.30211429516E+02  0.73230545896E+02  0.41800000000E+01 0.  1.
         -5    1    3    3    0  502 -0.55657079275E+02 -0.29148115245E+02  0.37971669831E+02  0.73529879679E+02  0.41800000000E+01 0.  1.
        -11    1    1    2    0    0 -0.33023714576E+01 -0.95761812716E+01 -0.58420962824E+02  0.59292645432E+02  0.00000000000E+00 0.  1.
         11    1    1    2    0    0  0.24752702375E+02 -0.18393199450E+02  0.29129933533E+02  0.42421210361E+02  0.00000000000E+00 0. -1.
</event>
<event>
 6    1  0.2820496E-009  0.1275939E+03  0.7561462E-02  0.1231070E+00
         -4   -1    0    0    0  501 -0.00000000000E+00  0.00000000000E+00  0.55789503720E+02  0.55789503720E+02  0.00000000000E+00 0. -1.
          4   -1    0    0  501    0  0.00000000000E+00 -0.00000000000E+00 -0.46206841157E+03  0.46206841157E+03  0.00000000000E+00 0.  1.
          5    1    1    2  502    0  0.98245062646E+01  0.29133136809E+02 -0.19454467205E+03  0.19700345786E+03  0.41800000000E+01 0.  1.
         -5    1    1    2    0  502  0.78825983801E+02 -0.63318086871E+02 -0.14146317578E+03  0.17393107355E+03  0.41800000000E+01 0.  1.
        -11    1    1    2    0    0 -0.37960964614E+02 -0.24684236629E+02 -0.51854007246E+01  0.45576690896E+02  0.00000000000E+00 0.  1.
         11    1    1    2    0    0 -0.50689525451E+02  0.58869186690E+02 -0.65085659295E+02  0.10134669298E+03  0.00000000000E+00 0. -1.
</event>
<event>
 7    1  0.2820496E-009  0.1197564E+03  0.7561462E-02  0.1243499E+00
          2   -1    0    0  501    0  0.00000000000E+00  0.00000000000E+00  0.10709489836E+04  0.10709489836E+04  0.00000000000E+00 0. -1.
         -2   -1    0    0    0  501 -0.00000000000E+00 -0.00000000000E+00 -0.25450278340E+02  0.25450278340E+02  0.00000000000E+00 0.  1.
         25    2    1    2    0    0  0.69502804936E+02  0.65683067419E+02  0.81641838105E+03  0.83146336937E+03  0.12508979351E+03 0.  0.
          5    1    3    3  502    0  0.98376073034E+02  0.54898518262E+02  0.45692162176E+03  0.47062356495E+03  0.41800000000E+01 0. -1.
         -5    1    3    3    0  502 -0.28873268098E+02  0.10784549157E+02  0.35949675929E+03  0.36083980442E+03  0.41800000000E+01 0. -1.
        -11    1    1    2    0    0 -0.31836951434E+02 -0.32105156649E+02  0.20330887171E+03  0.20827585044E+03  0.00000000000E+00 0. -1.
         11    1    1    2    0    0 -0.37665853502E+02 -0.33577910770E+02  0.25771452510E+02  0.56660042148E+02  0.00000000000E+00 0.  1.
</event>
<event>
 7    1  0.2820496E-009  0.1027127E+03  0.7561462E-02  0.1274693E+00
         -1   -1    0    0    0  501 -0.00000000000E+00  0.00000000000E+00  0.21374280034E+02  0.21374280034E+02  0.00000000000E+00 0.  1.
          1   -1    0    0  501    0  0.00000000000E+00 -0.00000000000E+00 -0.62031248937E+03  0.62031248937E+03  0.00000000000E+00 0. -1.
         25    2    1    2    0    0  0.27866391796E+02  0.19340280909E+02 -0.39013389065E+03  0.41109153833E+03  0.12506485516E+03 0.  0.
          5    1    3    3  502    0  0.44669097943E+02 -0.31036300914E+02 -0.31067966667E+03  0.31543288980E+03  0.41800000000E+01 0.  1.
         -5    1    3    3    0  502 -0.16802706147E+02  0.50376581823E+02 -0.79454223974E+02  0.95658648524E+02  0.41800000000E+01 0.  1.
        -11    1    1    2    0    0 -0.57420680537E+02 -0.31675367101E+02 -0.14782317156E+03  0.16171627465E+03  0.00000000000E+00 0.  1.
         11    1    1    2    0    0  0.29554288741E+02  0.12335086192E+02 -0.60981147126E+02  0.68878956432E+02  0.00000000000E+00 0. -1.
</event>
<event>
 7    1  0.2820496E-009  0.9882502E+02  0.7561462E-02  0.1282786E+00
          3   -1    0    0  501    0  0.00000000000E+00  0.00000000000E+00  0.96847584268E+02  0.96847584268E+02  0.00000000000E+00 0. -1.
         -3   -1    0    0    0  501 -0.00000000000E+00 -0.00000000000E+00 -0.13117559902E+03  0.13117559902E+03  0.00000000000E+00 0.  1.
         25    2    1    2    0    0 -0.20630584425E+01  0.30241378546E+02 -0.22219423703E+02  0.13061411203E+03  0.12509015263E+03 0.  0.
          5    1    3    3  502    0  0.67699783817E+01 -0.34898717601E+02  0.29883894437E+02  0.46629096540E+02  0.41800000000E+01 0.  1.
         -5    1    3    3    0  502 -0.88330368242E+01  0.65140096147E+02 -0.52103318140E+02  0.83985015490E+02  0.41800000000E+01 0.  1.
        -11    1    1    2    0    0  0.30399074142E+02 -0.52018195169E+02 -0.20549691553E+01  0.60284485861E+02  0.00000000000E+00 0.  1.
         11    1    1    2    0    0 -0.28336015699E+02  0.21776816623E+02 -0.10053621897E+02  0.37124585401E+02  0.00000000000E+00 0. -1.
</event>
<event>
 7    1  0.2820496E-009  0.8995416E+02  0.7561462E-02  0.1302963E+00
          2   -1    0    0  501    0  0.00000000000E+00  0.00000000000E+00  0.79931112961E+02  0.79931112961E+02  0.00000000000E+00 0.  1.
         -2   -1    0    0    0  501 -0.00000000000E+00 -0.00000000000E+00 -0.18418079033E+03  0.18418079033E+03  0.00000000000E+00 0. -1.
         25    2    1    2    0    0  0.39214054979E+02  0.20797692492E+02 -0.91048369164E+02  0.16095996610E+03  0.12509204227E+03 0.  0.
          5    1    3    3  502    0 -0.51059505801E+01 -0.36963875465E+02 -0.78424534507E+02  0.86949863906E+02  0.41800000000E+01 0.  1.
         -5    1    3    3    0  502  0.44320005559E+02  0.57761567957E+02 -0.12623834658E+02  0.74010102196E+02  0.41800000000E+01 0.  1.
        -11    1    1    2    0    0 -0.15994084000E+01  0.16432721855E+02 -0.40403180809E+02  0.43646414220E+02  0.00000000000E+00 0. -1.
         11    1    1    2    0    0 -0.37614646579E+02 -0.37230414347E+02  0.27201872608E+02  0.59505522963E+02  0.00000000000E+00 0.  1.
</event>
<event>
 7    1  0.2820496E-009  0.1041341E+03  0.7561462E-02  0.1271835E+00
          3   -1    0    0  501    0  0.00000000000E+00  0.00000000000E+00  0.43845672502E+02  0.43845672502E+02  0.00000000000E+00 0.  1.
         -3   -1    0    0    0  501 -0.00000000000E+00 -0.00000000000E+00 -0.51391200324E+03  0.51391200324E+03  0.00000000000E+00 0. -1.
         25    2    1    2    0    0  0.96758356790E+02 -0.33191783747E+02 -0.28742145761E+03  0.32973082538E+03  0.12508976296E+03 0.  0.
          5    1    3    3  502    0  0.43242826054E+02 -0.16324759714E+02 -0.26520856181E+03  0.26923872946E+03  0.41800000000E+01 0. -1.
         -5    1    3    3    0  502  0.53515530736E+02 -0.16867024034E+02 -0.22212895803E+02  0.60492095927E+02  0.41800000000E+01 0. -1.
        -11    1    1    2    0    0 -0.54793142327E+02  0.32324944232E+02 -0.17387296903E+03  0.18514588795E+03  0.00000000000E+00 0. -1.
         11    1    1    2    0    0 -0.41965214463E+02  0.86683951567E+00 -0.87719041038E+01  0.42880962411E+02  0.00000000000E+00 0.  1.
</event>
<event>
 7    1  0.2820496E-009  0.9905720E+02  0.7561462E-02  0.1282291E+00
         -2   -1    0    0    0  501 -0.00000000000E+00  0.00000000000E+00  0.12508643019E+02  0.12508643019E+02  0.00000000000E+00 0.  1.
          2   -1    0    0  501    0  0.00000000000E+00 -0.00000000000E+00 -0.16576094119E+04  0.16576094119E+04  0.00000000000E+00 0. -1.
         25    2    1    2    0    0 -0.82618891814E+02 -0.16409466113E+02 -0.11599943163E+04  0.11697562495E+04  0.12509083720E+03 0.  0.
          5    1    3    3  502    0 -0.32177494150E+02 -0.20506386373E+02 -0.81708831497E+02  0.90275736256E+02  0.41800000000E+01 0.  1.
         -5    1    3    3    0  502 -0.50441397664E+02  0.40969202603E+01 -0.10782854848E+04  0.10794805132E+04  0.41800000000E+01 0.  1.
        -11    1    1    2    0    0  0.19390566961E+02  0.37566614910E+02 -0.87195730543E+02  0.96903767047E+02  0.00000000000E+00 0.  1.
         11    1    1    2    0    0  0.63228324853E+02 -0.21157148797E+02 -0.39791072202E+03  0.40345803835E+03  0.00000000000E+00 0. -1.
</event>
<event>
 7    1  0.2820496E-009  0.9983728E+02  0.7561462E-02  0.1280638E+00
         -4   -1    0    0    0  501 -0.00000000000E+00  0.00000000000E+00  0.35179033043E+02  0.35179033043E+02  0.00000000000E+00 0.  1.
          4   -1    0    0  501    0  0.00000000000E+00 -0.00000000000E+00 -0.44673891930E+03  0.44673891930E+03  0.00000000000E+00 0. -1.
         25    2    1    2    0    0  0.29583128226E+02  0.52426391551E+02 -0.18829397342E+03  0.23393350934E+03  0.12508628365E+03 0.  0.
          5    1    3    3  502    0  0.36083306580E+02  0.91600304019E+02 -0.12628751502E+03  0.16018311259E+03  0.41800000000E+01 0. -1.
         -5    1    3    3    0  502 -0.65001783533E+01 -0.39173912468E+02 -0.62006458403E+02  0.73750396747E+02  0.41800000000E+01 0. -1.
        -11    1    1    2    0    0 -0.19138982803E+02 -0.43279742036E+02 -0.22834826597E+03  0.23320027295E+03  0.00000000000E+00 0. -1.
         11    1    1    2    0    0 -0.10444145424E+02 -0.91466495154E+01  0.50823531280E+01  0.14784170058E+02  0.00000000000E+00 0.  1.
</event>
<event>
 7    1  0.2820496E-009  0.1487703E+03  0.7561462E-02  0.1201992E+00
         -2   -1    0    0    0  501 -0.00000000000E+00  0.00000000000E+00  0.66105315584E+02  0.66105315584E+02  0.00000000000E+00 0.  1.
          2   -1    0    0  501    0  0.00000000000E+00 -0.00000000000E+00 -0.36229474339E+03  0.36229474339E+03  0.00000000000E+00 0. -1.
         25    2    1    2    0    0 -0.13789651550E+02  0.10071755914E+03 -0.21215069332E+03  0.26643774830E+03  0.12508787245E+03 0.  0.
          5    1    3    3  502    0  0.23862204274E+02  0.11674421644E+03 -0.14545640863E+03  0.18807885601E+03  0.41800000000E+01 0. -1.
         -5    1    3    3    0  502 -0.37651855824E+02 -0.16026657304E+02 -0.66694284688E+02  0.78358892293E+02  0.41800000000E+01 0. -1.
        -11    1    1    2    0    0 -0.36740578908E+02 -0.19692132003E+02 -0.15727385806E+02  0.44553348535E+02  0.00000000000E+00 0. -1.
         11    1    1    2    0    0  0.50530230458E+02 -0.81025427133E+02 -0.68311348684E+02  0.11740896214E+03  0.00000000000E+00 0.  1.
</event>
<event>
 7    1  0.2820496E-009  0.1358088E+03  0.7561462E-02  0.1219082E+00
          2   -1    0    0  501    0  0.00000000000E+00  0.00000000000E+00  0.75624629900E+03  0.75624629900E+03  0.00000000000E+00 0. -1.
         -2   -1    0    0    0  501 -0.00000000000E+00 -0.00000000000E+00 -0.32259587071E+02  0.32259587071E+02  0.00000000000E+00 0.  1.
         25    2    1    2    0    0  0.80661135547E+02 -0.70421462877E+02  0.41434423749E+03  0.44586478528E+03  0.12509539715E+03 0.  0.
          5    1    3    3  502    0  0.18196744955E+02  0.31518503401E+02  0.16879836317E+03  0.17272781302E+03  0.41800000000E+01 0.  1.
         -5    1    3    3    0  502  0.62464390592E+02 -0.10193996628E+03  0.24554587432E+03  0.27313697226E+03  0.41800000000E+01 0.  1.
        -11    1    1    2    0    0 -0.66831764783E+02  0.31177946592E+02  0.78201686058E+02  0.10748978017E+03  0.00000000000E+00 0.  1.
         11    1    1    2    0    0 -0.13829370764E+02  0.39243516285E+02  0.23144078839E+03  0.23515132063E+03  0.00000000000E+00 0. -1.
</event>
<event>
 7    1  0.2820496E-009  0.1373946E+03  0.7561462E-02  0.1216878E+00
         -1   -1    0    0    0  501 -0.00000000000E+00  0.00000000000E+00  0.11241766912E+03  0.11241766912E+03  0.00000000000E+00 0.  1.
          1   -1    0    0  501    0  0.00000000000E+00 -0.00000000000E+00 -0.27462878601E+03  0.27462878601E+03  0.00000000000E+00 0. -1.
         25    2    1    2    0    0 -0.85683792246E+01 -0.12651029692E+03 -0.29124430625E+02  0.18048450142E+03  0.12509256751E+03 0.  0.
          5    1    3    3  502    0 -0.26880098245E+02 -0.17247226089E+02  0.38829524170E+02  0.50450082623E+02  0.41800000000E+01 0. -1.
         -5    1    3    3    0  502  0.18311719021E+02 -0.10926307083E+03 -0.67953954795E+02  0.13003441880E+03  0.41800000000E+01 0. -1.
        -11    1    1    2    0    0 -0.12349501761E+02  0.76722791426E+02 -0.18492212202E+02  0.79880278104E+02  0.00000000000E+00 0.  1.
         11    1    1    2    0    0  0.20917880986E+02  0.49787505493E+02 -0.11459447406E+03  0.12668167560E+03  0.00000000000E+00 0. -1.
</event>
<event>
 7    1  0.2820496E-009  0.2277319E+03  0.7561462E-02  0.1128246E+00
          1   -1    0    0  501    0  0.00000000000E+00  0.00000000000E+00  0.77550296762E+03  0.77550296762E+03  0.00000000000E+00 0. -1.
         -1   -1    0    0    0  501 -0.00000000000E+00 -0.00000000000E+00 -0.71111341665E+02  0.71111341665E+02  0.00000000000E+00 0.  1.
         25    2    1    2    0    0  0.14805591723E+03  0.14165207824E+03  0.42396670443E+03  0.48721685410E+03  0.12508649232E+03 0.  0.
          5    1    3    3  502    0  0.85445084446E+01 -0.22412423224E+02  0.35911184838E+02  0.43386759914E+02  0.41800000000E+01 0. -1.
         -5    1    3    3    0  502  0.13951140879E+03  0.16406450147E+03  0.38805551959E+03  0.44383009419E+03  0.41800000000E+01 0. -1.
        -11    1    1    2    0    0 -0.11279468108E+03 -0.14084498046E+03  0.26569297468E+03  0.32117394881E+03  0.00000000000E+00 0.  1.
         11    1    1    2    0    0 -0.35261236148E+02 -0.80709778379E+00  0.14731946846E+02  0.38223506373E+02  0.00000000000E+00 0. -1.
</event>
<event>
 7    1  0.2820496E-009  0.1546196E+03  0.7561462E-02  0.1194909E+00
         -2   -1    0    0    0  501 -0.00000000000E+00  0.00000000000E+00  0.22982451512E+03  0.22982451512E+03  0.00000000000E+00 0.  1.
          2   -1    0    0  501    0  0.00000000000E+00 -0.00000000000E+00 -0.16596408860E+03  0.16596408860E+03  0.00000000000E+00 0. -1.
         25    2    1    2    0    0  0.44749050198E+01  0.14930760713E+03  0.99059416774E+02  0.21857067794E+03  0.12509031491E+03 0.  0.
          5    1    3    3  502    0 -0.55559307804E+01  0.21546203026E+02 -0.29374519973E+02  0.37086952629E+02  0.41800000000E+01 0.  1.
         -5    1    3    3    0  502  0.10030835800E+02  0.12776140411E+03  0.12843393675E+03  0.18148372532E+03  0.41800000000E+01 0.  1.
        -11    1    1    2    0    0 -0.28509543747E+02 -0.72848546981E+02  0.18952117138E+02  0.80491537604E+02  0.00000000000E+00 0.  1.
         11    1    1    2    0    0  0.24034638728E+02 -0.76459060150E+02 -0.54151107388E+02  0.96726388174E+02  0.00000000000E+00 0. -1.
</event>
<event>
 6    1  0.2820496E-009  0.1740535E+03  0.7561462E-02  0.1173685E+00
          3   -1    0    0  501    0  0.00000000000E+00  0.00000000000E+00  0.17193190670E+03  0.17193190670E+03  0.00000000000E+00 0. -1.
         -3   -1    0    0    0  501 -0.00000000000E+00 -0.00000000000E+00 -0.34706535407E+03  0.34706535407E+03  0.00000000000E+00 0.  1.
          5    1    1    2  502    0 -0.89070142928E+02  0.26583045929E+02 -0.44058474150E+02  0.10295032898E+03  0.41800000000E+01 0.  1.
         -5    1    1    2    0  502 -0.43914022650E+02  0.67182943225E+02 -0.20131678136E+03  0.21676694421E+03  0.41800000000E+01 0.  1.
        -11    1    1    2    0    0  0.13071200898E+03 -0.65267289751E+02  0.28766321002E+02  0.14890584148E+03  0.00000000000E+00 0.  1.
         11    1    1    2    0    0  0.22721566024E+01 -0.28498699403E+02  0.41475487131E+02  0.50374146107E+02  0.00000000000E+00 0. -1.
</event>
<event>
 7    1  0.2820496E-009  0.9179032E+02  0.7561462E-02  0.1298573E+00
          4   -1    0    0  501    0  0.00000000000E+00  0.00000000000E+00  0.40418644053E+03  0.40418644053E+03  0.00000000000E+00 0. -1.
         -4   -1    0    0    0  501 -0.00000000000E+00 -0.00000000000E+00 -0.33994722936E+02  0.33994722936E+02  0.00000000000E+00 0.  1.
         25    2    1    2    0    0  0.17165356535E+01  0.27148097830E+02  0.14460668907E+03  0.19312580094E+03  0.12508602941E+03 0.  0.
          5    1    3    3  502    0 -0.36781371468E+02 -0.61835299730E+01 -0.22862365007E+01  0.37600593178E+02  0.41800000000E+01 0.  1.
         -5    1    3    3    0  502  0.38497907122E+02  0.33331627803E+02  0.14689292557E+03  0.15552520776E+03  0.41800000000E+01 0.  1.
        -11    1    1    2    0    0  0.21536099615E+02  0.27872720845E+02  0.69150545565E+02  0.77604704148E+02  0.00000000000E+00 0.  1.
         11    1    1    2    0    0 -0.23252635269E+02 -0.55020818675E+02  0.15643448295E+03  0.16745065838E+03  0.00000000000E+00 0. -1.
</event>
<event>
 7    1  0.2820496E-009  0.3340356E+03  0.7561462E-02  0.1069365E+00
          1   -1    0    0  501    0  0.00000000000E+00  0.00000000000E+00  0.91040164513E+03  0.91040164513E+03  0.00000000000E+00 0. -1.
         -1   -1    0    0    0  501 -0.00000000000E+00 -0.00000000000E+00 -0.14091957208E+03  0.14091957208E+03  0.00000000000E+00 0.  1.
         25    2    1    2    0    0  0.25323883497E+03 -0.20835133039E+03  0.25356435762E+03  0.43299200244E+03  0.12508799427E+03 0.  0.
          5    1    3    3  502    0  0.16410068425E+03 -0.11111853232E+03  0.22136344604E+03  0.29714577305E+03  0.41800000000E+01 0. -1.
         -5    1    3    3    0  502  0.89138150719E+02 -0.97232798069E+02  0.32200911580E+02  0.13584622939E+03  0.41800000000E+01 0. -1.
        -11    1    1    2    0    0 -0.14445939629E+03  0.66286960478E+02  0.28350005203E+03  0.32501501167E+03  0.00000000000E+00 0. -1.
         11    1    1    2    0    0 -0.10877943868E+03  0.14206436991E+03  0.23241766340E+03  0.29331420310E+03  0.00000000000E+00 0.  1.
</event>
<event>
 7    1  0.2820496E-009  0.1875815E+03  0.7561462E-02  0.1160661E+00
          2   -1    0    0  501    0  0.00000000000E+00  0.00000000000E+00  0.52623189449E+03  0.52623189449E+03  0.00000000000E+00 0. -1.
         -2   -1    0    0    0  501 -0.00000000000E+00 -0.00000000000E+00 -0.99946846488E+02  0.99946846488E+02  0.00000000000E+00 0.  1.
         25    2    1    2    0    0 -0.64014045385E+02  0.13893737448E+03  0.40053001204E+03  0.44662448479E+03  0.12509095824E+03 0.  0.
          5    1    3    3  502    0  0.21234086500E+02  0.10257663842E+03  0.21183422165E+03  0.23635579756E+03  0.41800000000E+01 0. -1.
         -5    1    3    3    0  502 -0.85248131885E+02  0.36360736061E+02  0.18869579040E+03  0.21026868723E+03  0.41800000000E+01 0. -1.
        -11    1    1    2    0    0  0.27816462372E+02 -0.13859223040E+03  0.17597989950E+02  0.14244736276E+03  0.00000000000E+00 0.  1.
         11    1    1    2    0    0  0.36197583014E+02 -0.34514408348E+00  0.81570460100E+01  0.37106893431E+02  0.00000000000E+00 0. -1.
</event>
<event>
 7    1  0.2820496E-009  0.1215956E+03  0.7561462E-02  0.1240488E+00
          2   -1    0    0  501    0  0.00000000000E+00  0.00000000000E+00  0.21595140193E+04  0.21595140193E+04  0.00000000000E+00 0.  1.
         -2   -1    0    0    0  501 -0.00000000000E+00 -0.00000000000E+00 -0.10034603283E+02  0.10034603283E+02  0.00000000000E+00 0. -1.
         25    2    1    2    0    0  0.11952830781E+02  0.86585906189E+02  0.14987808850E+04  0.15065299602E+04  0.12509352575E+03 0.  0.
          5    1    3    3  502    0 -0.32051632606E+02  0.28409629379E+02  0.15787469712E+03  0.16363467415E+03  0.41800000000E+01 0. -1.
         -5    1    3    3    0  502  0.44004463387E+02  0.58176276810E+02  0.13409061879E+04  0.13428952860E+04  0.41800000000E+01 0. -1.
        -11    1    1    2    0    0 -0.86802267476E+01 -0.10652995234E+03  0.53593144132E+03  0.54648557793E+03  0.00000000000E+00 0.  1.
         11    1    1    2    0    0 -0.32726040333E+01  0.19944046155E+02  0.11476708960E+03  0.11653308444E+03  0.00000000000E+00 0. -1.
</event>
<event>
 7    1  0.2820496E-009  0.1058348E+03  0.7561462E-02  0.1268484E+00
         -1   -1    0    0    0  501 -0.00000000000E+00  0.00000000000E+00  0.41758658229E+03  0.41758658229E+03  0.00000000000E+00 0.  1.
          1   -1    0    0  501    0  0.00000000000E+00 -0.00000000000E+00 -0.42409627977E+02  0.42409627977E+02  0.00000000000E+00 0. -1.
         25    2    1    2    0    0 -0.23080779091E+02 -0.62842173716E+02  0.14223771911E+03  0.20090167393E+03  0.12509217678E+03 0.  0.
          5    1    3    3  502    0 -0.25515928512E+02  0.17525651942E+02  0.10970308900E+03  0.11406336493E+03  0.41800000000E+01 0. -1.
         -5    1    3    3    0  502  0.24351494211E+01 -0.80367825658E+02  0.32534630112E+02  0.86838309001E+02  0.41800000000E+01 0. -1.
        -11    1    1    2    0    0  0.49249238761E+02  0.29043257059E+02  0.68677445124E+02  0.89362127145E+02  0.00000000000E+00 0.  1.
         11    1    1    2    0    0 -0.26168459670E+02  0.33798916657E+02  0.16426179008E+03  0.16973240919E+03  0.00000000000E+00 0. -1.
</event>
<event>
 7    1  0.2820496E-009  0.1529554E+03  0.7561462E-02  0.1196888E+00
          2   -1    0    0  501    0  0.00000000000E+00  0.00000000000E+00  0.14221467064E+04  0.14221467064E+04  0.00000000000E+00 0. -1.
         -2   -1    0    0    0  501 -0.00000000000E+00 -0.00000000000E+00 -0.20213343159E+02  0.20213343159E+02  0.00000000000E+00 0.  1.
         25    2    1    2    0    0  0.10935065092E+03  0.68047769299E+02  0.85516117464E+03  0.87380561382E+03  0.12509017692E+03 0.  0.
          5    1    3    3  502    0  0.86102314845E+02 -0.17807484482E+02  0.49745377521E+03  0.50518159705E+03  0.41800000000E+01 0.  1.
         -5    1    3    3    0  502  0.23248336077E+02  0.85855253780E+02  0.35770739943E+03  0.36862401677E+03  0.41800000000E+01 0.  1.
        -11    1    1    2    0    0 -0.15380990861E+02 -0.11022264281E+02  0.11566032101E+02  0.22177427450E+02  0.00000000000E+00 0.  1.
         11    1    1    2    0    0 -0.93969660061E+02 -0.57025505018E+02  0.53520615647E+03  0.54637700826E+03  0.00000000000E+00 0. -1.
</event>
<event>
 7    1  0.2820496E-009  0.8239759E+02  0.7561462E-02  0.1322382E+00
         -2   -1    0    0    0  501 -0.00000000000E+00  0.00000000000E+00  0.40008804352E+02  0.40008804352E+02  0.00000000000E+00 0.  1.
          2   -1    0    0  501    0  0.00000000000E+00 -0.00000000000E+00 -0.38147096287E+03  0.38147096287E+03  0.00000000000E+00 0. -1.
         25    2    1    2    0    0  0.52122787525E+02  0.12403580718E+02 -0.14260330541E+03  0.19711255576E+03  0.12508806149E+03 0.  0.
          5    1    3    3  502    0  0.50666241946E+02 -0.35090208592E+02 -0.19006187144E+02  0.64630475487E+02  0.41800000000E+01 0.  1.
         -5    1    3    3    0  502  0.14565455789E+01  0.47493789310E+02 -0.12359711827E+03  0.13248208027E+03  0.41800000000E+01 0.  1.
        -11    1    1    2    0    0 -0.19052400531E+02  0.21857441407E+01  0.29006687017E+01  0.19395497477E+02  0.00000000000E+00 0.  1.
         11    1    1    2    0    0 -0.33070386993E+02 -0.14589324859E+02 -0.20175952181E+03  0.20497171399E+03  0.00000000000E+00 0. -1.
</event>
<event>
 7    1  0.2820496E-009  0.6414275E+02  0.7561462E-02  0.1381225E+00
         -2   -1    0    0    0  501 -0.00000000000E+00  0.00000000000E+00  0.49641233415E+03  0.49641233415E+03  0.00000000000E+00 0.  1.
          2   -1    0    0  501    0  0.00000000000E+00 -0.00000000000E+00 -0.22987764353E+02  0.22987764353E+02  0.00000000000E+00 0. -1.
         25    2    1    2    0    0 -0.34798796487E+02 -0.19146624355E+02  0.26225909158E+03  0.29326696564E+03  0.12509249600E+03 0.  0.
          5    1    3    3  502    0 -0.35516152754E+02  0.10500505213E+02  0.26062175414E+03  0.26327329688E+03  0.41800000000E+01 0.  1.
         -5    1    3    3    0  502  0.71735626682E+00 -0.29647129569E+02  0.16373374350E+01  0.29993668758E+02  0.41800000000E+01 0.  1.
        -11    1    1    2    0    0 -0.61765183072E+01 -0.93139543456E+01  0.23234774829E+01  0.11414800549E+02  0.00000000000E+00 0. -1.
         11    1    1    2    0    0  0.40975314794E+02  0.28460578701E+02  0.20884200073E+03  0.21471833232E+03  0.00000000000E+00 0.  1.
</event>
<event>
 7    1  0.2820496E-009  0.7885393E+02  0.7561462E-02  0.1332336E+00
         -2   -1    0    0    0  501 -0.00000000000E+00  0.00000000000E+00  0.49406627551E+02  0.49406627551E+02  0.00000000000E+00 0.  1.
          2   -1    0    0  501    0  0.00000000000E+00 -0.00000000000E+00 -0.27035876542E+03  0.27035876542E+03  0.00000000000E+00 0. -1.
         25    2    1    2    0    0  0.28650066763E+02  0.28423315804E+01 -0.16716857599E+03  0.21076435106E+03  0.12508946279E+03 0.  0.
          5    1    3    3  502    0  0.13619741838E+02  0.30260619573E+02  0.66543147828E+01  0.34102122660E+02  0.41800000000E+01 0. -1.
         -5    1    3    3    0  502  0.15030324924E+02 -0.27418287992E+02 -0.17382289078E+03  0.17666222840E+03  0.41800000000E+01 0. -1.
        -11    1    1    2    0    0 -0.50202518292E+02  0.26137957146E+02 -0.21454889942E+02  0.60529314791E+02  0.00000000000E+00 0.  1.
         11    1    1    2    0    0  0.21552451530E+02 -0.28980288726E+02 -0.32328671936E+02  0.48471727128E+02  0.00000000000E+00 0. -1.
</event>
<event>
 6    1  0.2820496E-009  0.1579562E+03  0.7561462E-02  0.1191024E+00
          2   -1    0    0  501    0  0.00000000000E+00  0.00000000000E+00  0.64307615767E+03  0.64307615767E+03  0.00000000000E+00 0.  1.
         -2   -1    0    0    0  501 -0.00000000000E+00 -0.00000000000E+00 -0.87901068893E+02  0.87901068893E+02  0.00000000000E+00 0. -1.
          5    1    1    2  502    0  0.15222662181E+03  0.25763991776E+02  0.38436092235E+03  0.41423123819E+03  0.41800000000E+01 0. -1.
         -5    1    1    2    0  502 -0.17984029848E+02 -0.55994630901E+01  0.14690309771E+03  0.14816467809E+03  0.41800000000E+01 0. -1.
        -11    1    1    2    0    0 -0.53869255483E+02 -0.29228386296E+02  0.54590922266E+02  0.82075355897E+02  0.00000000000E+00 0.  1.
         11    1    1    2    0    0 -0.80373336477E+02  0.90638576099E+01 -0.30679853549E+02  0.86505954390E+02  0.00000000000E+00 0. -1.
</event>
<event>
 7    1  0.2820496E-009  0.1408670E+03  0.7561462E-02  0.1212167E+00
          4   -1    0    0  501    0  0.00000000000E+00  0.00000000000E+00  0.10409010923E+03  0.10409010923E+03  0.00000000000E+00 0. -1.
         -4   -1    0    0    0  501 -0.00000000000E+00 -0.00000000000E+00 -0.27924934961E+03  0.27924934961E+03  0.00000000000E+00 0.  1.
         25    2    1    2    0    0  0.51723182169E+02 -0.10620702464E+03 -0.31362083076E+02  0.17488369481E+03  0.12508200030E+03 0.  0.
          5    1    3    3  502    0  0.26835851530E+02  0.87203856791E+00 -0.55911678400E+02  0.62165195729E+02  0.41800000000E+01 0. -1.
         -5    1    3    3    0  502  0.24887330639E+02 -0.10707906321E+03  0.24549595324E+02  0.11271849908E+03  0.41800000000E+01 0. -1.
        -11    1    1    2    0    0 -0.70229286454E+02  0.52331782719E+02 -0.56531304136E+02  0.10424277676E+03  0.00000000000E+00 0.  1.
         11    1    1    2    0    0  0.18506104285E+02  0.53875241922E+02 -0.87265853171E+02  0.10421298728E+03  0.00000000000E+00 0. -1.
</event>
<event>
 7    1  0.2820496E-009  0.1292587E+03  0.7561462E-02  0.1228560E+00
          2   -1    0    0  501    0  0.00000000000E+00  0.00000000000E+00  0.67000523569E+03  0.67000523569E+03  0.00000000000E+00 0. -1.
         -2   -1    0    0    0  501 -0.00000000000E+00 -0.00000000000E+00 -0.35893756117E+02  0.35893756117E+02  0.00000000000E+00 0.  1.
         25    2    1    2    0    0 -0.34163119920E+02  0.10546513183E+03  0.32960164191E+03  0.36955841564E+03  0.12508464105E+03 0.  0.
          5    1    3    3  502    0 -0.49116074211E+01 -0.50565713785E+01  0.18496293128E+03  0.18514440621E+03  0.41800000000E+01 0. -1.
         -5    1    3    3    0  502 -0.29251512499E+02  0.11052170321E+03  0.14463871063E+03  0.18441400943E+03  0.41800000000E+01 0. -1.
        -11    1    1    2    0    0 -0.25218182217E+02 -0.42121113263E+02  0.16380128309E+03  0.17100001532E+03  0.00000000000E+00 0. -1.
         11    1    1    2    0    0  0.59381302137E+02 -0.63344018564E+02  0.14070855457E+03  0.16534056084E+03  0.00000000000E+00 0.  1.
</event>
<event>
 7    1  0.2820496E-009  0.1016390E+03  0.7561462E-02  0.1276887E+00
          3   -1    0    0  501    0  0.00000000000E+00  0.00000000000E+00  0.63068876586E+03  0.63068876586E+03  0.00000000000E+00 0. -1.
         -3   -1    0    0    0  501 -0.00000000000E+00 -0.00000000000E+00 -0.24359121485E+02  0.24359121485E+02  0.00000000000E+00 0.  1.
         25    2    1    2    0    0 -0.44177295561E+02 -0.12268446073E+02  0.23537678541E+03  0.27046228438E+03  0.12508184501E+03 0.  0.
          5    1    3    3  502    0 -0.28895767820E+02 -0.54226632199E+02  0.48819062276E+02  0.78589224955E+02  0.41800000000E+01 0.  1.
         -5    1    3    3    0  502 -0.15281527741E+02  0.41958186126E+02  0.18655772313E+03  0.19187305942E+03  0.41800000000E+01 0.  1.
        -11    1    1    2    0    0  0.63308805709E+02 -0.13515003693E+02  0.29684867231E+03  0.30382526961E+03  0.00000000000E+00 0.  1.
         11    1    1    2    0    0 -0.19131510148E+02  0.25783449766E+02  0.74104186661E+02  0.80760333351E+02  0.00000000000E+00 0. -1.
</event>
<event>
 7    1  0.2820496E-009  0.1276640E+03  0.7561462E-02  0.1230964E+00
         -2   -1    0    0    0  501 -0.00000000000E+00  0.00000000000E+00  0.93130860917E+02  0.93130860917E+02  0.00000000000E+00 0.  1.
          2   -1    0    0  501    0  0.00000000000E+00 -0.00000000000E+00 -0.21328390136E+03  0.21328390136E+03  0.00000000000E+00 0. -1.
         25    2    1    2    0    0  0.25223786506E+02  0.84541432442E+02 -0.47034006917E+02  0.16013471178E+03  0.12508970743E+03 0.  0.
          5    1    3    3  502    0 -0.16582867971E+02 -0.14451929248E+02 -0.47588662511E+02  0.52592803393E+02  0.41800000000E+01 0.  1.
         -5    1    3    3    0  502  0.41806654478E+02  0.98993361690E+02  0.55465559360E+00  0.10754190839E+03  0.41800000000E+01 0.  1.
        -11    1    1    2    0    0 -0.52002238960E+02 -0.20346274724E+02 -0.22264832786E+02  0.60115942403E+02  0.00000000000E+00 0.  1.
         11    1    1    2    0    0  0.26778452453E+02 -0.64195157718E+02 -0.50854200738E+02  0.86164108090E+02  0.00000000000E+00 0. -1.
</event>
<event>
 7    1  0.2820496E-009  0.1296068E+03  0.7561462E-02  0.1228040E+00
         -2   -1    0    0    0  501 -0.00000000000E+00  0.00000000000E+00  0.31401408254E+03  0.31401408254E+03  0.00000000000E+00 0.  1.
          2   -1    0    0  501    0  0.00000000000E+00 -0.00000000000E+00 -0.11309154750E+03  0.11309154750E+03  0.00000000000E+00 0. -1.
         25    2    1    2    0    0 -0.22292684184E+02 -0.87465426809E+02 -0.35232940919E+02  0.15822517549E+03  0.12508669545E+03 0.  0.
          5    1    3    3  502    0  0.32373320718E+02 -0.80995531270E+02 -0.50592037770E+02  0.10092241904E+03  0.41800000000E+01 0.  1.
         -5    1    3    3    0  502 -0.54666004902E+02 -0.64698955389E+01  0.15359096851E+02  0.57302756446E+02  0.41800000000E+01 0.  1.
        -11    1    1    2    0    0  0.38343684930E+02  0.12971646172E+02  0.14251173965E+03  0.14814890386E+03  0.00000000000E+00 0. -1.
         11    1    1    2    0    0 -0.16051000746E+02  0.74493780638E+02  0.93643736319E+02  0.12073155068E+03  0.00000000000E+00 0.  1.
</event>
<event>
 7    1  0.2820496E-009  0.8598197E+02  0.7561462E-02  0.1312884E+00
          3   -1    0    0  501    0  0.00000000000E+00  0.00000000000E+00  0.90039216069E+03  0.90039216069E+03  0.00000000000E+00 0. -1.
         -3   -1    0    0    0  501 -0.00000000000E+00 -0.00000000000E+00 -0.21864948619E+02  0.21864948619E+02  0.00000000000E+00 0.  1.
         25    2    1    2    0    0  0.67790689595E+02 -0.44090519430E+02  0.61787947885E+03  0.63558004641E+03  0.12508954197E+03 0.  0.
          5    1    3    3  502    0  0.35890083914E+02 -0.39881107836E+02  0.59100026821E+03  0.59344535579E+03  0.41800000000E+01 0.  1.
         -5    1    3    3    0  502  0.31900605681E+02 -0.42094115943E+01  0.26879210640E+02  0.42134690618E+02  0.41800000000E+01 0.  1.
        -11    1    1    2    0    0 -0.15595563181E+02 -0.24297496040E+01 -0.10323667313E+01  0.15817428840E+02  0.00000000000E+00 0.  1.
         11    1    1    2    0    0 -0.52195126415E+02  0.46520269034E+02  0.26168009996E+03  0.27085963407E+03  0.00000000000E+00 0. -1.
</event>
<event>
 7    1  0.2820496E-009  0.1295519E+03  0.7561462E-02  0.1228122E+00
          1   -1    0    0  501    0  0.00000000000E+00  0.00000000000E+00  0.38397476233E+02  0.38397476233E+02  0.00000000000E+00 0.  1.
         -1   -1    0    0    0  501 -0.00000000000E+00 -0.00000000000E+00 -0.76955337642E+03  0.76955337642E+03  0.00000000000E+00 0. -1.
         25    2    1    2    0    0  0.90377718116E+02  0.73691744576E+02 -0.23700640632E+03  0.29226342666E+03  0.12508904340E+03 0.  0.
          5    1    3    3  502    0 -0.15749828150E+01  0.23116413053E+02 -0.16076868873E+03  0.16248351546E+03  0.41800000000E+01 0.  1.
         -5    1    3    3    0  502  0.91952700931E+02  0.50575331523E+02 -0.76237717591E+02  0.12977991120E+03  0.41800000000E+01 0.  1.
        -11    1    1    2    0    0 -0.93886007675E+01 -0.42855918469E+02 -0.68787798269E+02  0.81587601772E+02  0.00000000000E+00 0.  1.
         11    1    1    2    0    0 -0.80989117348E+02 -0.30835826107E+02 -0.42536169560E+03  0.43409982422E+03  0.00000000000E+00 0. -1.
</event>
<event>
 7    1  0.2820496E-009  0.9426652E+02  0.7561462E-02  0.1292837E+00
         -1   -1    0    0    0  501 -0.00000000000E+00  0.00000000000E+00  0.17304586862E+02  0.17304586862E+02  0.00000000000E+00 0.  1.
          1   -1    0    0  501    0  0.00000000000E+00 -0.00000000000E+00 -0.98277360325E+03  0.98277360325E+03  0.00000000000E+00 0. -1.
         25    2    1    2    0    0 -0.42259863102E+00  0.56213427481E+02 -0.70890777125E+03  0.72205049118E+03  0.12508619294E+03 0.  0.
          5    1    3    3  502    0  0.21771757837E+02  0.58726312738E+02 -0.14901046279E+03  0.16169223750E+03  0.41800000000E+01 0. -1.
         -5    1    3    3    0  502 -0.22194356468E+02 -0.25128852570E+01 -0.55989730845E+03  0.56035825368E+03  0.41800000000E+01 0. -1.
        -11    1    1    2    0    0 -0.14725904797E+02  0.20277820809E+02 -0.10040081504E+03  0.10348123477E+03  0.00000000000E+00 0. -1.
         11    1    1    2    0    0  0.15148503428E+02 -0.76491248290E+02 -0.15616043010E+03  0.17454646416E+03  0.00000000000E+00 0.  1.
</event>
<event>
 7    1  0.2820496E-009  0.8354724E+02  0.7561462E-02  0.1319276E+00
         -2   -1    0    0    0  501 -0.00000000000E+00  0.00000000000E+00  0.23775900233E+03  0.23775900233E+03  0.00000000000E+00 0.  1.
          2   -1    0    0  501    0  0.00000000000E+00 -0.00000000000E+00 -0.86588973223E+02  0.86588973223E+02  0.00000000000E+00 0. -1.
         25    2    1    2    0    0 -0.28891908082E+02 -0.47969553025E+02  0.16601572454E+03  0.21527948611E+03  0.12509282943E+03 0.  0.
          5    1    3    3  502    0 -0.28070028878E+02 -0.32981762533E+02 -0.47816807921E+01  0.43772823215E+02  0.41800000000E+01 0.  1.
         -5    1    3    3    0  502 -0.82187920349E+00 -0.14987790492E+02  0.17079740534E+03  0.17150666290E+03  0.41800000000E+01 0.  1.
        -11    1    1    2    0    0 -0.31612971384E+02  0.13883058602E+01 -0.58815979648E+01  0.32185408923E+02  0.00000000000E+00 0.  1.
         11    1    1    2    0    0  0.60504879466E+02  0.46581247165E+02 -0.89640974690E+01  0.76883080519E+02  0.00000000000E+00 0. -1.
</event>
<event>
 7    1  0.2820496E-009  0.9150430E+02  0.7561462E-02  0.1299249E+00
          2   -1    0    0  501    0  0.00000000000E+00  0.00000000000E+00  0.14316768487E+03  0.14316768487E+03  0.00000000000E+00 0. -1.
         -2   -1    0    0    0  501 -0.00000000000E+00 -0.00000000000E+00 -0.86205401658E+02  0.86205401658E+02  0.00000000000E+00 0.  1.
         25    2    1    2    0    0 -0.33494089637E+01 -0.20961851476E+02  0.22224824361E+02  0.12880912652E+03  0.12508889039E+03 0.  0.
          5    1    3    3  502    0 -0.52392316588E+02 -0.18086702865E+02  0.47760217416E+02  0.73284339566E+02  0.41800000000E+01 0.  1.
         -5    1    3    3    0  502  0.49042907624E+02 -0.28751486114E+01 -0.25535393056E+02  0.55524786954E+02  0.41800000000E+01 0.  1.
        -11    1    1    2    0    0 -0.35276116503E+02  0.17390806195E+02  0.45661782614E+02  0.60264773517E+02  0.00000000000E+00 0. -1.
         11    1    1    2    0    0  0.38625525466E+02  0.35710452812E+01 -0.10924323765E+02  0.40299186489E+02  0.00000000000E+00 0.  1.
</event>
<event>
 7    1  0.2820496E-009  0.8928870E+02  0.7561462E-02  0.1304583E+00
          2   -1    0    0  501    0  0.00000000000E+00  0.00000000000E+00  0.19860514852E+03  0.19860514852E+03  0.00000000000E+00 0. -1.
         -2   -1    0    0    0  501 -0.00000000000E+00 -0.00000000000E+00 -0.10240218143E+03  0.10240218143E+03  0.00000000000E+00 0.  1.
         25    2    1    2    0    0  0.34571241159E+02 -0.47751605717E+02 -0.23299603874E+02  0.14023468048E+03  0.12508999762E+03 0.  0.
          5    1    3    3  502    0  0.47006813723E+02 -0.15635930331E+02 -0.67634000232E+02  0.83940176561E+02  0.41800000000E+01 0. -1.
         -5    1    3    3    0  502 -0.12435572564E+02 -0.32115675386E+02  0.44334396358E+02  0.56294503914E+02  0.41800000000E+01 0. -1.
        -11    1    1    2    0    0 -0.56211604817E+02  0.21582409776E+02  0.34867648177E+02  0.69579435304E+02  0.00000000000E+00 0.  1.
         11    1    1    2    0    0  0.21640363658E+02  0.26169195941E+02  0.84634922792E+02  0.91193214174E+02  0.00000000000E+00 0. -1.
</event>
<event>
 7    1  0.2820496E-009  0.3732443E+03  0.7561462E-02  0.1053459E+00
          1   -1    0    0  501    0  0.00000000000E+00  0.00000000000E+00  0.27220902467E+03  0.27220902467E+03  0.00000000000E+00 0. -1.
         -1   -1    0    0    0  501 -0.00000000000E+00 -0.00000000000E+00 -0.51987008700E+03  0.51987008700E+03  0.00000000000E+00 0.  1.
         25    2    1    2    0    0 -0.85766250645E+02 -0.34911669993E+03 -0.10989371783E+03  0.39618343323E+03  0.12508542531E+03 0.  0.
          5    1    3    3  502    0 -0.29975292692E+02 -0.46388521175E+01 -0.11423906062E+01  0.30640081221E+02  0.41800000000E+01 0.  1.
         -5    1    3    3    0  502 -0.55790957953E+02 -0.34447784781E+03 -0.10875132722E+03  0.36554335201E+03  0.41800000000E+01 0.  1.
        -11    1    1    2    0    0  0.95040566512E+02  0.25211132607E+03 -0.12697729621E+03  0.29785241944E+03  0.00000000000E+00 0.  1.
         11    1    1    2    0    0 -0.92743158671E+01  0.97005373863E+02 -0.10790048287E+02  0.98043258998E+02  0.00000000000E+00 0. -1.
</event>
<event>
 7    1  0.2820496E-009  0.1935769E+03  0.7561462E-02  0.1155274E+00
         -2   -1    0    0    0  501 -0.00000000000E+00  0.00000000000E+00  0.16141454980E+03  0.16141454980E+03  0.00000000000E+00 0.  1.
          2   -1    0    0  501    0  0.00000000000E+00 -0.00000000000E+00 -0.27690179682E+03  0.27690179682E+03  0.00000000000E+00 0. -1.
         25    2    1    2    0    0  0.14453165564E+03 -0.95877839244E+02  0.27869283519E+00  0.21384417556E+03  0.12508914507E+03 0.  0.
          5    1    3    3  502    0 -0.14491080585E+02 -0.40951535517E+01 -0.23948355057E+02  0.28596464975E+02  0.41800000000E+01 0.  1.
         -5    1    3    3    0  502  0.15902273622E+03 -0.91782685693E+02  0.24227047892E+02  0.18524771059E+03  0.41800000000E+01 0.  1.
        -11    1    1    2    0    0 -0.33439173789E+02 -0.94850810314E+01 -0.41684564078E+01  0.35007443990E+02  0.00000000000E+00 0. -1.
         11    1    1    2    0    0 -0.11109248185E+03  0.10536292028E+03 -0.11159748345E+03  0.18946472707E+03  0.00000000000E+00 0.  1.
</event>
<event>
 7    1  0.2820496E-009  0.6973294E+02  0.7561462E-02  0.1361004E+00
          3   -1    0    0  501    0  0.00000000000E+00  0.00000000000E+00  0.10388135959E+03  0.10388135959E+03  0.00000000000E+00 0.  1.
         -3   -1    0    0    0  501 -0.00000000000E+00 -0.00000000000E+00 -0.13149928112E+03  0.13149928112E+03  0.00000000000E+00 0. -1.
         25    2    1    2    0    0 -0.18574182294E+02  0.32086495224E+02 -0.27165972479E+02  0.13326719101E+03  0.12509041017E+03 0.  0.
          5    1    3    3  502    0 -0.35623016701E+02  0.55965765131E+02 -0.59637298612E+02  0.89304232662E+02  0.41800000000E+01 0.  1.
         -5    1    3    3    0  502  0.17048834407E+02 -0.23879269907E+02  0.32471326133E+02  0.43962958349E+02  0.41800000000E+01 0.  1.
        -11    1    1    2    0    0  0.16831982824E+02 -0.70333904648E+01  0.45901722892E+02  0.49393849736E+02  0.00000000000E+00 0.  1.
         11    1    1    2    0    0  0.17421994699E+01 -0.25053104760E+02 -0.46353671943E+02  0.52719599957E+02  0.00000000000E+00 0. -1.
</event>
<event>
 7    1  0.2820496E-009  0.3984423E+02  0.7561462E-02  0.1509361E+00
         -2   -1    0    0    0  501 -0.00000000000E+00  0.00000000000E+00  0.10370854510E+03  0.10370854510E+03  0.00000000000E+00 0.  1.
          2   -1    0    0  501    0  0.00000000000E+00 -0.00000000000E+00 -0.13324553547E+03  0.13324553547E+03  0.00000000000E+00 0. -1.
         25    2    1    2    0    0 -0.13955662762E+02 -0.32365333245E+01 -0.60451396658E+02  0.13966053972E+03  0.12508181053E+03 0.  0.
          5    1    3    3  502    0  0.87314358524E+01 -0.46915273009E+01 -0.96358301687E+02  0.96956913650E+02  0.41800000000E+01 0. -1.
         -5    1    3    3    0  502 -0.22687098615E+02  0.14549939764E+01  0.35906905029E+02  0.42703626073E+02  0.41800000000E+01 0. -1.
        -11    1    1    2    0    0 -0.13920385159E+02  0.99896884385E+01  0.56387167763E+02  0.58932874412E+02  0.00000000000E+00 0.  1.
         11    1    1    2    0    0  0.27876047921E+02 -0.67531551139E+01 -0.25472761482E+02  0.38360666433E+02  0.00000000000E+00 0. -1.
</event>
<event>
 7    1  0.2820496E-009  0.1903043E+03  0.7561462E-02  0.1158187E+00
         -1   -1    0    0    0  501 -0.00000000000E+00  0.00000000000E+00  0.11002370356E+03  0.11002370356E+03  0.00000000000E+00 0.  1.
          1   -1    0    0  501    0  0.00000000000E+00 -0.00000000000E+00 -0.36384326698E+03  0.36384326698E+03  0.00000000000E+00 0. -1.
         25    2    1    2    0    0  0.14076848340E+03 -0.87644772840E+02 -0.15804817367E+03  0.26101199704E+03  0.12510261899E+03 0.  0.
          5    1    3    3  502    0  0.82816727949E+02  0.17875521036E+02 -0.85255681239E+02  0.12026698742E+03  0.41800000000E+01 0. -1.
         -5    1    3    3    0  502  0.57951755447E+02 -0.10552029388E+03 -0.72792492426E+02  0.14074500962E+03  0.41800000000E+01 0. -1.
        -11    1    1    2    0    0 -0.68308041562E+02  0.75563299912E+02 -0.13814714251E+02  0.10279419811E+03  0.00000000000E+00 0.  1.
         11    1    1    2    0    0 -0.72460441833E+02  0.12081472928E+02 -0.81956675506E+02  0.11006077539E+03  0.00000000000E+00 0. -1.
</event>
<event>
 7    1  0.3233474E-009  0.1131761E+03  0.7561462E-02  0.1254799E+00
         -1   -1    0    0    0  501 -0.00000000000E+00  0.00000000000E+00  0.58499341660E+02  0.58499341660E+02  0.00000000000E+00 0.  1.
          1   -1    0    0  501    0  0.00000000000E+00 -0.00000000000E+00 -0.30607251380E+03  0.30607251380E+03  0.00000000000E+00 0. -1.
         25    2    1    2    0    0  0.25751085066E+02  0.73620015022E+02 -0.12706209959E+03  0.19461651836E+03  0.12509111508E+03 0.  0.
          5    1    3    3  502    0  0.75472364145E+02  0.52985812774E+02 -0.68413371115E+02  0.11489750151E+03  0.41800000000E+01 0. -1.
         -5    1    3    3    0  502 -0.49721279079E+02  0.20634202249E+02 -0.58648728480E+02  0.79719016853E+02  0.41800000000E+01 0. -1.
        -11    1    1    2    0    0 -0.21807558017E+02 -0.35076113603E+02  0.21121837396E+01  0.41356555131E+02  0.00000000000E+00 0.  1.
         11    1    1    2    0    0 -0.39435270485E+01 -0.38543901420E+02 -0.12262325628E+03  0.12859878197E+03  0.00000000000E+00 0. -1.
</event>
<event>
 7    1  0.2820496E-009  0.8464992E+02  0.7561462E-02  0.1316351E+00
          2   -1    0    0  501    0  0.00000000000E+00  0.00000000000E+00  0.55052764920E+03  0.55052764920E+03  0.00000000000E+00 0. -1.
         -2   -1    0    0    0  501 -0.00000000000E+00 -0.00000000000E+00 -0.29424771349E+02  0.29424771349E+02  0.00000000000E+00 0.  1.
         25    2    1    2    0    0  0.48524287258E+02  0.51730413415E+02  0.25267517334E+03  0.29072808217E+03  0.12508969747E+03 0.  0.
          5    1    3    3  502    0  0.22635088413E+02  0.44953736592E+02  0.16685286510E+02  0.53188878979E+02  0.41800000000E+01 0.  1.
         -5    1    3    3    0  502  0.25889198845E+02  0.67766768228E+01  0.23598988683E+03  0.23753920319E+03  0.41800000000E+01 0.  1.
        -11    1    1    2    0    0 -0.61449711291E+02 -0.35519302781E+02  0.25458720343E+03  0.26429591756E+03  0.00000000000E+00 0.  1.
         11    1    1    2    0    0  0.12925424032E+02 -0.16211110634E+02  0.13840501076E+02  0.24928420818E+02  0.00000000000E+00 0. -1.
</event>
<event>
 7    1  0.2820547E-009  0.7532046E+02  0.7561462E-02  0.1342882E+00
         -2   -1    0    0    0  501 -0.00000000000E+00  0.00000000000E+00  0.10198327126E+03  0.10198327126E+03  0.00000000000E+00 0. -1.
          2   -1    0    0  501    0  0.00000000000E+00 -0.00000000000E+00 -0.13220221703E+03  0.13220221703E+03  0.00000000000E+00 0.  1.
         25    2    1    2    0    0 -0.27050317039E+02  0.18843325171E+02  0.84362813900E+01  0.12963756445E+03  0.12509171323E+03 0.  0.
          5    1    3    3  502    0 -0.94132158762E+01  0.48455956905E+02 -0.44327425767E+02  0.66475420027E+02  0.41800000000E+01 0. -1.
         -5    1    3    3    0  502 -0.17637101162E+02 -0.29612631733E+02  0.52763707157E+02  0.63162144426E+02  0.41800000000E+01 0. -1.
        -11    1    1    2    0    0 -0.14940303493E+02 -0.19278478057E+02  0.20597383343E+02  0.31923730754E+02  0.00000000000E+00 0. -1.
         11    1    1    2    0    0  0.41990620532E+02  0.43515288514E+00 -0.59252610502E+02  0.72624193090E+02  0.00000000000E+00 0.  1.
</event>
<event>
 7    1  0.2820496E-009  0.2336271E+03  0.7561462E-02  0.1124113E+00
         -1   -1    0    0    0  501 -0.00000000000E+00  0.00000000000E+00  0.90966795583E+02  0.90966795583E+02  0.00000000000E+00 0.  1.
          1   -1    0    0  501    0  0.00000000000E+00 -0.00000000000E+00 -0.79924688181E+03  0.79924688181E+03  0.00000000000E+00 0. -1.
         25    2    1    2    0    0  0.19365310429E+03  0.93907249342E+02 -0.17183527839E+03  0.30248077460E+03  0.12508860788E+03 0.  0.
          5    1    3    3  502    0  0.16158720808E+03  0.21492956829E+02 -0.81579069463E+02  0.18233208709E+03  0.41800000000E+01 0. -1.
         -5    1    3    3    0  502  0.32065896209E+02  0.72414292513E+02 -0.90256208924E+02  0.12014868751E+03  0.41800000000E+01 0. -1.
        -11    1    1    2    0    0 -0.30981884381E+02 -0.45714272123E+02 -0.57945617681E+02  0.80046027035E+02  0.00000000000E+00 0.  1.
         11    1    1    2    0    0 -0.16267121991E+03 -0.48192977219E+02 -0.47849919016E+03  0.50768687577E+03  0.00000000000E+00 0. -1.
</event>
<event>
 7    1  0.2820496E-009  0.1760360E+03  0.7561462E-02  0.1171695E+00
          2   -1    0    0  501    0  0.00000000000E+00  0.00000000000E+00  0.12312625633E+04  0.12312625633E+04  0.00000000000E+00 0.  1.
         -2   -1    0    0    0  501 -0.00000000000E+00 -0.00000000000E+00 -0.28699739064E+02  0.28699739064E+02  0.00000000000E+00 0. -1.
         25    2    1    2    0    0 -0.13434114486E+03  0.70930012188E+02  0.68497856313E+03  0.71268627542E+03  0.12508990922E+03 0.  0.
          5    1    3    3  502    0  0.28958467735E+00 -0.25369668316E+02  0.47035388077E+02  0.53605074959E+02  0.41800000000E+01 0. -1.
         -5    1    3    3    0  502 -0.13463072954E+03  0.96299680504E+02  0.63794317505E+03  0.65908120046E+03  0.41800000000E+01 0. -1.
        -11    1    1    2    0    0  0.78637177050E+02 -0.11755652411E+02  0.13961353373E+03  0.16066717082E+03  0.00000000000E+00 0. -1.
         11    1    1    2    0    0  0.55703967808E+02 -0.59174359777E+02  0.37797072735E+03  0.38660885611E+03  0.00000000000E+00 0.  1.
</event>
<event>
 7    1  0.2820496E-009  0.9603306E+02  0.7561462E-02  0.1288866E+00
          2   -1    0    0  501    0  0.00000000000E+00  0.00000000000E+00  0.85199980219E+03  0.85199980219E+03  0.00000000000E+00 0. -1.
         -2   -1    0    0    0  501 -0.00000000000E+00 -0.00000000000E+00 -0.18456374635E+02  0.18456374635E+02  0.00000000000E+00 0.  1.
         25    2    1    2    0    0  0.24314584493E+02 -0.36644660149E+02  0.63414640537E+03  0.64786166433E+03  0.12509613314E+03 0.  0.
          5    1    3    3  502    0 -0.30271486743E+02 -0.93663561743E+01  0.49296451068E+03  0.49399956754E+03  0.41800000000E+01 0. -1.
         -5    1    3    3    0  502  0.54586071236E+02 -0.27278303974E+02  0.14118189469E+03  0.15386209679E+03  0.41800000000E+01 0. -1.
        -11    1    1    2    0    0 -0.57019728878E+02  0.12731770483E+02  0.11716241131E+03  0.13092126674E+03  0.00000000000E+00 0.  1.
         11    1    1    2    0    0  0.32705144385E+02  0.23912889666E+02  0.82234610872E+02  0.91673245752E+02  0.00000000000E+00 0. -1.
</event>
<event>
 7    1  0.2820496E-009  0.1321180E+03  0.7561462E-02  0.1224346E+00
         -2   -1    0    0    0  501 -0.00000000000E+00  0.00000000000E+00  0.20453318527E+02  0.20453318527E+02  0.00000000000E+00 0.  1.
          2   -1    0    0  501    0  0.00000000000E+00 -0.00000000000E+00 -0.12008075288E+04  0.12008075288E+04  0.00000000000E+00 0. -1.
         25    2    1    2    0    0  0.77516341092E+02 -0.71086192204E+02 -0.90080955579E+03  0.91551424899E+03  0.12508578830E+03 0.  0.
          5    1    3    3  502    0  0.32254838955E+02  0.20532966510E+02 -0.84740247555E+02  0.93061051495E+02  0.41800000000E+01 0.  1.
         -5    1    3    3    0  502  0.45261502138E+02 -0.91619158714E+02 -0.81606930824E+03  0.82245319749E+03  0.41800000000E+01 0.  1.
        -11    1    1    2    0    0  0.76182054202E+01  0.26138772910E+02 -0.71455479110E+02  0.76466711698E+02  0.00000000000E+00 0.  1.
         11    1    1    2    0    0 -0.85134546513E+02  0.44947419293E+02 -0.20808917535E+03  0.22927988662E+03  0.00000000000E+00 0. -1.
</event>
<event>
 7    1  0.2820496E-009  0.9315192E+02  0.7561462E-02  0.1295394E+00
         -2   -1    0    0    0  501 -0.00000000000E+00  0.00000000000E+00  0.42486606763E+02  0.42486606763E+02  0.00000000000E+00 0.  1.
          2   -1    0    0  501    0  0.00000000000E+00 -0.00000000000E+00 -0.27546134940E+03  0.27546134940E+03  0.00000000000E+00 0. -1.
         25    2    1    2    0    0  0.12129166728E+02 -0.15867131023E+01 -0.13106358084E+03  0.18159073944E+03  0.12509156679E+03 0.  0.
          5    1    3    3  502    0 -0.54541180663E+02 -0.16440952060E+02 -0.63858937692E+02  0.85676610670E+02  0.41800000000E+01 0. -1.
         -5    1    3    3    0  502  0.66670347390E+02  0.14854238958E+02 -0.67204643151E+02  0.95914128768E+02  0.41800000000E+01 0. -1.
        -11    1    1    2    0    0 -0.16364068809E+02  0.28847015124E+02 -0.25790339317E+01  0.33265364053E+02  0.00000000000E+00 0.  1.
         11    1    1    2    0    0  0.42349020817E+01 -0.27260302022E+02 -0.99332127857E+02  0.10309185267E+03  0.00000000000E+00 0. -1.
</event>
<event>
 7    1  0.2820496E-009  0.9977454E+02  0.7561462E-02  0.1280771E+00
          2   -1    0    0  501    0  0.00000000000E+00  0.00000000000E+00  0.47389749368E+03  0.47389749368E+03  0.00000000000E+00 0. -1.
         -2   -1    0    0    0  501 -0.00000000000E+00 -0.00000000000E+00 -0.34931066704E+02  0.34931066704E+02  0.00000000000E+00 0.  1.
         25    2    1    2    0    0  0.59838665863E+02 -0.22714777705E+02  0.30955245733E+03  0.33994993194E+03  0.12508639147E+03 0.  0.
          5    1    3    3  502    0  0.47473008689E+02  0.20051598664E+02  0.28354927922E+03  0.28822459872E+03  0.41800000000E+01 0. -1.
         -5    1    3    3    0  502  0.12365657175E+02 -0.42766376369E+02  0.26003178112E+02  0.51725333223E+02  0.41800000000E+01 0. -1.
        -11    1    1    2    0    0  0.19917514008E+02 -0.94603313368E+00  0.75398966030E+01  0.21317888820E+02  0.00000000000E+00 0.  1.
         11    1    1    2    0    0 -0.79756179872E+02  0.23660810839E+02  0.12187407304E+03  0.14756073962E+03  0.00000000000E+00 0. -1.
</event>
<event>
 7    1  0.2820496E-009  0.1280750E+03  0.7561462E-02  0.1230340E+00
          1   -1    0    0  501    0  0.00000000000E+00  0.00000000000E+00  0.37398200009E+03  0.37398200009E+03  0.00000000000E+00 0. -1.
         -1   -1    0    0    0  501 -0.00000000000E+00 -0.00000000000E+00 -0.44895280587E+02  0.44895280587E+02  0.00000000000E+00 0.  1.
         25    2    1    2    0    0 -0.12261671377E+02  0.68148091235E+02  0.19077121262E+03  0.23840130618E+03  0.12508803421E+03 0.  0.
          5    1    3    3  502    0  0.56426104819E+02  0.27926383063E+02  0.90076107804E+02  0.10997711477E+03  0.41800000000E+01 0. -1.
         -5    1    3    3    0  502 -0.68687776196E+02  0.40221708172E+02  0.10069510481E+03  0.12842419141E+03  0.41800000000E+01 0. -1.
        -11    1    1    2    0    0  0.43674149055E+02 -0.64995685312E+01  0.73067646100E+02  0.85373043716E+02  0.00000000000E+00 0. -1.
         11    1    1    2    0    0 -0.31412477678E+02 -0.61648522704E+02  0.65247860787E+02  0.95102930779E+02  0.00000000000E+00 0.  1.
</event>
<event>
 7    1  0.2820496E-009  0.1267590E+03  0.7561462E-02  0.1232346E+00
          1   -1    0    0  501    0  0.00000000000E+00  0.00000000000E+00  0.48435995154E+03  0.48435995154E+03  0.00000000000E+00 0. -1.
         -1   -1    0    0    0  501 -0.00000000000E+00 -0.00000000000E+00 -0.35857433848E+02  0.35857433848E+02  0.00000000000E+00 0.  1.
         25    2    1    2    0    0 -0.71726414940E+02 -0.15317569159E+02  0.27307643100E+03  0.30918708130E+03  0.12508640035E+03 0.  0.
          5    1    3    3  502    0 -0.96988421096E+02  0.16630492628E+02  0.22759010034E+03  0.24798801036E+03  0.41800000000E+01 0.  1.
         -5    1    3    3    0  502  0.25262006157E+02 -0.31948061788E+02  0.45486330664E+02  0.61199070944E+02  0.41800000000E+01 0.  1.
        -11    1    1    2    0    0 -0.16364248137E+02 -0.13693429086E+02  0.16308282467E+02  0.26856259871E+02  0.00000000000E+00 0.  1.
         11    1    1    2    0    0  0.88090663077E+02  0.29010998245E+02  0.15911780423E+03  0.18417404422E+03  0.00000000000E+00 0. -1.
</event>
<event>
 7    1  0.2820496E-009  0.1086454E+03  0.7561462E-02  0.1263099E+00
         -1   -1    0    0    0  501 -0.00000000000E+00  0.00000000000E+00  0.18942157132E+03  0.18942157132E+03  0.00000000000E+00 0.  1.
          1   -1    0    0  501    0  0.00000000000E+00 -0.00000000000E+00 -0.65114394859E+02  0.65114394859E+02  0.00000000000E+00 0. -1.
         25    2    1    2    0    0  0.21357680198E+02 -0.88473787160E+01  0.82672212496E+02  0.15170672743E+03  0.12508321156E+03 0.  0.
          5    1    3    3  502    0  0.50672720400E+02 -0.51046683205E+02  0.65494987232E+02  0.97368137558E+02  0.41800000000E+01 0.  1.
         -5    1    3    3    0  502 -0.29315040202E+02  0.42199304489E+02  0.17177225264E+02  0.54338589871E+02  0.41800000000E+01 0.  1.
        -11    1    1    2    0    0  0.42985837220E+01 -0.39086526983E+02  0.21764974681E+02  0.44943837581E+02  0.00000000000E+00 0.  1.
         11    1    1    2    0    0 -0.25656263920E+02  0.47933905699E+02  0.19869989279E+02  0.57885401164E+02  0.00000000000E+00 0. -1.
</event>
<event>
 7    1  0.2820496E-009  0.1665259E+03  0.7561462E-02  0.1181520E+00
         -1   -1    0    0    0  501 -0.00000000000E+00  0.00000000000E+00  0.56610892994E+02  0.56610892994E+02  0.00000000000E+00 0.  1.
          1   -1    0    0  501    0  0.00000000000E+00 -0.00000000000E+00 -0.60449042663E+03  0.60449042663E+03  0.00000000000E+00 0. -1.
         25    2    1    2    0    0 -0.12407070665E+03 -0.20861692880E+02 -0.14693416944E+03  0.23035347466E+03  0.12507726676E+03 0.  0.
          5    1    3    3  502    0 -0.14188759707E+03  0.73724205271E+01 -0.10570046099E+03  0.17713413742E+03  0.41800000000E+01 0. -1.
         -5    1    3    3    0  502  0.17816890416E+02 -0.28234113407E+02 -0.41233708443E+02  0.53219337237E+02  0.41800000000E+01 0. -1.
        -11    1    1    2    0    0  0.12104167746E+03  0.47813842274E+02 -0.33912935555E+03  0.36324367991E+03  0.00000000000E+00 0.  1.
         11    1    1    2    0    0  0.30290291949E+01 -0.26952149394E+02 -0.61816008650E+02  0.67504165059E+02  0.00000000000E+00 0. -1.
</event>
<event>
 7    1  0.2820496E-009  0.6920143E+02  0.7561462E-02  0.1362830E+00
         -2   -1    0    0    0  501 -0.00000000000E+00  0.00000000000E+00  0.43009292570E+02  0.43009292570E+02  0.00000000000E+00 0.  1.
          2   -1    0    0  501    0  0.00000000000E+00 -0.00000000000E+00 -0.22852795182E+03  0.22852795182E+03  0.00000000000E+00 0. -1.
         25    2    1    2    0    0 -0.20338592099E+02  0.34320778383E+02 -0.76062470474E+02  0.15173772028E+03  0.12508901704E+03 0.  0.
          5    1    3    3  502    0  0.45248770921E+01  0.58321308941E+02 -0.95350229052E+02  0.11194189640E+03  0.41800000000E+01 0. -1.
         -5    1    3    3    0  502 -0.24863469191E+02 -0.24000530557E+02  0.19287758578E+02  0.39795823879E+02  0.41800000000E+01 0. -1.
        -11    1    1    2    0    0  0.21542960115E+01 -0.23884639800E+02 -0.34855996517E+02  0.42309071165E+02  0.00000000000E+00 0.  1.
         11    1    1    2    0    0  0.18184296088E+02 -0.10436138583E+02 -0.74600192257E+02  0.77490452945E+02  0.00000000000E+00 0. -1.
</event>
<event>
 7    1  0.2820496E-009  0.1336471E+03  0.7561462E-02  0.1222142E+00
         -1   -1    0    0    0  501 -0.00000000000E+00  0.00000000000E+00  0.83817112350E+03  0.83817112350E+03  0.00000000000E+00 0.  1.
          1   -1    0    0  501    0  0.00000000000E+00 -0.00000000000E+00 -0.26872335716E+02  0.26872335716E+02  0.00000000000E+00 0. -1.
         25    2    1    2    0    0 -0.78333972088E+02  0.71400684955E+02  0.43353483090E+03  0.46350210232E+03  0.12508988873E+03 0.  0.
          5    1    3    3  502    0  0.75384277693E+01  0.72206183730E+02  0.25783935531E+03  0.26789767899E+03  0.41800000000E+01 0. -1.
         -5    1    3    3    0  502 -0.85872399857E+02 -0.80549877502E+00  0.17569547558E+03  0.19560442333E+03  0.41800000000E+01 0. -1.
        -11    1    1    2    0    0  0.15367119291E+02 -0.28582134684E+02  0.25864680313E+02  0.41497812787E+02  0.00000000000E+00 0. -1.
         11    1    1    2    0    0  0.62966852797E+02 -0.42818550271E+02  0.35189927657E+03  0.36004354410E+03  0.00000000000E+00 0.  1.
</event>
<event>
 7    1  0.2820496E-009  0.1395146E+03  0.7561462E-02  0.1213984E+00
         -3   -1    0    0    0  501 -0.00000000000E+00  0.00000000000E+00  0.83618408079E+02  0.83618408079E+02  0.00000000000E+00 0. -1.
          3   -1    0    0  501    0  0.00000000000E+00 -0.00000000000E+00 -0.34858224019E+03  0.34858224019E+03  0.00000000000E+00 0.  1.
         25    2    1    2    0    0  0.59776618660E+02 -0.89596161364E+02 -0.23719763419E+03  0.28898201120E+03  0.12508864401E+03 0.  0.
          5    1    3    3  502    0  0.83518813148E+02 -0.30172866302E+02 -0.18866103428E+03  0.20855755145E+03  0.41800000000E+01 0. -1.
         -5    1    3    3    0  502 -0.23742194487E+02 -0.59423295063E+02 -0.48536599908E+02  0.80424459748E+02  0.41800000000E+01 0. -1.
        -11    1    1    2    0    0 -0.72337151761E+02  0.60471377819E+02 -0.47795076039E+02  0.10570629288E+03  0.00000000000E+00 0.  1.
         11    1    1    2    0    0  0.12560533100E+02  0.29124783545E+02  0.20028878117E+02  0.37512344194E+02  0.00000000000E+00 0. -1.
</event>
<event>
 7    1  0.2820496E-009  0.1298952E+03  0.7561462E-02  0.1227611E+00
          1   -1    0    0  501    0  0.00000000000E+00  0.00000000000E+00  0.27509528920E+03  0.27509528920E+03  0.00000000000E+00 0. -1.
         -1   -1    0    0    0  501 -0.00000000000E+00 -0.00000000000E+00 -0.82458912553E+02  0.82458912553E+02  0.00000000000E+00 0.  1.
         25    2    1    2    0    0 -0.41354709463E+02  0.68140140689E+02  0.18513188583E+03  0.23722267453E+03  0.12508993322E+03 0.  0.
          5    1    3    3  502    0 -0.85246186721E+02  0.32817247879E+02  0.12268713362E+03  0.15301467010E+03  0.41800000000E+01 0.  1.
         -5    1    3    3    0  502  0.43891477259E+02  0.35322892809E+02  0.62444752210E+02  0.84208004435E+02  0.41800000000E+01 0.  1.
        -11    1    1    2    0    0  0.38525464619E+02  0.48330284946E+01  0.23754344532E+02  0.45517452397E+02  0.00000000000E+00 0. -1.
         11    1    1    2    0    0  0.28292448437E+01 -0.72973169183E+02 -0.16249853711E+02  0.74814074830E+02  0.00000000000E+00 0.  1.
</event>
<event>
 7    1  0.2820496E-009  0.1180702E+03  0.7561462E-02  0.1246315E+00
         -2   -1    0    0    0  501 -0.00000000000E+00  0.00000000000E+00  0.34586340844E+02  0.34586340844E+02  0.00000000000E+00 0.  1.
          2   -1    0    0  501    0  0.00000000000E+00 -0.00000000000E+00 -0.51193035101E+03  0.51193035101E+03  0.00000000000E+00 0. -1.
         25    2    1    2    0    0 -0.55017519459E+02 -0.56648801108E+02 -0.25653753006E+03  0.29613337112E+03  0.12508978794E+03 0.  0.
          5    1    3    3  502    0 -0.54167070346E+02  0.97537791812E+01 -0.36299290997E+02  0.66062989980E+02  0.41800000000E+01 0.  1.
         -5    1    3    3    0  502 -0.85044911245E+00 -0.66402580290E+02 -0.22023823906E+03  0.23007038114E+03  0.41800000000E+01 0.  1.
        -11    1    1    2    0    0 -0.20314810727E+02  0.26194558186E+02 -0.38602800763E+02  0.50882439409E+02  0.00000000000E+00 0.  1.
         11    1    1    2    0    0  0.75332330186E+02  0.30454242923E+02 -0.18220367934E+03  0.19950088132E+03  0.00000000000E+00 0. -1.
</event>
<event>
 7    1  0.2820496E-009  0.1707085E+03  0.7561462E-02  0.1177111E+00
         -2   -1    0    0    0  501 -0.00000000000E+00  0.00000000000E+00  0.13788053905E+03  0.13788053905E+03  0.00000000000E+00 0.  1.
          2   -1    0    0  501    0  0.00000000000E+00 -0.00000000000E+00 -0.31034696081E+03  0.31034696081E+03  0.00000000000E+00 0. -1.
         25    2    1    2    0    0  0.97458643218E+02 -0.12970915999E+03 -0.16559459830E+03  0.26339661222E+03  0.12503419939E+03 0.  0.
          5    1    3    3  502    0 -0.28263818327E+01 -0.50675829412E+02  0.39833527169E+01  0.51081969615E+02  0.41800000000E+01 0.  1.
         -5    1    3    3    0  502  0.10028502505E+03 -0.79033330578E+02 -0.16957795102E+03  0.21231464260E+03  0.41800000000E+01 0.  1.
        -11    1    1    2    0    0 -0.11031227421E+02  0.22253738277E+02  0.32981231190E+02  0.41287751895E+02  0.00000000000E+00 0.  1.
         11    1    1    2    0    0 -0.86427415797E+02  0.10745542171E+03 -0.39853054648E+02  0.14354313575E+03  0.00000000000E+00 0. -1.
</event>
<event>
 7    1  0.2820496E-009  0.1382337E+03  0.7561462E-02  0.1215726E+00
         -2   -1    0    0    0  501 -0.00000000000E+00  0.00000000000E+00  0.22104016700E+03  0.22104016700E+03  0.00000000000E+00 0.  1.
          2   -1    0    0  501    0  0.00000000000E+00 -0.00000000000E+00 -0.96096655881E+02  0.96096655881E+02  0.00000000000E+00 0. -1.
         25    2    1    2    0    0  0.84197098795E+02  0.51611231970E+02  0.51659726731E+02  0.16753798441E+03  0.12508948054E+03 0.  0.
          5    1    3    3  502    0  0.51863366973E+02 -0.35565753926E+02  0.44678829705E+01  0.63183590151E+02  0.41800000000E+01 0.  1.
         -5    1    3    3    0  502  0.32333731822E+02  0.87176985896E+02  0.47191843761E+02  0.10435439426E+03  0.41800000000E+01 0.  1.
        -11    1    1    2    0    0 -0.11650606222E+02 -0.46170487420E+02  0.18690159417E+01  0.47654420094E+02  0.00000000000E+00 0. -1.
         11    1    1    2    0    0 -0.72546492573E+02 -0.54407445499E+01  0.71414768441E+02  0.10194441837E+03  0.00000000000E+00 0.  1.
</event>
<event>
 7    1  0.2820496E-009  0.9996649E+02  0.7561462E-02  0.1280366E+00
          1   -1    0    0  501    0  0.00000000000E+00  0.00000000000E+00  0.84755759499E+03  0.84755759499E+03  0.00000000000E+00 0. -1.
         -1   -1    0    0    0  501 -0.00000000000E+00 -0.00000000000E+00 -0.23021765671E+02  0.23021765671E+02  0.00000000000E+00 0.  1.
         25    2    1    2    0    0  0.48656440653E+02 -0.71006396696E+02  0.41563873178E+03  0.44250679522E+03  0.12508937154E+03 0.  0.
          5    1    3    3  502    0  0.11890989958E+02 -0.15618172800E+02  0.34437429827E+03  0.34495862458E+03  0.41800000000E+01 0.  1.
         -5    1    3    3    0  502  0.36765450695E+02 -0.55388223896E+02  0.71264433503E+02  0.97548170632E+02  0.41800000000E+01 0.  1.
        -11    1    1    2    0    0 -0.41636627107E+02 -0.26346905919E+00  0.68005450502E+02  0.79739697960E+02  0.00000000000E+00 0.  1.
         11    1    1    2    0    0 -0.70198135463E+01  0.71269865755E+02  0.34089164704E+03  0.34833286748E+03  0.00000000000E+00 0. -1.
</event>
<event>
 7    1  0.2820496E-009  0.4164864E+03  0.7561462E-02  0.1038216E+00
         -1   -1    0    0    0  501 -0.00000000000E+00  0.00000000000E+00  0.11801424632E+03  0.11801424632E+03  0.00000000000E+00 0.  1.
          1   -1    0    0  501    0  0.00000000000E+00 -0.00000000000E+00 -0.15404739350E+04  0.15404739350E+04  0.00000000000E+00 0. -1.
         25    2    1    2    0    0 -0.31150884717E+03 -0.26809964307E+03 -0.65047136759E+03  0.77953545419E+03  0.12508934327E+03 0.  0.
          5    1    3    3  502    0 -0.75686022688E+02 -0.39156722384E+02 -0.61931839552E+02  0.10542603136E+03  0.41800000000E+01 0.  1.
         -5    1    3    3    0  502 -0.23582282448E+03 -0.22894292069E+03 -0.58853952804E+03  0.67410942283E+03  0.41800000000E+01 0.  1.
        -11    1    1    2    0    0  0.29460376173E+03  0.21917515619E+03 -0.65224571566E+03  0.74850090121E+03  0.00000000000E+00 0.  1.
         11    1    1    2    0    0  0.16905085442E+02  0.48924486879E+02 -0.11974260545E+03  0.13045182594E+03  0.00000000000E+00 0. -1.
</event>
<event>
 7    1  0.2820496E-009  0.1298437E+03  0.7561462E-02  0.1227688E+00
          1   -1    0    0  501    0  0.00000000000E+00  0.00000000000E+00  0.17706538876E+03  0.17706538876E+03  0.00000000000E+00 0.  1.
         -1   -1    0    0    0  501 -0.00000000000E+00 -0.00000000000E+00 -0.10967658737E+03  0.10967658737E+03  0.00000000000E+00 0. -1.
         25    2    1    2    0    0  0.41353493219E+02  0.77289546062E+02  0.52458175846E+02  0.16150753811E+03  0.12509612032E+03 0.  0.
          5    1    3    3  502    0  0.19376281039E+02 -0.33361027403E+02  0.53067871690E+01  0.39166730861E+02  0.41800000000E+01 0. -1.
         -5    1    3    3    0  502  0.21977212179E+02  0.11065057346E+03  0.47151388677E+02  0.12234080725E+03  0.41800000000E+01 0. -1.
        -11    1    1    2    0    0 -0.46820360084E+02 -0.20789298087E+02 -0.23829416733E+02  0.56499399423E+02  0.00000000000E+00 0. -1.
         11    1    1    2    0    0  0.54668668653E+01 -0.56500247976E+02  0.38760042276E+02  0.68735038604E+02  0.00000000000E+00 0.  1.
</event>
<event>
 7    1  0.2820496E-009  0.1867551E+03  0.7561462E-02  0.1161421E+00
         -2   -1    0    0    0  501 -0.00000000000E+00  0.00000000000E+00  0.91617159556E+02  0.91617159556E+02  0.00000000000E+00 0. -1.
          2   -1    0    0  501    0  0.00000000000E+00 -0.00000000000E+00 -0.59336174383E+03  0.59336174383E+03  0.00000000000E+00 0.  1.
         25    2    1    2    0    0 -0.16717035737E+03  0.80304825161E+02 -0.12379015406E+03  0.25566757544E+03  0.12508842299E+03 0.  0.
          5    1    3    3  502    0 -0.49627800657E+02  0.39233322678E+02  0.18983464538E+02  0.66181693332E+02  0.41800000000E+01 0. -1.
         -5    1    3    3    0  502 -0.11754255671E+03  0.41071502482E+02 -0.14277361859E+03  0.18948588211E+03  0.41800000000E+01 0. -1.
        -11    1    1    2    0    0  0.58459472862E+02 -0.30778722689E+02 -0.22917118639E+03  0.23850423981E+03  0.00000000000E+00 0.  1.
         11    1    1    2    0    0  0.10871088450E+03 -0.49526102472E+02 -0.14878324383E+03  0.19080708813E+03  0.00000000000E+00 0. -1.
</event>
<event>
 7    1  0.2820496E-009  0.1027855E+03  0.7561462E-02  0.1274545E+00
         -4   -1    0    0    0  501 -0.00000000000E+00  0.00000000000E+00  0.12475975659E+03  0.12475975659E+03  0.00000000000E+00 0.  1.
          4   -1    0    0  501    0  0.00000000000E+00 -0.00000000000E+00 -0.19016069358E+03  0.19016069358E+03  0.00000000000E+00 0. -1.
         25    2    1    2    0    0 -0.27924232033E+02  0.83541710343E+02  0.32428117839E+02  0.15639137466E+03  0.12509076361E+03 0.  0.
          5    1    3    3  502    0 -0.31687566304E+02  0.64201713903E+02 -0.39375734579E+02  0.81816152440E+02  0.41800000000E+01 0.  1.
         -5    1    3    3    0  502  0.37633342709E+01  0.19339996440E+02  0.71803852418E+02  0.74575222221E+02  0.41800000000E+01 0.  1.
        -11    1    1    2    0    0  0.13556389165E+01 -0.86919074854E+02 -0.41862596357E+02  0.96484404460E+02  0.00000000000E+00 0. -1.
         11    1    1    2    0    0  0.26568593116E+02  0.33773645109E+01 -0.55966458477E+02  0.62044671050E+02  0.00000000000E+00 0.  1.
</event>
<event>
 7    1  0.2820496E-009  0.9180411E+02  0.7561462E-02  0.1298541E+00
         -3   -1    0    0    0  501 -0.00000000000E+00  0.00000000000E+00  0.52052930089E+02  0.52052930089E+02  0.00000000000E+00 0.  1.
          3   -1    0    0  501    0  0.00000000000E+00 -0.00000000000E+00 -0.26840993563E+03  0.26840993563E+03  0.00000000000E+00 0. -1.
         25    2    1    2    0    0  0.40284442662E+02 -0.98219147940E+01 -0.10344260266E+03  0.16753335028E+03  0.12509094724E+03 0.  0.
          5    1    3    3  502    0  0.56627616575E+02 -0.34701883482E+02 -0.11696638232E+03  0.13457159681E+03  0.41800000000E+01 0.  1.
         -5    1    3    3    0  502 -0.16343173913E+02  0.24879968688E+02  0.13523779661E+02  0.32961753470E+02  0.41800000000E+01 0.  1.
        -11    1    1    2    0    0  0.12399051771E+02  0.28520472136E+02 -0.84865281877E+02  0.90384013430E+02  0.00000000000E+00 0. -1.
         11    1    1    2    0    0 -0.52683494433E+02 -0.18698557342E+02 -0.28049121012E+02  0.62545502011E+02  0.00000000000E+00 0.  1.
</event>
<event>
 7    1  0.2820496E-009  0.1324649E+03  0.7561462E-02  0.1223843E+00
          1   -1    0    0  501    0  0.00000000000E+00  0.00000000000E+00  0.85443232293E+03  0.85443232293E+03  0.00000000000E+00 0. -1.
         -1   -1    0    0    0  501 -0.00000000000E+00 -0.00000000000E+00 -0.26891416339E+02  0.26891416339E+02  0.00000000000E+00 0.  1.
         25    2    1    2    0    0  0.64634629952E+02 -0.62691582161E+02  0.28835070988E+03  0.32695839825E+03  0.12509113653E+03 0.  0.
          5    1    3    3  502    0  0.32273773443E+02  0.26085243940E+02  0.17214731099E+03  0.17712765308E+03  0.41800000000E+01 0. -1.
         -5    1    3    3    0  502  0.32360856510E+02 -0.88776826101E+02  0.11620339889E+03  0.14983074518E+03  0.41800000000E+01 0. -1.
        -11    1    1    2    0    0 -0.78125610952E+02  0.15619433595E+02  0.34807005385E+03  0.35707189777E+03  0.00000000000E+00 0. -1.
         11    1    1    2    0    0  0.13490981000E+02  0.47072148566E+02  0.19112014287E+03  0.19729344325E+03  0.00000000000E+00 0.  1.
</event>
<event>
 7    1  0.2820496E-009  0.1437346E+03  0.7561462E-02  0.1208390E+00
          1   -1    0    0  501    0  0.00000000000E+00  0.00000000000E+00  0.69719900870E+03  0.69719900870E+03  0.00000000000E+00 0. -1.
         -1   -1    0    0    0  501 -0.00000000000E+00 -0.00000000000E+00 -0.34814256132E+02  0.34814256132E+02  0.00000000000E+00 0.  1.
         25    2    1    2    0    0 -0.57256164770E+02 -0.10462930538E+03  0.31171696740E+03  0.35643419135E+03  0.12510917253E+03 0.  0.
          5    1    3    3  502    0 -0.11581601706E+02 -0.10777183569E+03  0.13160166217E+03  0.17054434013E+03  0.41800000000E+01 0. -1.
         -5    1    3    3    0  502 -0.45674563064E+02  0.31425303099E+01  0.18011530523E+03  0.18588985122E+03  0.41800000000E+01 0. -1.
        -11    1    1    2    0    0  0.18230008717E+02  0.89222712354E+02  0.21276044006E+03  0.23143040093E+03  0.00000000000E+00 0. -1.
         11    1    1    2    0    0  0.39026156053E+02  0.15406593024E+02  0.13790734511E+03  0.14414867256E+03  0.00000000000E+00 0.  1.
</event>
<event>
 7    1  0.2820496E-009  0.9283808E+02  0.7561462E-02  0.1296121E+00
         -1   -1    0    0    0  501 -0.00000000000E+00  0.00000000000E+00  0.89955737098E+02  0.89955737098E+02  0.00000000000E+00 0.  1.
          1   -1    0    0  501    0  0.00000000000E+00 -0.00000000000E+00 -0.16302646512E+03  0.16302646512E+03  0.00000000000E+00 0. -1.
         25    2    1    2    0    0 -0.47502865454E+02 -0.91991322279E+01 -0.20735803745E+02  0.13571782229E+03  0.12509279543E+03 0.  0.
          5    1    3    3  502    0  0.19886529402E+02 -0.34835277539E+02 -0.44148437825E+02  0.59795715359E+02  0.41800000000E+01 0. -1.
         -5    1    3    3    0  502 -0.67389394856E+02  0.25636145311E+02  0.23412634081E+02  0.75922106926E+02  0.41800000000E+01 0. -1.
        -11    1    1    2    0    0 -0.58249549556E+00  0.23071282248E+02  0.19158812426E+02  0.29994723856E+02  0.00000000000E+00 0.  1.
         11    1    1    2    0    0  0.48085360950E+02 -0.13872150021E+02 -0.71493736700E+02  0.87269656073E+02  0.00000000000E+00 0. -1.
</event>
<event>
 7    1  0.2820496E-009  0.7385349E+02  0.7561462E-02  0.1347459E+00
         -1   -1    0    0    0  501 -0.00000000000E+00  0.00000000000E+00  0.38662081507E+03  0.38662081507E+03  0.00000000000E+00 0.  1.
          1   -1    0    0  501    0  0.00000000000E+00 -0.00000000000E+00 -0.35387744231E+02  0.35387744231E+02  0.00000000000E+00 0. -1.
         25    2    1    2    0    0 -0.22068629200E+01 -0.52844845707E+01  0.28004287965E+03  0.30676419546E+03  0.12508981234E+03 0.  0.
          5    1    3    3  502    0  0.24651433440E+02  0.88027674251E+01  0.15065679547E+01  0.26550405496E+02  0.41800000000E+01 0.  1.
         -5    1    3    3    0  502 -0.26858296360E+02 -0.14087251996E+02  0.27853631169E+03  0.28021378996E+03  0.41800000000E+01 0.  1.
        -11    1    1    2    0    0  0.57338675076E+01  0.47689365626E+02  0.39512027470E+02  0.62196086253E+02  0.00000000000E+00 0. -1.
         11    1    1    2    0    0 -0.35270045875E+01 -0.42404881055E+02  0.31678163720E+02  0.53048277591E+02  0.00000000000E+00 0.  1.
</event>
<event>
 7    1  0.2820496E-009  0.1169837E+03  0.7561462E-02  0.1248158E+00
          2   -1    0    0  501    0  0.00000000000E+00  0.00000000000E+00  0.60699029627E+03  0.60699029627E+03  0.00000000000E+00 0. -1.
         -2   -1    0    0    0  501 -0.00000000000E+00 -0.00000000000E+00 -0.33215374887E+02  0.33215374887E+02  0.00000000000E+00 0.  1.
         25    2    1    2    0    0  0.56603773996E+02 -0.70881499724E+02  0.27349518917E+03  0.31412581876E+03  0.12508891748E+03 0.  0.
          5    1    3    3  502    0  0.34726639220E+02  0.10400351104E+02  0.10521553134E+02  0.37977391366E+02  0.41800000000E+01 0. -1.
         -5    1    3    3    0  502  0.21877134775E+02 -0.81281850828E+02  0.26297363604E+03  0.27614842739E+03  0.41800000000E+01 0. -1.
        -11    1    1    2    0    0  0.15311459447E+02  0.19600434937E+02  0.14769248601E+03  0.14977212112E+03  0.00000000000E+00 0. -1.
         11    1    1    2    0    0 -0.71915233443E+02  0.51281064787E+02  0.15258724620E+03  0.17630773128E+03  0.00000000000E+00 0.  1.
</event>
<event>
 7    1  0.2820496E-009  0.5752483E+02  0.7561462E-02  0.1408523E+00
         -1   -1    0    0    0  501 -0.00000000000E+00  0.00000000000E+00  0.19237435068E+03  0.19237435068E+03  0.00000000000E+00 0.  1.
          1   -1    0    0  501    0  0.00000000000E+00 -0.00000000000E+00 -0.64445273271E+02  0.64445273271E+02  0.00000000000E+00 0. -1.
         25    2    1    2    0    0  0.69195120875E+01  0.18734383991E+01  0.41247189657E+02  0.13191202770E+03  0.12509221789E+03 0.  0.
          5    1    3    3  502    0  0.21292311214E+01 -0.23533571346E+02  0.80903760034E+02  0.84387519178E+02  0.41800000000E+01 0.  1.
         -5    1    3    3    0  502  0.47902809662E+01  0.25407009745E+02 -0.39656570377E+02  0.47524508519E+02  0.41800000000E+01 0.  1.
        -11    1    1    2    0    0  0.28650133377E+02  0.35963900290E+01  0.83995067596E+02  0.88819679938E+02  0.00000000000E+00 0.  1.
         11    1    1    2    0    0 -0.35569645464E+02 -0.54698284280E+01  0.26868201548E+01  0.36087916316E+02  0.00000000000E+00 0. -1.
</event>
<event>
 7    1  0.2820496E-009  0.1000870E+03  0.7561462E-02  0.1280113E+00
         -1   -1    0    0    0  501 -0.00000000000E+00  0.00000000000E+00  0.12787247869E+03  0.12787247869E+03  0.00000000000E+00 0.  1.
          1   -1    0    0  501    0  0.00000000000E+00 -0.00000000000E+00 -0.10005290781E+03  0.10005290781E+03  0.00000000000E+00 0. -1.
         25    2    1    2    0    0  0.98823366723E+01  0.10356434444E+02  0.42740031754E+02  0.13296435661E+03  0.12509154049E+03 0.  0.
          5    1    3    3  502    0 -0.27576961149E+02  0.54937161599E+02  0.17589652243E+01  0.61637219838E+02  0.41800000000E+01 0. -1.
         -5    1    3    3    0  502  0.37459297821E+02 -0.44580727154E+02  0.40981066529E+02  0.71327136776E+02  0.41800000000E+01 0. -1.
        -11    1    1    2    0    0  0.16091589311E+02 -0.38595092082E+02  0.16913667706E+02  0.45106457793E+02  0.00000000000E+00 0. -1.
         11    1    1    2    0    0 -0.25973925983E+02  0.28238657637E+02 -0.31834128575E+02  0.49854572090E+02  0.00000000000E+00 0.  1.
</event>
<event>
 7    1  0.2820496E-009  0.1254089E+03  0.7561462E-02  0.1234432E+00
          2   -1    0    0  501    0  0.00000000000E+00  0.00000000000E+00  0.23221500518E+03  0.23221500518E+03  0.00000000000E+00 0. -1.
         -2   -1    0    0    0  501 -0.00000000000E+00 -0.00000000000E+00 -0.84977372582E+02  0.84977372582E+02  0.00000000000E+00 0.  1.
         25    2    1    2    0    0  0.35081962827E+02 -0.79829793591E+02  0.57056522186E+02  0.16281410845E+03  0.12509775029E+03 0.  0.
          5    1    3    3  502    0  0.37928436029E+02  0.26155037918E+02  0.20340932161E+02  0.50535909899E+02  0.41800000000E+01 0. -1.
         -5    1    3    3    0  502 -0.28464732024E+01 -0.10598483151E+03  0.36715590024E+02  0.11227819855E+03  0.41800000000E+01 0. -1.
        -11    1    1    2    0    0  0.10162382098E+02  0.27257223917E+02 -0.11510360421E+02  0.31284479580E+02  0.00000000000E+00 0.  1.
         11    1    1    2    0    0 -0.45244344924E+02  0.52572569674E+02  0.10169147083E+03  0.12309378973E+03  0.00000000000E+00 0. -1.
</event>
<event>
 7    1  0.2820496E-009  0.1118322E+03  0.7561462E-02  0.1257214E+00
          3   -1    0    0  501    0  0.00000000000E+00  0.00000000000E+00  0.39520251708E+02  0.39520251708E+02  0.00000000000E+00 0. -1.
         -3   -1    0    0    0  501 -0.00000000000E+00 -0.00000000000E+00 -0.33829560914E+03  0.33829560914E+03  0.00000000000E+00 0.  1.
         25    2    1    2    0    0 -0.33672329677E+02 -0.17778867815E+02 -0.15209235525E+03  0.20057022371E+03  0.12508563541E+03 0.  0.
          5    1    3    3  502    0  0.51892505908E+01  0.48660299794E+02 -0.85978313397E+02  0.99017654347E+02  0.41800000000E+01 0. -1.
         -5    1    3    3    0  502 -0.38861580268E+02 -0.66439167609E+02 -0.66114041853E+02  0.10155256936E+03  0.41800000000E+01 0. -1.
        -11    1    1    2    0    0 -0.27361117476E+02  0.23630972798E+02 -0.72417734602E+02  0.80940607298E+02  0.00000000000E+00 0.  1.
         11    1    1    2    0    0  0.61033447153E+02 -0.58521049829E+01 -0.74265267576E+02  0.96305029839E+02  0.00000000000E+00 0. -1.
</event>
<event>
 7    1  0.2820496E-009  0.1251594E+03  0.7561462E-02  0.1234820E+00
          2   -1    0    0  501    0  0.00000000000E+00  0.00000000000E+00  0.20967848813E+03  0.20967848813E+03  0.00000000000E+00 0. -1.
         -2   -1    0    0    0  501 -0.00000000000E+00 -0.00000000000E+00 -0.91274444293E+02  0.91274444293E+02  0.00000000000E+00 0.  1.
         25    2    1    2    0    0 -0.32951126773E+02 -0.53997636355E+02  0.12662754148E+03  0.18890177052E+03  0.12509125932E+03 0.  0.
          5    1    3    3  502    0  0.36204153004E+02 -0.60357236062E+02  0.67240327487E+02  0.97429311197E+02  0.41800000000E+01 0. -1.
         -5    1    3    3    0  502 -0.69155279777E+02  0.63595997075E+01  0.59387213990E+02  0.91472459325E+02  0.41800000000E+01 0. -1.
        -11    1    1    2    0    0  0.63432878289E+02  0.25042365467E+02 -0.13984195954E+02  0.69616146494E+02  0.00000000000E+00 0. -1.
         11    1    1    2    0    0 -0.30481751515E+02  0.28955270888E+02  0.57606983154E+01  0.42435015409E+02  0.00000000000E+00 0.  1.
</event>
<event>
 7    1  0.2820496E-009  0.1476531E+03  0.7561462E-02  0.1203387E+00
          1   -1    0    0  501    0  0.00000000000E+00  0.00000000000E+00  0.96017340389E+03  0.96017340389E+03  0.00000000000E+00 0. -1.
         -1   -1    0    0    0  501 -0.00000000000E+00 -0.00000000000E+00 -0.23698649614E+02  0.23698649614E+02  0.00000000000E+00 0.  1.
         25    2    1    2    0    0 -0.27738021401E+02  0.10189338583E+03  0.51287930803E+03  0.53837140312E+03  0.12508766201E+03 0.  0.
          5    1    3    3  502    0 -0.71084401380E+02  0.26310462373E+02  0.21658235416E+03  0.22950080846E+03  0.41800000000E+01 0.  1.
         -5    1    3    3    0  502  0.43346379979E+02  0.75582923454E+02  0.29629695387E+03  0.30887059466E+03  0.41800000000E+01 0.  1.
        -11    1    1    2    0    0  0.49673619098E+02 -0.32439827942E+02  0.25561050149E+03  0.26240529595E+03  0.00000000000E+00 0. -1.
         11    1    1    2    0    0 -0.21935597697E+02 -0.69453557886E+02  0.16798494477E+03  0.18309535444E+03  0.00000000000E+00 0.  1.
</event>
<event>
 7    1  0.2820496E-009  0.1030724E+03  0.7561462E-02  0.1273965E+00
         -1   -1    0    0    0  501 -0.00000000000E+00  0.00000000000E+00  0.99478122055E+02  0.99478122055E+02  0.00000000000E+00 0.  1.
          1   -1    0    0  501    0  0.00000000000E+00 -0.00000000000E+00 -0.19993392270E+03  0.19993392270E+03  0.00000000000E+00 0. -1.
         25    2    1    2    0    0  0.18568042054E+02 -0.28653457692E+02  0.33436855070E+02  0.13392321818E+03  0.12510640378E+03 0.  0.
          5    1    3    3  502    0 -0.21545405171E+02 -0.60420720767E+02 -0.11966042848E+02  0.65387510760E+02  0.41800000000E+01 0. -1.
         -5    1    3    3    0  502  0.40113447225E+02  0.31767263075E+02  0.45402897918E+02  0.68535707415E+02  0.41800000000E+01 0. -1.
        -11    1    1    2    0    0  0.31514375446E+02  0.25145929788E+02 -0.90714145404E+02  0.99269984492E+02  0.00000000000E+00 0. -1.
         11    1    1    2    0    0 -0.50082417501E+02  0.35075279036E+01 -0.43178510308E+02  0.66218842086E+02  0.00000000000E+00 0.  1.
</event>
<event>
 7    1  0.2820496E-009  0.9432420E+02  0.7561462E-02  0.1292705E+00
          2   -1    0    0  501    0  0.00000000000E+00  0.00000000000E+00  0.23668512174E+03  0.23668512174E+03  0.00000000000E+00 0.  1.
         -2   -1    0    0    0  501 -0.00000000000E+00 -0.00000000000E+00 -0.55558223760E+02  0.55558223760E+02  0.00000000000E+00 0. -1.
         25    2    1    2    0    0 -0.29914312400E+02  0.91691835404E+01  0.12081003041E+03  0.17667301833E+03  0.12505739460E+03 0.  0.
          5    1    3    3  502    0 -0.21865270348E+02  0.58114598163E+02  0.21953817555E+02  0.65991204507E+02  0.41800000000E+01 0.  1.
         -5    1    3    3    0  502 -0.80490420516E+01 -0.48945414623E+02  0.98856212856E+02  0.11068181382E+03  0.41800000000E+01 0.  1.
        -11    1    1    2    0    0  0.51349030811E+02 -0.16577306455E+02  0.31284020576E+01  0.54049208634E+02  0.00000000000E+00 0. -1.
         11    1    1    2    0    0 -0.21434718411E+02  0.74081229141E+01  0.57188465510E+02  0.61521118535E+02  0.00000000000E+00 0.  1.
</event>
<event>
 7    1  0.2820496E-009  0.8741835E+02  0.7561462E-02  0.1309227E+00
          1   -1    0    0  501    0  0.00000000000E+00  0.00000000000E+00  0.94421463065E+03  0.94421463065E+03  0.00000000000E+00 0. -1.
         -1   -1    0    0    0  501 -0.00000000000E+00 -0.00000000000E+00 -0.19166309713E+02  0.19166309713E+02  0.00000000000E+00 0.  1.
         25    2    1    2    0    0  0.35818575924E+02 -0.26062881465E+02  0.74094315990E+03  0.75273151827E+03  0.12508288542E+03 0.  0.
          5    1    3    3  502    0 -0.11905113390E+02  0.10962815406E+02  0.58803213291E+03  0.58826964632E+03  0.41800000000E+01 0. -1.
         -5    1    3    3    0  502  0.47723689314E+02 -0.37025696870E+02  0.15291102699E+03  0.16446187195E+03  0.41800000000E+01 0. -1.
        -11    1    1    2    0    0  0.65068940956E+01  0.49002566614E+02  0.61321210862E+02  0.78764726287E+02  0.00000000000E+00 0.  1.
         11    1    1    2    0    0 -0.42325470020E+02 -0.22939685150E+02  0.12278395018E+03  0.13188469581E+03  0.00000000000E+00 0. -1.
</event>
<event>
 7    1  0.2820496E-009  0.1970275E+03  0.7561462E-02  0.1152271E+00
         -1   -1    0    0    0  501 -0.00000000000E+00  0.00000000000E+00  0.29917544673E+03  0.29917544673E+03  0.00000000000E+00 0.  1.
          1   -1    0    0  501    0  0.00000000000E+00 -0.00000000000E+00 -0.22612040097E+03  0.22612040097E+03  0.00000000000E+00 0. -1.
         25    2    1    2    0    0 -0.12717074151E+03 -0.13566329771E+03 -0.10952760358E+03  0.24944218723E+03  0.12509268957E+03 0.  0.
          5    1    3    3  502    0  0.16233197681E+01 -0.19558803792E+02  0.23463298548E+02  0.30873625501E+02  0.41800000000E+01 0. -1.
         -5    1    3    3    0  502 -0.12879406127E+03 -0.11610449392E+03 -0.13299090213E+03  0.21856856173E+03  0.41800000000E+01 0. -1.
        -11    1    1    2    0    0 -0.42348570794E+00  0.42617581692E+02  0.69853513529E+02  0.81828790543E+02  0.00000000000E+00 0.  1.
         11    1    1    2    0    0  0.12759422721E+03  0.93045716023E+02  0.11272913582E+03  0.19402486993E+03  0.00000000000E+00 0. -1.
</event>
<event>
 7    1  0.2820496E-009  0.1469697E+03  0.7561462E-02  0.1204247E+00
          1   -1    0    0  501    0  0.00000000000E+00  0.00000000000E+00  0.39161112003E+03  0.39161112003E+03  0.00000000000E+00 0. -1.
         -1   -1    0    0    0  501 -0.00000000000E+00 -0.00000000000E+00 -0.69078890068E+02  0.69078890068E+02  0.00000000000E+00 0.  1.
         25    2    1    2    0    0  0.59402322968E+02  0.10718734939E+03  0.19035349436E+03  0.25864272497E+03  0.12507534737E+03 0.  0.
          5    1    3    3  502    0  0.91658201416E+02  0.48544455759E+02  0.87003737661E+02  0.13544339349E+03  0.41800000000E+01 0. -1.
         -5    1    3    3    0  502 -0.32255878448E+02  0.58642893635E+02  0.10334975670E+03  0.12319933149E+03  0.41800000000E+01 0. -1.
        -11    1    1    2    0    0 -0.16815703246E+02 -0.41666735399E+02 -0.39272598306E+01  0.45103304582E+02  0.00000000000E+00 0.  1.
         11    1    1    2    0    0 -0.42586619721E+02 -0.65520613995E+02  0.13610599543E+03  0.15694398055E+03  0.00000000000E+00 0. -1.
</event>
<event>
 7    1  0.2820496E-009  0.1076969E+03  0.7561462E-02  0.1264895E+00
          3   -1    0    0  501    0  0.00000000000E+00  0.00000000000E+00  0.16770043810E+02  0.16770043810E+02  0.00000000000E+00 0. -1.
         -3   -1    0    0    0  501 -0.00000000000E+00 -0.00000000000E+00 -0.11330096954E+04  0.11330096954E+04  0.00000000000E+00 0.  1.
         25    2    1    2    0    0  0.63928139027E+01 -0.85960378545E+02 -0.62736685610E+03  0.64549638019E+03  0.12508537067E+03 0.  0.
          5    1    3    3  502    0  0.21272342687E+02 -0.51619500884E+02 -0.84743377634E+02  0.10156770101E+03  0.41800000000E+01 0.  1.
         -5    1    3    3    0  502 -0.14879528784E+02 -0.34340877661E+02 -0.54262347847E+03  0.54392867918E+03  0.41800000000E+01 0.  1.
        -11    1    1    2    0    0  0.26185462024E+02  0.85229849604E+02 -0.39425553674E+03  0.40421186764E+03  0.00000000000E+00 0. -1.
         11    1    1    2    0    0 -0.32578275927E+02  0.73052894117E+00 -0.94617258724E+02  0.10007149136E+03  0.00000000000E+00 0.  1.
</event>
<event>
 7    1  0.2820496E-009  0.2609048E+03  0.7561462E-02  0.1106601E+00
          2   -1    0    0  501    0  0.00000000000E+00  0.00000000000E+00  0.12986085237E+04  0.12986085237E+04  0.00000000000E+00 0. -1.
         -2   -1    0    0    0  501 -0.00000000000E+00 -0.00000000000E+00 -0.63733998707E+02  0.63733998707E+02  0.00000000000E+00 0.  1.
         25    2    1    2    0    0 -0.77993123471E+02  0.23240655247E+03  0.87799073561E+03  0.92010934289E+03  0.12505094204E+03 0.  0.
          5    1    3    3  502    0 -0.25808444544E+02  0.20203059338E+03  0.76806729884E+03  0.79462398933E+03  0.41800000000E+01 0. -1.
         -5    1    3    3    0  502 -0.52184678927E+02  0.30375959097E+02  0.10992343677E+03  0.12548535356E+03  0.41800000000E+01 0. -1.
        -11    1    1    2    0    0  0.94452756586E+02 -0.19344802912E+03  0.26763327409E+03  0.34346911447E+03  0.00000000000E+00 0.  1.
         11    1    1    2    0    0 -0.16459633115E+02 -0.38958523354E+02  0.89250515262E+02  0.98764065017E+02  0.00000000000E+00 0. -1.
</event>
<event>
 7    1  0.2820496E-009  0.2301391E+03  0.7561462E-02  0.1126542E+00
          2   -1    0    0  501    0  0.00000000000E+00  0.00000000000E+00  0.88731163361E+03  0.88731163361E+03  0.00000000000E+00 0. -1.
         -2   -1    0    0    0  501 -0.00000000000E+00 -0.00000000000E+00 -0.74993273486E+02  0.74993273486E+02  0.00000000000E+00 0.  1.
         25    2    1    2    0    0  0.19190335543E+03  0.12532642988E+03  0.33117032870E+03  0.42172862852E+03  0.12509051782E+03 0.  0.
          5    1    3    3  502    0  0.10786955785E+03  0.64519440128E+02  0.27793532999E+03  0.30506412395E+03  0.41800000000E+01 0. -1.
         -5    1    3    3    0  502  0.84033797579E+02  0.60806989756E+02  0.53234998713E+02  0.11666450457E+03  0.41800000000E+01 0. -1.
        -11    1    1    2    0    0 -0.53826507626E+02 -0.21558400820E+02  0.51659767997E+02  0.77658156034E+02  0.00000000000E+00 0.  1.
         11    1    1    2    0    0 -0.13807684781E+03 -0.10376802906E+03  0.42948826343E+03  0.46291812254E+03  0.00000000000E+00 0. -1.
</event>
<event>
 7    1  0.2820496E-009  0.1024213E+03  0.7561462E-02  0.1275285E+00
         -2   -1    0    0    0  501 -0.00000000000E+00  0.00000000000E+00  0.29361637888E+02  0.29361637888E+02  0.00000000000E+00 0.  1.
          2   -1    0    0  501    0  0.00000000000E+00 -0.00000000000E+00 -0.41032478473E+03  0.41032478473E+03  0.00000000000E+00 0. -1.
         25    2    1    2    0    0  0.10837234820E+02  0.14849689166E+02 -0.20743957944E+03  0.24293232664E+03  0.12508787823E+03 0.  0.
          5    1    3    3  502    0  0.59055430000E+02 -0.86051705385E+01 -0.54932997670E+02  0.81220067752E+02  0.41800000000E+01 0.  1.
         -5    1    3    3    0  502 -0.48218195180E+02  0.23454859704E+02 -0.15250658177E+03  0.16171225889E+03  0.41800000000E+01 0.  1.
        -11    1    1    2    0    0  0.26788829178E+02 -0.38418530620E+02 -0.10668532891E+03  0.11651345102E+03  0.00000000000E+00 0. -1.
         11    1    1    2    0    0 -0.37626063998E+02  0.23568841455E+02 -0.66838238490E+02  0.80240644962E+02  0.00000000000E+00 0.  1.
</event>
<event>
 7    1  0.2820496E-009  0.1368555E+03  0.7561462E-02  0.1217624E+00
          2   -1    0    0  501    0  0.00000000000E+00  0.00000000000E+00  0.24202294807E+03  0.24202294807E+03  0.00000000000E+00 0. -1.
         -2   -1    0    0    0  501 -0.00000000000E+00 -0.00000000000E+00 -0.80274856255E+02  0.80274856255E+02  0.00000000000E+00 0.  1.
         25    2    1    2    0    0  0.55700765876E+02  0.72530696597E+02  0.65191857488E+02  0.16810901126E+03  0.12508950442E+03 0.  0.
          5    1    3    3  502    0 -0.19620638367E+02 -0.24645189725E+02  0.10375000860E+02  0.33428548718E+02  0.41800000000E+01 0. -1.
         -5    1    3    3    0  502  0.75321404243E+02  0.97175886323E+02  0.54816856628E+02  0.13468046254E+03  0.41800000000E+01 0. -1.
        -11    1    1    2    0    0  0.19245555870E+02 -0.13441693760E+02  0.28745186086E+02  0.37112750841E+02  0.00000000000E+00 0. -1.
         11    1    1    2    0    0 -0.74946321746E+02 -0.59089002837E+02  0.67811048240E+02  0.11707604222E+03  0.00000000000E+00 0.  1.
</event>
<event>
 7    1  0.2820496E-009  0.1332667E+03  0.7561462E-02  0.1222687E+00
         -1   -1    0    0    0  501 -0.00000000000E+00  0.00000000000E+00  0.93608510250E+02  0.93608510250E+02  0.00000000000E+00 0.  1.
          1   -1    0    0  501    0  0.00000000000E+00 -0.00000000000E+00 -0.21812304718E+03  0.21812304718E+03  0.00000000000E+00 0. -1.
         25    2    1    2    0    0 -0.88810238672E+02 -0.27411846335E+02 -0.74414526783E+02  0.17269590894E+03  0.12509071651E+03 0.  0.
          5    1    3    3  502    0 -0.11137204673E+03 -0.36928018915E+02 -0.29009297112E+02  0.12093974984E+03  0.41800000000E+01 0.  1.
         -5    1    3    3    0  502  0.22561808056E+02  0.95161725799E+01 -0.45405229671E+02  0.51756159100E+02  0.41800000000E+01 0.  1.
        -11    1    1    2    0    0  0.96228451441E+02  0.44226636297E+02 -0.55914296530E+02  0.11975942043E+03  0.00000000000E+00 0.  1.
         11    1    1    2    0    0 -0.74182127685E+01 -0.16814789961E+02  0.58142863805E+01  0.19276228060E+02  0.00000000000E+00 0. -1.
</event>
<event>
 7    1  0.2820496E-009  0.1121914E+03  0.7561462E-02  0.1256565E+00
          3   -1    0    0  501    0  0.00000000000E+00  0.00000000000E+00  0.58136712415E+02  0.58136712415E+02  0.00000000000E+00 0. -1.
         -3   -1    0    0    0  501 -0.00000000000E+00 -0.00000000000E+00 -0.22818389993E+03  0.22818389993E+03  0.00000000000E+00 0.  1.
         25    2    1    2    0    0  0.20136308925E+02 -0.23956398037E+02 -0.10720027259E+03  0.16770207349E+03  0.12511077917E+03 0.  0.
          5    1    3    3  502    0  0.90725084453E+00 -0.73343410938E+02 -0.77570221730E+02  0.10683955602E+03  0.41800000000E+01 0.  1.
         -5    1    3    3    0  502  0.19229058081E+02  0.49387012901E+02 -0.29630050864E+02  0.60862517465E+02  0.41800000000E+01 0.  1.
        -11    1    1    2    0    0  0.34972152068E+02  0.24397838532E+02 -0.41546955888E+02  0.59535329753E+02  0.00000000000E+00 0.  1.
         11    1    1    2    0    0 -0.55108460993E+02 -0.44144049479E+00 -0.21299959028E+02  0.59083209098E+02  0.00000000000E+00 0. -1.
</event>
<event>
 7    1  0.2820496E-009  0.1059954E+03  0.7561462E-02  0.1268171E+00
          1   -1    0    0  501    0  0.00000000000E+00  0.00000000000E+00  0.38696491547E+03  0.38696491547E+03  0.00000000000E+00 0. -1.
         -1   -1    0    0    0  501 -0.00000000000E+00 -0.00000000000E+00 -0.73953120108E+02  0.73953120108E+02  0.00000000000E+00 0.  1.
         25    2    1    2    0    0  0.21476384024E+02 -0.56976758780E+01 -0.70906544578E+01  0.12724488160E+03  0.12508910396E+03 0.  0.
          5    1    3    3  502    0 -0.17037222097E+02 -0.58749139324E+02 -0.51050334444E+01  0.61524483537E+02  0.41800000000E+01 0.  1.
         -5    1    3    3    0  502  0.38513606120E+02  0.53051463446E+02 -0.19856210134E+01  0.65720398058E+02  0.41800000000E+01 0.  1.
        -11    1    1    2    0    0  0.20073114661E+02  0.30563820766E+02  0.21323331324E+03  0.21634584107E+03  0.00000000000E+00 0. -1.
         11    1    1    2    0    0 -0.41549498685E+02 -0.24866144888E+02  0.10686913658E+03  0.11732731292E+03  0.00000000000E+00 0.  1.
</event>
<event>
 7    1  0.2820496E-009  0.9195579E+02  0.7561462E-02  0.1298183E+00
          3   -1    0    0  501    0  0.00000000000E+00  0.00000000000E+00  0.30447946564E+03  0.30447946564E+03  0.00000000000E+00 0. -1.
         -3   -1    0    0    0  501 -0.00000000000E+00 -0.00000000000E+00 -0.42268157836E+02  0.42268157836E+02  0.00000000000E+00 0.  1.
         25    2    1    2    0    0  0.10874339888E+02  0.44496865175E+02  0.22139137572E+03  0.25837874174E+03  0.12508881108E+03 0.  0.
          5    1    3    3  502    0 -0.25957196119E+02 -0.35948721642E+02  0.69409146782E+02  0.82469319598E+02  0.41800000000E+01 0.  1.
         -5    1    3    3    0  502  0.36831536007E+02  0.80445586817E+02  0.15198222894E+03  0.17590942214E+03  0.41800000000E+01 0.  1.
        -11    1    1    2    0    0  0.35832327104E+01 -0.30387564929E+02  0.55514429189E+02  0.63388449320E+02  0.00000000000E+00 0. -1.
         11    1    1    2    0    0 -0.14457572599E+02 -0.14109300246E+02 -0.14694497104E+02  0.24980432423E+02  0.00000000000E+00 0.  1.
</event>
<event>
 7    1  0.2820496E-009  0.1764095E+03  0.7561462E-02  0.1171324E+00
         -1   -1    0    0    0  501 -0.00000000000E+00  0.00000000000E+00  0.53377375467E+02  0.53377375467E+02  0.00000000000E+00 0.  1.
          1   -1    0    0  501    0  0.00000000000E+00 -0.00000000000E+00 -0.75833105360E+03  0.75833105360E+03  0.00000000000E+00 0. -1.
         25    2    1    2    0    0  0.15329495585E+03  0.64110092474E+02 -0.41996200769E+03  0.46863951391E+03  0.12508180779E+03 0.  0.
          5    1    3    3  502    0  0.34685022859E+01 -0.80766117802E+01  0.59375614769E+01  0.11401280728E+02  0.41800000000E+01 0. -1.
         -5    1    3    3    0  502  0.14982645357E+03  0.72186704255E+02 -0.42589956917E+03  0.45723823318E+03  0.41800000000E+01 0. -1.
        -11    1    1    2    0    0 -0.57632503203E+02 -0.56582255204E+02 -0.67168529282E+02  0.10504602970E+03  0.00000000000E+00 0. -1.
         11    1    1    2    0    0 -0.95662452648E+02 -0.75278372701E+01 -0.21782314116E+03  0.23802288546E+03  0.00000000000E+00 0.  1.
</event>
<event>
 7    1  0.2820496E-009  0.1672826E+03  0.7561462E-02  0.1180712E+00
          4   -1    0    0  501    0  0.00000000000E+00  0.00000000000E+00  0.53925224585E+03  0.53925224585E+03  0.00000000000E+00 0. -1.
         -4   -1    0    0    0  501 -0.00000000000E+00 -0.00000000000E+00 -0.70638485138E+02  0.70638485138E+02  0.00000000000E+00 0.  1.
         25    2    1    2    0    0 -0.13257303915E+03  0.92645393967E+02  0.23480946106E+03  0.31135430870E+03  0.12508893960E+03 0.  0.
          5    1    3    3  502    0 -0.90753776661E+02  0.93410133810E+02  0.23568831472E+03  0.26931051812E+03  0.41800000000E+01 0.  1.
         -5    1    3    3    0  502 -0.41819262490E+02 -0.76473984381E+00 -0.87885365991E+00  0.42043790576E+02  0.41800000000E+01 0.  1.
        -11    1    1    2    0    0  0.36944872110E+02 -0.19114851760E+02  0.13905993819E+03  0.14514808832E+03  0.00000000000E+00 0. -1.
         11    1    1    2    0    0  0.95628167041E+02 -0.73530542207E+02  0.94744361461E+02  0.15338833397E+03  0.00000000000E+00 0.  1.
</event>
<event>
 7    1  0.2820496E-009  0.2303169E+03  0.7561462E-02  0.1126417E+00
         -2   -1    0    0    0  501 -0.00000000000E+00  0.00000000000E+00  0.45106526990E+03  0.45106526990E+03  0.00000000000E+00 0.  1.
          2   -1    0    0  501    0  0.00000000000E+00 -0.00000000000E+00 -0.17234868711E+03  0.17234868711E+03  0.00000000000E+00 0. -1.
         25    2    1    2    0    0  0.32235051267E+02 -0.21859194966E+03  0.28768505567E+03  0.38370642637E+03  0.12508553630E+03 0.  0.
          5    1    3    3  502    0  0.13309843467E+02 -0.16816314866E+03  0.11873431908E+03  0.20632815472E+03  0.41800000000E+01 0. -1.
         -5    1    3    3    0  502  0.18925207800E+02 -0.50428801003E+02  0.16895073659E+03  0.17737827165E+03  0.41800000000E+01 0. -1.
        -11    1    1    2    0    0  0.17081913635E+01  0.19832957051E+03  0.31458038821E+01  0.19836187269E+03  0.00000000000E+00 0.  1.
         11    1    1    2    0    0 -0.33943242631E+02  0.20262379156E+02 -0.12114276768E+02  0.41345657946E+02  0.00000000000E+00 0. -1.
</event>
<event>
 7    1  0.2820496E-009  0.1383944E+03  0.7561462E-02  0.1215506E+00
          2   -1    0    0  501    0  0.00000000000E+00  0.00000000000E+00  0.67186555375E+03  0.67186555375E+03  0.00000000000E+00 0. -1.
         -2   -1    0    0    0  501 -0.00000000000E+00 -0.00000000000E+00 -0.33553021351E+02  0.33553021351E+02  0.00000000000E+00 0.  1.
         25    2    1    2    0    0  0.90436225755E+02 -0.42355556152E+02  0.30287089704E+03  0.34256570467E+03  0.12509107753E+03 0.  0.
          5    1    3    3  502    0  0.45406482758E+02  0.32960769443E+02  0.19759863123E+03  0.20545279863E+03  0.41800000000E+01 0. -1.
         -5    1    3    3    0  502  0.45029742998E+02 -0.75316325594E+02  0.10527226581E+03  0.13711290604E+03  0.41800000000E+01 0. -1.
        -11    1    1    2    0    0 -0.10275379327E+03  0.53690211609E+02  0.24718315666E+03  0.27302105009E+03  0.00000000000E+00 0. -1.
         11    1    1    2    0    0  0.12317567518E+02 -0.11334655457E+02  0.88258478699E+02  0.89831820343E+02  0.00000000000E+00 0.  1.
</event>
<event>
 7    1  0.2820496E-009  0.9540799E+02  0.7561462E-02  0.1290260E+00
         -1   -1    0    0    0  501 -0.00000000000E+00  0.00000000000E+00  0.44811336366E+02  0.44811336366E+02  0.00000000000E+00 0.  1.
          1   -1    0    0  501    0  0.00000000000E+00 -0.00000000000E+00 -0.31223926190E+03  0.31223926190E+03  0.00000000000E+00 0. -1.
         25    2    1    2    0    0 -0.20215501723E+02 -0.41201449765E+02 -0.17858826762E+03  0.22282254979E+03  0.12509953393E+03 0.  0.
          5    1    3    3  502    0 -0.53451330561E+02  0.55987547224E+01 -0.14828476853E+03  0.15777907267E+03  0.41800000000E+01 0. -1.
         -5    1    3    3    0  502  0.33235828838E+02 -0.46800204487E+02 -0.30303499089E+02  0.65043477118E+02  0.41800000000E+01 0. -1.
        -11    1    1    2    0    0 -0.20988815639E+02  0.30078620998E+02 -0.83519934102E+02  0.91218601258E+02  0.00000000000E+00 0. -1.
         11    1    1    2    0    0  0.41204317362E+02  0.11122828767E+02 -0.53197238119E+01  0.43009447223E+02  0.00000000000E+00 0.  1.
</event>
<event>
 7    1  0.2820496E-009  0.1066142E+03  0.7561462E-02  0.1266971E+00
         -2   -1    0    0    0  501 -0.00000000000E+00  0.00000000000E+00  0.16322662346E+02  0.16322662346E+02  0.00000000000E+00 0.  1.
          2   -1    0    0  501    0  0.00000000000E+00 -0.00000000000E+00 -0.76832466856E+03  0.76832466856E+03  0.00000000000E+00 0. -1.
         25    2    1    2    0    0 -0.20396508507E+01 -0.58908422532E+01 -0.53837950357E+03  0.55275625362E+03  0.12509246120E+03 0.  0.
          5    1    3    3  502    0 -0.16539057439E+02 -0.62451192352E+02 -0.33107055086E+03  0.33734088678E+03  0.41800000000E+01 0.  1.
         -5    1    3    3    0  502  0.14499406588E+02  0.56560350098E+02 -0.20730895271E+03  0.21541536684E+03  0.41800000000E+01 0.  1.
        -11    1    1    2    0    0  0.11258956929E+02  0.46738442128E+02 -0.12299570008E+03  0.13205751899E+03  0.00000000000E+00 0.  1.
         11    1    1    2    0    0 -0.92193060786E+01 -0.40847599875E+02 -0.90626802560E+02  0.99833558298E+02  0.00000000000E+00 0. -1.
</event>
<event>
 7    1  0.2820496E-009  0.9082224E+02  0.7561462E-02  0.1300873E+00
         -2   -1    0    0    0  501 -0.00000000000E+00  0.00000000000E+00  0.15825138831E+03  0.15825138831E+03  0.00000000000E+00 0.  1.
          2   -1    0    0  501    0  0.00000000000E+00 -0.00000000000E+00 -0.13684180105E+03  0.13684180105E+03  0.00000000000E+00 0. -1.
         25    2    1    2    0    0 -0.88319236441E+01  0.79685166636E+02  0.70691979537E+02  0.16453639456E+03  0.12508853068E+03 0.  0.
          5    1    3    3  502    0 -0.20711782682E+02  0.28335168990E+02  0.98605076255E+02  0.10474871458E+03  0.41800000000E+01 0. -1.
         -5    1    3    3    0  502  0.11879859038E+02  0.51349997647E+02 -0.27913096718E+02  0.59787679981E+02  0.41800000000E+01 0. -1.
        -11    1    1    2    0    0  0.15709616211E+02 -0.24660519380E+01 -0.50580303035E+02  0.53021132662E+02  0.00000000000E+00 0. -1.
         11    1    1    2    0    0 -0.68776925671E+01 -0.77219114698E+02  0.12979107517E+01  0.77535662132E+02  0.00000000000E+00 0.  1.
</event>
<event>
 7    1  0.2820496E-009  0.8227836E+02  0.7561462E-02  0.1322707E+00
          2   -1    0    0  501    0  0.00000000000E+00  0.00000000000E+00  0.28678199288E+02  0.28678199288E+02  0.00000000000E+00 0. -1.
         -2   -1    0    0    0  501 -0.00000000000E+00 -0.00000000000E+00 -0.51783753003E+03  0.51783753003E+03  0.00000000000E+00 0.  1.
         25    2    1    2    0    0 -0.16900814352E+01  0.40395705124E+02 -0.36507168337E+03  0.38802717785E+03  0.12511229910E+03 0.  0.
          5    1    3    3  502    0  0.14657612114E+02 -0.37797833343E+02 -0.59228152463E+02  0.71895537014E+02  0.41800000000E+01 0. -1.
         -5    1    3    3    0  502 -0.16347693549E+02  0.78193538467E+02 -0.30584353091E+03  0.31613164084E+03  0.41800000000E+01 0. -1.
        -11    1    1    2    0    0 -0.73635521649E+01 -0.12822130331E+02  0.12184907344E+02  0.19159877183E+02  0.00000000000E+00 0. -1.
         11    1    1    2    0    0  0.90536336001E+01 -0.27573574793E+02 -0.13627255471E+03  0.13932867428E+03  0.00000000000E+00 0.  1.
</event>
<event>
 7    1  0.2820496E-009  0.1643720E+03  0.7561462E-02  0.1183847E+00
         -4   -1    0    0    0  501 -0.00000000000E+00  0.00000000000E+00  0.19425090385E+04  0.19425090385E+04  0.00000000000E+00 0.  1.
          4   -1    0    0  501    0  0.00000000000E+00 -0.00000000000E+00 -0.25202368174E+02  0.25202368174E+02  0.00000000000E+00 0. -1.
         25    2    1    2    0    0  0.56265751369E+02  0.13069923011E+03  0.15757690101E+04  0.15871178235E+04  0.12508752458E+03 0.  0.
          5    1    3    3  502    0 -0.30583344136E+02  0.47329812945E+02  0.27269936631E+03  0.27849213439E+03  0.41800000000E+01 0.  1.
         -5    1    3    3    0  502  0.86849095505E+02  0.83369417167E+02  0.13030696438E+04  0.13086256891E+04  0.41800000000E+01 0.  1.
        -11    1    1    2    0    0 -0.13975160367E+02 -0.96173376838E+02  0.13111902817E+03  0.16320791362E+03  0.00000000000E+00 0. -1.
         11    1    1    2    0    0 -0.42290591002E+02 -0.34525853274E+02  0.21041863208E+03  0.21738566963E+03  0.00000000000E+00 0.  1.
</event>
<event>
 7    1  0.2820496E-009  0.1939172E+03  0.7561462E-02  0.1154975E+00
          1   -1    0    0  501    0  0.00000000000E+00  0.00000000000E+00  0.18470450065E+04  0.18470450065E+04  0.00000000000E+00 0. -1.
         -1   -1    0    0    0  501 -0.00000000000E+00 -0.00000000000E+00 -0.39628673752E+02  0.39628673752E+02  0.00000000000E+00 0.  1.
         25    2    1    2    0    0 -0.17226252512E+03 -0.46593199036E+01  0.15445639866E+04  0.15591733195E+04  0.12508974773E+03 0.  0.
          5    1    3    3  502    0 -0.17876168509E+03 -0.33299205307E+02  0.12585224202E+04  0.12715977082E+04  0.41800000000E+01 0.  1.
         -5    1    3    3    0  502  0.64991599636E+01  0.28639885403E+02  0.28604156641E+03  0.28757561133E+03  0.41800000000E+01 0.  1.
        -11    1    1    2    0    0  0.65228577460E+02  0.19843424043E+02  0.38107706331E+02  0.78107144852E+02  0.00000000000E+00 0.  1.
         11    1    1    2    0    0  0.10703394766E+03 -0.15184104139E+02  0.22474463990E+03  0.24939321589E+03  0.00000000000E+00 0. -1.
</event>
<event>
 7    1  0.2820496E-009  0.1129928E+03  0.7561462E-02  0.1255126E+00
          2   -1    0    0  501    0  0.00000000000E+00  0.00000000000E+00  0.48206205463E+02  0.48206205463E+02  0.00000000000E+00 0. -1.
         -2   -1    0    0    0  501 -0.00000000000E+00 -0.00000000000E+00 -0.27700569394E+03  0.27700569394E+03  0.00000000000E+00 0.  1.
         25    2    1    2    0    0  0.29533382135E+02 -0.29981065790E+02 -0.14252158293E+03  0.19424232855E+03  0.12508635271E+03 0.  0.
          5    1    3    3  502    0 -0.35429705063E+02 -0.52041512722E+02 -0.63647043444E+02  0.89621434860E+02  0.41800000000E+01 0.  1.
         -5    1    3    3    0  502  0.64963087198E+02  0.22060446932E+02 -0.78874539486E+02  0.10462089369E+03  0.41800000000E+01 0.  1.
        -11    1    1    2    0    0 -0.51957409889E+02 -0.54319003550E+01 -0.28260010998E+02  0.59394496424E+02  0.00000000000E+00 0. -1.
         11    1    1    2    0    0  0.22424027754E+02  0.35412966145E+02 -0.58017894552E+02  0.71575074434E+02  0.00000000000E+00 0.  1.
</event>
<event>
 7    1  0.2820496E-009  0.1414579E+03  0.7561462E-02  0.1211381E+00
         -2   -1    0    0    0  501 -0.00000000000E+00  0.00000000000E+00  0.82141628215E+03  0.82141628215E+03  0.00000000000E+00 0.  1.
          2   -1    0    0  501    0  0.00000000000E+00 -0.00000000000E+00 -0.27932593852E+02  0.27932593852E+02  0.00000000000E+00 0. -1.
         25    2    1    2    0    0 -0.38970009711E+02  0.94085408460E+02  0.36023622872E+03  0.39470029534E+03  0.12508979543E+03 0.  0.
          5    1    3    3  502    0  0.37560726333E+02  0.35832601840E+02  0.20925549717E+03  0.21563886248E+03  0.41800000000E+01 0.  1.
         -5    1    3    3    0  502 -0.76530736044E+02  0.58252806620E+02  0.15098073156E+03  0.17906143287E+03  0.41800000000E+01 0.  1.
        -11    1    1    2    0    0 -0.24158357803E+02 -0.38827486370E+01  0.46627131989E+02  0.52657301737E+02  0.00000000000E+00 0. -1.
         11    1    1    2    0    0  0.63128367514E+02 -0.90202659823E+02  0.38662032759E+03  0.40199127892E+03  0.00000000000E+00 0.  1.
</event>
<event>
 7    1  0.2820496E-009  0.1992996E+03  0.7561462E-02  0.1150331E+00
         -1   -1    0    0    0  501 -0.00000000000E+00  0.00000000000E+00  0.16833049446E+04  0.16833049446E+04  0.00000000000E+00 0.  1.
          1   -1    0    0  501    0  0.00000000000E+00 -0.00000000000E+00 -0.30923150093E+02  0.30923150093E+02  0.00000000000E+00 0. -1.
         25    2    1    2    0    0 -0.10019508041E+03 -0.13704041924E+03  0.12555449459E+04  0.12731273025E+04  0.12506352916E+03 0.  0.
          5    1    3    3  502    0 -0.16148481875E+02 -0.12435760210E+03  0.78017730793E+03  0.79020231010E+03  0.41800000000E+01 0. -1.
         -5    1    3    3    0  502 -0.84046598535E+02 -0.12682817138E+02  0.47536763801E+03  0.48292499236E+03  0.41800000000E+01 0. -1.
        -11    1    1    2    0    0 -0.11506703968E+02  0.34603142760E+02  0.44388877110E+02  0.57446968033E+02  0.00000000000E+00 0.  1.
         11    1    1    2    0    0  0.11170178438E+03  0.10243727648E+03  0.35244797145E+03  0.38365382420E+03  0.00000000000E+00 0. -1.
</event>
<event>
 7    1  0.2820496E-009  0.1254174E+03  0.7561462E-02  0.1234418E+00
          1   -1    0    0  501    0  0.00000000000E+00  0.00000000000E+00  0.19082751475E+03  0.19082751475E+03  0.00000000000E+00 0. -1.
         -1   -1    0    0    0  501 -0.00000000000E+00 -0.00000000000E+00 -0.13511149145E+03  0.13511149145E+03  0.00000000000E+00 0.  1.
         25    2    1    2    0    0  0.25540258084E+02  0.12135100117E+03  0.82245252233E+01  0.17633305135E+03  0.12508929576E+03 0.  0.
          5    1    3    3  502    0  0.33517085052E+01  0.48186076847E+02 -0.57649648626E+02  0.75326531439E+02  0.41800000000E+01 0. -1.
         -5    1    3    3    0  502  0.22188549579E+02  0.73164924323E+02  0.65874173850E+02  0.10100651991E+03  0.41800000000E+01 0. -1.
        -11    1    1    2    0    0 -0.23829062026E+02 -0.62230475905E+02  0.59406380040E+02  0.89272472341E+02  0.00000000000E+00 0. -1.
         11    1    1    2    0    0 -0.17111960582E+01 -0.59120525265E+02 -0.11914881965E+02  0.60333482510E+02  0.00000000000E+00 0.  1.
</event>
<event>
 7    1  0.2820496E-009  0.1692953E+03  0.7561462E-02  0.1178585E+00
          2   -1    0    0  501    0  0.00000000000E+00  0.00000000000E+00  0.20725289611E+04  0.20725289611E+04  0.00000000000E+00 0. -1.
         -2   -1    0    0    0  501 -0.00000000000E+00 -0.00000000000E+00 -0.20363570113E+02  0.20363570113E+02  0.00000000000E+00 0.  1.
         25    2    1    2    0    0 -0.13690818472E+03  0.47321866520E+02  0.15638668314E+04  0.15755348318E+04  0.12508928701E+03 0.  0.
          5    1    3    3  502    0  0.53062707033E+01  0.22191719359E+02  0.54004750307E+02  0.58775967645E+02  0.41800000000E+01 0. -1.
         -5    1    3    3    0  502 -0.14221445543E+03  0.25130147161E+02  0.15098620811E+04  0.15167588641E+04  0.41800000000E+01 0. -1.
        -11    1    1    2    0    0  0.84942314402E+02  0.18619119223E+02  0.24331629807E+03  0.25838864001E+03  0.00000000000E+00 0.  1.
         11    1    1    2    0    0  0.51965870322E+02 -0.65940985742E+02  0.24498226148E+03  0.25896905938E+03  0.00000000000E+00 0. -1.
</event>
<event>
 7    1  0.2820496E-009  0.1112043E+03  0.7561462E-02  0.1258356E+00
         -1   -1    0    0    0  501 -0.00000000000E+00  0.00000000000E+00  0.35804942841E+02  0.35804942841E+02  0.00000000000E+00 0.  1.
          1   -1    0    0  501    0  0.00000000000E+00 -0.00000000000E+00 -0.54299114409E+03  0.54299114409E+03  0.00000000000E+00 0. -1.
         25    2    1    2    0    0  0.20207238949E+02 -0.29298506869E+02 -0.11235290368E+03  0.17186505982E+03  0.12509072232E+03 0.  0.
          5    1    3    3  502    0 -0.37896263384E+02 -0.49454309510E+02 -0.30773491295E+02  0.69615628088E+02  0.41800000000E+01 0. -1.
         -5    1    3    3    0  502  0.58103502333E+02  0.20155802641E+02 -0.81579412386E+02  0.10224943173E+03  0.41800000000E+01 0. -1.
        -11    1    1    2    0    0 -0.44167686531E+02 -0.16081875297E+02 -0.17704741278E+03  0.18318077852E+03  0.00000000000E+00 0.  1.
         11    1    1    2    0    0  0.23960447582E+02  0.45380382167E+02 -0.21778588478E+03  0.22375024859E+03  0.00000000000E+00 0. -1.
</event>
<event>
 7    1  0.5750398E-009  0.1778117E+03  0.7561462E-02  0.1169938E+00
         -2   -1    0    0    0  501 -0.00000000000E+00  0.00000000000E+00  0.15251210875E+02  0.15251210875E+02  0.00000000000E+00 0.  1.
          2   -1    0    0  501    0  0.00000000000E+00 -0.00000000000E+00 -0.22744320911E+04  0.22744320911E+04  0.00000000000E+00 0. -1.
         25    2    1    2    0    0  0.22075252452E+02  0.14047403215E+03 -0.14934154405E+04  0.15053761654E+04  0.12508977081E+03 0.  0.
          5    1    3    3  502    0  0.14372075418E+02  0.16225150404E+03 -0.13778209658E+04  0.13874221395E+04  0.41800000000E+01 0.  1.
         -5    1    3    3    0  502  0.77031770340E+01 -0.21777471889E+02 -0.11559447475E+03  0.11795402584E+03  0.41800000000E+01 0.  1.
        -11    1    1    2    0    0 -0.57249346161E+02 -0.69881242288E+02 -0.43289231662E+03  0.44221785745E+03  0.00000000000E+00 0.  1.
         11    1    1    2    0    0  0.35174093709E+02 -0.70592789866E+02 -0.33287312311E+03  0.34208927919E+03  0.00000000000E+00 0. -1.
</event>
<event>
 7    1  0.2820496E-009  0.2704043E+03  0.7561462E-02  0.1101048E+00
         -1   -1    0    0    0  501 -0.00000000000E+00  0.00000000000E+00  0.86727346110E+02  0.86727346110E+02  0.00000000000E+00 0.  1.
          1   -1    0    0  501    0  0.00000000000E+00 -0.00000000000E+00 -0.10040618166E+04  0.10040618166E+04  0.00000000000E+00 0. -1.
         25    2    1    2    0    0  0.23451298830E+03  0.13306347649E+03 -0.56177363612E+03  0.63556255383E+03  0.12509161097E+03 0.  0.
          5    1    3    3  502    0  0.39004068644E+02  0.20350997877E+02 -0.23053818636E+03  0.23473561352E+03  0.41800000000E+01 0. -1.
         -5    1    3    3    0  502  0.19550891966E+03  0.11271247862E+03 -0.33123544976E+03  0.40082694031E+03  0.41800000000E+01 0. -1.
        -11    1    1    2    0    0 -0.14921569525E+03 -0.69951451187E+02 -0.28023672689E+03  0.32510175688E+03  0.00000000000E+00 0. -1.
         11    1    1    2    0    0 -0.85297293050E+02 -0.63112025306E+02 -0.75324107493E+02  0.13012485201E+03  0.00000000000E+00 0.  1.
</event>
<event>
 7    1  0.2820496E-009  0.3185741E+03  0.7561462E-02  0.1076307E+00
          4   -1    0    0  501    0  0.00000000000E+00  0.00000000000E+00  0.23986974957E+03  0.23986974957E+03  0.00000000000E+00 0. -1.
         -4   -1    0    0    0  501 -0.00000000000E+00 -0.00000000000E+00 -0.47476650308E+03  0.47476650308E+03  0.00000000000E+00 0.  1.
         25    2    1    2    0    0 -0.25522514301E+03 -0.16929430103E+03 -0.21514843200E+03  0.39463550341E+03  0.12509156156E+03 0.  0.
          5    1    3    3  502    0 -0.58584443796E+02 -0.88309052504E+02 -0.12414789984E+03  0.16328134995E+03  0.41800000000E+01 0.  1.
         -5    1    3    3    0  502 -0.19664069922E+03 -0.80985248527E+02 -0.91000532165E+02  0.23135415346E+03  0.41800000000E+01 0.  1.
        -11    1    1    2    0    0  0.10173521730E+03  0.18861637183E+02 -0.18326903792E+02  0.10507945184E+03  0.00000000000E+00 0.  1.
         11    1    1    2    0    0  0.15348992571E+03  0.15043266385E+03 -0.14214177139E+01  0.21492129740E+03  0.00000000000E+00 0. -1.
</event>
<event>
 7    1  0.2820496E-009  0.1214545E+03  0.7561462E-02  0.1240717E+00
         -2   -1    0    0    0  501 -0.00000000000E+00  0.00000000000E+00  0.52601047628E+02  0.52601047628E+02  0.00000000000E+00 0.  1.
          2   -1    0    0  501    0  0.00000000000E+00 -0.00000000000E+00 -0.37122019860E+03  0.37122019860E+03  0.00000000000E+00 0. -1.
         25    2    1    2    0    0  0.39359391457E+01  0.66237077234E+02 -0.87854840863E+02  0.16663793012E+03  0.12508750807E+03 0.  0.
          5    1    3    3  502    0  0.36158202925E+02 -0.24772313860E+02 -0.18852453798E+02  0.47895413005E+02  0.41800000000E+01 0. -1.
         -5    1    3    3    0  502 -0.32222263779E+02  0.91009391094E+02 -0.69002387065E+02  0.11874251712E+03  0.41800000000E+01 0. -1.
        -11    1    1    2    0    0  0.31855810146E+02 -0.63586540060E+01 -0.13408310302E+03  0.13796196445E+03  0.00000000000E+00 0. -1.
         11    1    1    2    0    0 -0.35791749291E+02 -0.59878423228E+02 -0.96681207090E+02  0.11922135165E+03  0.00000000000E+00 0.  1.
</event>
<event>
 7    1  0.2820496E-009  0.9747295E+02  0.7561462E-02  0.1285702E+00
          2   -1    0    0  501    0  0.00000000000E+00  0.00000000000E+00  0.64373737418E+02  0.64373737418E+02  0.00000000000E+00 0. -1.
         -2   -1    0    0    0  501 -0.00000000000E+00 -0.00000000000E+00 -0.22397521804E+03  0.22397521804E+03  0.00000000000E+00 0.  1.
         25    2    1    2    0    0  0.40992022018E+02  0.11744118750E+02 -0.11770723036E+03  0.17697453654E+03  0.12508686706E+03 0.  0.
          5    1    3    3  502    0  0.64971513201E+02 -0.37611011766E+02 -0.52787626149E+02  0.91868882698E+02  0.41800000000E+01 0.  1.
         -5    1    3    3    0  502 -0.23979491183E+02  0.49355130516E+02 -0.64919604207E+02  0.85105653844E+02  0.41800000000E+01 0.  1.
        -11    1    1    2    0    0 -0.37956021286E+02  0.12753216675E+02  0.19986220706E+02  0.44752129620E+02  0.00000000000E+00 0. -1.
         11    1    1    2    0    0 -0.30360007314E+01 -0.24497335426E+02 -0.61880470970E+02  0.66622289294E+02  0.00000000000E+00 0.  1.
</event>
<event>
 7    1  0.2820496E-009  0.2600932E+03  0.7561462E-02  0.1107087E+00
          1   -1    0    0  501    0  0.00000000000E+00  0.00000000000E+00  0.10728577614E+04  0.10728577614E+04  0.00000000000E+00 0. -1.
         -1   -1    0    0    0  501 -0.00000000000E+00 -0.00000000000E+00 -0.69985197279E+02  0.69985197279E+02  0.00000000000E+00 0.  1.
         25    2    1    2    0    0 -0.22724262870E+03 -0.10265964026E+03  0.45890959619E+03  0.53705181257E+03  0.12509363640E+03 0.  0.
          5    1    3    3  502    0 -0.10382855865E+03 -0.77701090833E+02  0.33958969539E+03  0.36353330346E+03  0.41800000000E+01 0. -1.
         -5    1    3    3    0  502 -0.12341407005E+03 -0.24958549424E+02  0.11931990080E+03  0.17351850911E+03  0.41800000000E+01 0. -1.
        -11    1    1    2    0    0  0.51017265639E+02  0.67738757849E+02  0.13998234471E+03  0.16366538284E+03  0.00000000000E+00 0. -1.
         11    1    1    2    0    0  0.17622536306E+03  0.34920882408E+02  0.40398062319E+03  0.44212576325E+03  0.00000000000E+00 0.  1.
</event>
<event>
 7    1  0.2820496E-009  0.8389900E+02  0.7561462E-02  0.1318337E+00
          1   -1    0    0  501    0  0.00000000000E+00  0.00000000000E+00  0.33007773327E+02  0.33007773327E+02  0.00000000000E+00 0. -1.
         -1   -1    0    0    0  501 -0.00000000000E+00 -0.00000000000E+00 -0.44275694691E+03  0.44275694691E+03  0.00000000000E+00 0.  1.
         25    2    1    2    0    0 -0.38273530134E+02  0.38648871851E+02 -0.21449193310E+03  0.25419122029E+03  0.12509112159E+03 0.  0.
          5    1    3    3  502    0 -0.33716504308E+02  0.11634112997E+02  0.19671823573E+01  0.35965225627E+02  0.41800000000E+01 0. -1.
         -5    1    3    3    0  502 -0.45570258264E+01  0.27014758854E+02 -0.21645911546E+03  0.21822599466E+03  0.41800000000E+01 0. -1.
        -11    1    1    2    0    0 -0.28887069083E+02 -0.60273660914E+01 -0.66103849879E+02  0.72391372904E+02  0.00000000000E+00 0.  1.
         11    1    1    2    0    0  0.67160599217E+02 -0.32621505760E+02 -0.12915339060E+03  0.14918212704E+03  0.00000000000E+00 0. -1.
</event>
<event>
 7    1  0.2820496E-009  0.1268704E+03  0.7561462E-02  0.1232175E+00
          2   -1    0    0  501    0  0.00000000000E+00  0.00000000000E+00  0.73266194834E+03  0.73266194834E+03  0.00000000000E+00 0. -1.
         -2   -1    0    0    0  501 -0.00000000000E+00 -0.00000000000E+00 -0.27088549771E+02  0.27088549771E+02  0.00000000000E+00 0.  1.
         25    2    1    2    0    0 -0.89018429227E+02  0.10420536581E+02  0.41032252192E+03  0.43822905328E+03  0.12508901960E+03 0.  0.
          5    1    3    3  502    0 -0.74432311405E+02 -0.33616041203E+02  0.36196549564E+03  0.37108853343E+03  0.41800000000E+01 0.  1.
         -5    1    3    3    0  502 -0.14586117823E+02  0.44036577784E+02  0.48357026278E+02  0.67140519856E+02  0.41800000000E+01 0.  1.
        -11    1    1    2    0    0  0.41393717673E+02  0.38914648569E+02  0.16178709777E+03  0.17147260638E+03  0.00000000000E+00 0. -1.
         11    1    1    2    0    0  0.47624711554E+02 -0.49335185151E+02  0.13346377888E+03  0.15004883844E+03  0.00000000000E+00 0.  1.
</event>
<event>
 7    1  0.2820496E-009  0.1077399E+03  0.7561462E-02  0.1264813E+00
          2   -1    0    0  501    0  0.00000000000E+00  0.00000000000E+00  0.35244688492E+03  0.35244688492E+03  0.00000000000E+00 0. -1.
         -2   -1    0    0    0  501 -0.00000000000E+00 -0.00000000000E+00 -0.36112109451E+02  0.36112109451E+02  0.00000000000E+00 0.  1.
         25    2    1    2    0    0 -0.13983009606E+02 -0.12683907902E+02  0.14108242169E+03  0.18949628318E+03  0.12509270784E+03 0.  0.
          5    1    3    3  502    0 -0.15027972473E+02  0.54902680064E+02  0.80154298081E+02  0.98398821821E+02  0.41800000000E+01 0. -1.
         -5    1    3    3    0  502  0.10449628674E+01 -0.67586587966E+02  0.60928123604E+02  0.91097461360E+02  0.41800000000E+01 0. -1.
        -11    1    1    2    0    0  0.48744378779E+02 -0.91988446246E+01  0.67656930675E+02  0.83893345823E+02  0.00000000000E+00 0.  1.
         11    1    1    2    0    0 -0.34761369173E+02  0.21882752527E+02  0.10759542311E+03  0.11516936537E+03  0.00000000000E+00 0. -1.
</event>
<event>
 7    1  0.2820496E-009  0.1094172E+03  0.7561462E-02  0.1261653E+00
          2   -1    0    0  501    0  0.00000000000E+00  0.00000000000E+00  0.21363475191E+03  0.21363475191E+03  0.00000000000E+00 0. -1.
         -2   -1    0    0    0  501 -0.00000000000E+00 -0.00000000000E+00 -0.65361966166E+02  0.65361966166E+02  0.00000000000E+00 0.  1.
         25    2    1    2    0    0  0.39458081645E+01  0.12148622677E+02  0.32757238392E+02  0.12993769209E+03  0.12509040220E+03 0.  0.
          5    1    3    3  502    0  0.62759987088E+02 -0.74459850462E+01  0.20786363866E+02  0.66661863126E+02  0.41800000000E+01 0.  1.
         -5    1    3    3    0  502 -0.58814178924E+02  0.19594607723E+02  0.11970874526E+02  0.63275828965E+02  0.41800000000E+01 0.  1.
        -11    1    1    2    0    0  0.38856587736E+02 -0.27812373934E+02  0.69042929620E+02  0.83965997194E+02  0.00000000000E+00 0.  1.
         11    1    1    2    0    0 -0.42802395901E+02  0.15663751257E+02  0.46472617732E+02  0.65093028790E+02  0.00000000000E+00 0. -1.
</event>
<event>
 7    1  0.2820496E-009  0.3012902E+03  0.7561462E-02  0.1084597E+00
          1   -1    0    0  501    0  0.00000000000E+00  0.00000000000E+00  0.16767325575E+04  0.16767325575E+04  0.00000000000E+00 0. -1.
         -1   -1    0    0    0  501 -0.00000000000E+00 -0.00000000000E+00 -0.69260179691E+02  0.69260179691E+02  0.00000000000E+00 0.  1.
         25    2    1    2    0    0 -0.20737289038E+03  0.21404165426E+03  0.49311434642E+03  0.58959185124E+03  0.12505777456E+03 0.  0.
          5    1    3    3  502    0 -0.12225071384E+03  0.10816647238E+03  0.15481933217E+03  0.22501493460E+03  0.41800000000E+01 0. -1.
         -5    1    3    3    0  502 -0.85122176541E+02  0.10587518189E+03  0.33829501425E+03  0.36457691663E+03  0.41800000000E+01 0. -1.
        -11    1    1    2    0    0  0.11848781481E+03 -0.16089538806E+03  0.62345460997E+03  0.65469255292E+03  0.00000000000E+00 0.  1.
         11    1    1    2    0    0  0.88885075568E+02 -0.53146266197E+02  0.49090342138E+03  0.50170833299E+03  0.00000000000E+00 0. -1.
</event>
<event>
 7    1  0.2820496E-009  0.7631936E+02  0.7561462E-02  0.1339833E+00
          2   -1    0    0  501    0  0.00000000000E+00  0.00000000000E+00  0.91661202844E+02  0.91661202844E+02  0.00000000000E+00 0. -1.
         -2   -1    0    0    0  501 -0.00000000000E+00 -0.00000000000E+00 -0.20768920701E+03  0.20768920701E+03  0.00000000000E+00 0.  1.
         25    2    1    2    0    0  0.76939024995E+01  0.64979375109E+02 -0.51146548361E+01  0.14126366889E+03  0.12509096342E+03 0.  0.
          5    1    3    3  502    0  0.84842495058E+01  0.12509111305E+02 -0.61885593743E+02  0.63841675011E+02  0.41800000000E+01 0.  1.
         -5    1    3    3    0  502 -0.79034700631E+00  0.52470263804E+02  0.56770938907E+02  0.77421993881E+02  0.41800000000E+01 0.  1.
        -11    1    1    2    0    0 -0.24561758520E+02 -0.95131775626E+01 -0.94109759701E+02  0.97726288172E+02  0.00000000000E+00 0.  1.
         11    1    1    2    0    0  0.16867856020E+02 -0.55466197547E+02 -0.16803589633E+02  0.60360452794E+02  0.00000000000E+00 0. -1.
</event>
<event>
 7    1  0.2820496E-009  0.9505198E+02  0.7561462E-02  0.1291059E+00
         -1   -1    0    0    0  501 -0.00000000000E+00  0.00000000000E+00  0.55407306884E+02  0.55407306884E+02  0.00000000000E+00 0.  1.
          1   -1    0    0  501    0  0.00000000000E+00 -0.00000000000E+00 -0.38133382576E+03  0.38133382576E+03  0.00000000000E+00 0. -1.
         25    2    1    2    0    0  0.11478835083E+02 -0.91726509230E+02 -0.13924554662E+03  0.20876081618E+03  0.12508493102E+03 0.  0.
          5    1    3    3  502    0  0.48605560737E+01 -0.55703157678E+02 -0.15781790969E+03  0.16748263134E+03  0.41800000000E+01 0.  1.
         -5    1    3    3    0  502  0.66182790098E+01 -0.36023351552E+02  0.18572363071E+02  0.41278184845E+02  0.41800000000E+01 0.  1.
        -11    1    1    2    0    0  0.92315013493E+01  0.46759060894E+02 -0.16870827218E+03  0.17531146995E+03  0.00000000000E+00 0. -1.
         11    1    1    2    0    0 -0.20710336433E+02  0.44967448336E+02 -0.17972700075E+02  0.52668846513E+02  0.00000000000E+00 0.  1.
</event>
<event>
 7    1  0.2820496E-009  0.1346030E+03  0.7561462E-02  0.1220781E+00
         -2   -1    0    0    0  501 -0.00000000000E+00  0.00000000000E+00  0.39445411063E+03  0.39445411063E+03  0.00000000000E+00 0.  1.
          2   -1    0    0  501    0  0.00000000000E+00 -0.00000000000E+00 -0.61251047687E+02  0.61251047687E+02  0.00000000000E+00 0. -1.
         25    2    1    2    0    0  0.41697830594E+02  0.71725405444E+02  0.28865167433E+03  0.32534615462E+03  0.12508832228E+03 0.  0.
          5    1    3    3  502    0  0.84846907204E+02  0.62693732203E+02  0.19477781077E+03  0.22155218277E+03  0.41800000000E+01 0.  1.
         -5    1    3    3    0  502 -0.43149076610E+02  0.90316732419E+01  0.93873863556E+02  0.10379397185E+03  0.41800000000E+01 0.  1.
        -11    1    1    2    0    0  0.20350265791E+02  0.47170404420E+01 -0.28569949654E+01  0.21084264476E+02  0.00000000000E+00 0. -1.
         11    1    1    2    0    0 -0.62048096384E+02 -0.76442445886E+02  0.47408383576E+02  0.10927473922E+03  0.00000000000E+00 0.  1.
</event>
<event>
 7    1  0.2820496E-009  0.1154542E+03  0.7561462E-02  0.1250790E+00
         -1   -1    0    0    0  501 -0.00000000000E+00  0.00000000000E+00  0.27252906245E+02  0.27252906245E+02  0.00000000000E+00 0.  1.
          1   -1    0    0  501    0  0.00000000000E+00 -0.00000000000E+00 -0.73127035756E+03  0.73127035756E+03  0.00000000000E+00 0. -1.
         25    2    1    2    0    0  0.54765136977E+02 -0.45891556226E+02 -0.53925215957E+03  0.55816598005E+03  0.12510441447E+03 0.  0.
          5    1    3    3  502    0 -0.20577239683E+02 -0.54485360162E+02 -0.13890450314E+03  0.15067850098E+03  0.41800000000E+01 0.  1.
         -5    1    3    3    0  502  0.75342376660E+02  0.85938039359E+01 -0.40034765643E+03  0.40748747907E+03  0.41800000000E+01 0.  1.
        -11    1    1    2    0    0 -0.66111409768E+02  0.21250010230E+02 -0.58857217643E+02  0.91029959382E+02  0.00000000000E+00 0.  1.
         11    1    1    2    0    0  0.11346272792E+02  0.24641545996E+02 -0.10590807410E+03  0.10932732438E+03  0.00000000000E+00 0. -1.
</event>
<event>
 7    1  0.2820496E-009  0.1794938E+03  0.7561462E-02  0.1168294E+00
          1   -1    0    0  501    0  0.00000000000E+00  0.00000000000E+00  0.44062069909E+03  0.44062069909E+03  0.00000000000E+00 0. -1.
         -1   -1    0    0    0  501 -0.00000000000E+00 -0.00000000000E+00 -0.91600550649E+02  0.91600550649E+02  0.00000000000E+00 0.  1.
         25    2    1    2    0    0 -0.12139620937E+03  0.11367040725E+03  0.21831574287E+03  0.30161169144E+03  0.12509935131E+03 0.  0.
          5    1    3    3  502    0 -0.90384010023E+02  0.61395820245E+02  0.21426411571E+03  0.24055207273E+03  0.41800000000E+01 0.  1.
         -5    1    3    3    0  502 -0.31012199343E+02  0.52274587009E+02  0.40516271543E+01  0.61059618715E+02  0.41800000000E+01 0.  1.
        -11    1    1    2    0    0  0.12762539715E+03 -0.71898058220E+02  0.89825538286E+02  0.17183189489E+03  0.00000000000E+00 0.  1.
         11    1    1    2    0    0 -0.62291877867E+01 -0.41772349034E+02  0.40878867290E+02  0.58777663404E+02  0.00000000000E+00 0. -1.
</event>
<event>
 7    1  0.2820496E-009  0.1068243E+03  0.7561462E-02  0.1266566E+00
         -2   -1    0    0    0  501 -0.00000000000E+00  0.00000000000E+00  0.18818605374E+02  0.18818605374E+02  0.00000000000E+00 0.  1.
          2   -1    0    0  501    0  0.00000000000E+00 -0.00000000000E+00 -0.85145460743E+03  0.85145460743E+03  0.00000000000E+00 0. -1.
         25    2    1    2    0    0  0.42571828630E+02 -0.35623108332E+02 -0.61536102191E+03  0.63039669664E+03  0.12509772742E+03 0.  0.
          5    1    3    3  502    0 -0.24202813074E+02 -0.58850998716E+02 -0.34914776503E+03  0.35492372481E+03  0.41800000000E+01 0. -1.
         -5    1    3    3    0  502  0.66774641704E+02  0.23227890384E+02 -0.26621325688E+03  0.27547297183E+03  0.41800000000E+01 0. -1.
        -11    1    1    2    0    0 -0.48927088419E+02  0.66305924586E+01 -0.19897074003E+03  0.20500531731E+03  0.00000000000E+00 0. -1.
         11    1    1    2    0    0  0.63552597885E+01  0.28992515873E+02 -0.18304240121E+02  0.34871198862E+02  0.00000000000E+00 0.  1.
</event>
<event>
 7    1  0.2820496E-009  0.1099499E+03  0.7561462E-02  0.1260663E+00
          1   -1    0    0  501    0  0.00000000000E+00  0.00000000000E+00  0.19635801848E+03  0.19635801848E+03  0.00000000000E+00 0. -1.
         -1   -1    0    0    0  501 -0.00000000000E+00 -0.00000000000E+00 -0.65116140390E+02  0.65116140390E+02  0.00000000000E+00 0.  1.
         25    2    1    2    0    0 -0.21268939093E+02 -0.12385023037E+02  0.60811163360E+02  0.14124568270E+03  0.12508632510E+03 0.  0.
          5    1    3    3  502    0 -0.28501000513E+02  0.51334710707E+02  0.10876090504E+02  0.59860849461E+02  0.41800000000E+01 0.  1.
         -5    1    3    3    0  502  0.72320614200E+01 -0.63719733744E+02  0.49935072856E+02  0.81384833242E+02  0.41800000000E+01 0.  1.
        -11    1    1    2    0    0  0.46727322558E+02 -0.23868752435E+02  0.31141022766E+02  0.61015762842E+02  0.00000000000E+00 0. -1.
         11    1    1    2    0    0 -0.25458383465E+02  0.36253775473E+02  0.39289691962E+02  0.59212713323E+02  0.00000000000E+00 0.  1.
</event>
<event>
 7    1  0.2820496E-009  0.1736153E+03  0.7561462E-02  0.1174129E+00
          2   -1    0    0  501    0  0.00000000000E+00  0.00000000000E+00  0.99522134541E+02  0.99522134541E+02  0.00000000000E+00 0. -1.
         -2   -1    0    0    0  501 -0.00000000000E+00 -0.00000000000E+00 -0.57052494033E+03  0.57052494033E+03  0.00000000000E+00 0.  1.
         25    2    1    2    0    0  0.14057554690E+03 -0.50527465487E+02 -0.45340482319E+03  0.49349546356E+03  0.12508928694E+03 0.  0.
          5    1    3    3  502    0  0.15565886923E+03 -0.29010278037E+02 -0.31528601607E+03  0.35283710708E+03  0.41800000000E+01 0.  1.
         -5    1    3    3    0  502 -0.15083322327E+02 -0.21517187450E+02 -0.13811880711E+03  0.14065835648E+03  0.41800000000E+01 0.  1.
        -11    1    1    2    0    0 -0.78553711888E+02  0.60835269068E+02  0.22643410504E+02  0.10190358018E+03  0.00000000000E+00 0. -1.
         11    1    1    2    0    0 -0.62021835017E+02 -0.10307803580E+02 -0.40241393109E+02  0.74648031138E+02  0.00000000000E+00 0.  1.
</event>
<event>
 7    1  0.2820496E-009  0.1003846E+03  0.7561462E-02  0.1279489E+00
          2   -1    0    0  501    0  0.00000000000E+00  0.00000000000E+00  0.41725971810E+03  0.41725971810E+03  0.00000000000E+00 0. -1.
         -2   -1    0    0    0  501 -0.00000000000E+00 -0.00000000000E+00 -0.38996420786E+02  0.38996420786E+02  0.00000000000E+00 0.  1.
         25    2    1    2    0    0  0.22798830568E+02 -0.58107444025E+02  0.16254027029E+03  0.21439132988E+03  0.12509213060E+03 0.  0.
          5    1    3    3  502    0 -0.33487877254E+02  0.39239695127E+01  0.29455285919E+01  0.34102551200E+02  0.41800000000E+01 0. -1.
         -5    1    3    3    0  502  0.56286707821E+02 -0.62031413538E+02  0.15959474169E+03  0.18028877868E+03  0.41800000000E+01 0. -1.
        -11    1    1    2    0    0  0.78382033111E+01  0.50839849048E+02  0.45257024072E+02  0.68515150954E+02  0.00000000000E+00 0.  1.
         11    1    1    2    0    0 -0.30637033879E+02  0.72675949779E+01  0.17046600296E+03  0.17334965805E+03  0.00000000000E+00 0. -1.
</event>
<event>
 7    1  0.2820496E-009  0.1627587E+03  0.7561462E-02  0.1185617E+00
          2   -1    0    0  501    0  0.00000000000E+00  0.00000000000E+00  0.45985481511E+03  0.45985481511E+03  0.00000000000E+00 0. -1.
         -2   -1    0    0    0  501 -0.00000000000E+00 -0.00000000000E+00 -0.71313202590E+02  0.71313202590E+02  0.00000000000E+00 0.  1.
         25    2    1    2    0    0 -0.12594900784E+03  0.69715814460E+02  0.24676225750E+03  0.31187369496E+03  0.12510052966E+03 0.  0.
          5    1    3    3  502    0 -0.61705906859E-01 -0.24086672675E+02  0.76181078555E+02  0.80007504260E+02  0.41800000000E+01 0. -1.
         -5    1    3    3    0  502 -0.12588730193E+03  0.93802487134E+02  0.17058117895E+03  0.23186619070E+03  0.41800000000E+01 0. -1.
        -11    1    1    2    0    0  0.49030398024E+02 -0.29587669025E+02  0.52156700646E+01  0.57503159069E+02  0.00000000000E+00 0.  1.
         11    1    1    2    0    0  0.76918609817E+02 -0.40128145434E+02  0.13656368495E+03  0.16179116366E+03  0.00000000000E+00 0. -1.
</event>
<event>
 7    1  0.2820496E-009  0.1116317E+03  0.7561462E-02  0.1257578E+00
         -1   -1    0    0    0  501 -0.00000000000E+00  0.00000000000E+00  0.90023162456E+02  0.90023162456E+02  0.00000000000E+00 0.  1.
          1   -1    0    0  501    0  0.00000000000E+00 -0.00000000000E+00 -0.16556550505E+03  0.16556550505E+03  0.00000000000E+00 0. -1.
         25    2    1    2    0    0  0.20170373623E+02 -0.27872255381E+02 -0.89109612173E+02  0.15738457085E+03  0.12508266693E+03 0.  0.
          5    1    3    3  502    0  0.58441526547E+02 -0.54261693954E+02 -0.72451742942E+02  0.10782611424E+03  0.41800000000E+01 0. -1.
         -5    1    3    3    0  502 -0.38271152924E+02  0.26389438573E+02 -0.16657869230E+02  0.49558456610E+02  0.41800000000E+01 0. -1.
        -11    1    1    2    0    0  0.28135070167E+02 -0.15228682241E+02  0.93392885220E+01  0.33327424836E+02  0.00000000000E+00 0.  1.
         11    1    1    2    0    0 -0.48305443790E+02  0.43100937622E+02  0.42279810522E+01  0.64876671828E+02  0.00000000000E+00 0. -1.
</event>
<event>
 7    1  0.3009954E-009  0.2311666E+03  0.7561462E-02  0.1125821E+00
          2   -1    0    0  501    0  0.00000000000E+00  0.00000000000E+00  0.14024637978E+03  0.14024637978E+03  0.00000000000E+00 0. -1.
         -2   -1    0    0    0  501 -0.00000000000E+00 -0.00000000000E+00 -0.40529423931E+03  0.40529423931E+03  0.00000000000E+00 0.  1.
         25    2    1    2    0    0  0.40265616155E+02 -0.20586601541E+03 -0.17097441541E+03  0.29813144428E+03  0.12509185105E+03 0.  0.
          5    1    3    3  502    0 -0.26087386102E+02  0.10101364275E+01 -0.12885954326E+02  0.29412451583E+02  0.41800000000E+01 0.  1.
         -5    1    3    3    0  502  0.66353002257E+02 -0.20687615184E+03 -0.15808846108E+03  0.26871899270E+03  0.41800000000E+01 0.  1.
        -11    1    1    2    0    0 -0.39852137168E+02  0.56013144037E+02 -0.65308023592E+02  0.94819845429E+02  0.00000000000E+00 0.  1.
         11    1    1    2    0    0 -0.41347898698E+00  0.14985287137E+03 -0.28765420537E+02  0.15258932939E+03  0.00000000000E+00 0. -1.
</event>
<event>
 7    1  0.2820496E-009  0.1830615E+03  0.7561462E-02  0.1164873E+00
          2   -1    0    0  501    0  0.00000000000E+00  0.00000000000E+00  0.49931255683E+03  0.49931255683E+03  0.00000000000E+00 0. -1.
         -2   -1    0    0    0  501 -0.00000000000E+00 -0.00000000000E+00 -0.92222934480E+02  0.92222934480E+02  0.00000000000E+00 0.  1.
         25    2    1    2    0    0 -0.16188874509E+03 -0.34127583597E+02  0.32517806682E+03  0.38569481713E+03  0.12508820516E+03 0.  0.
          5    1    3    3  502    0 -0.47657778248E+02 -0.62748248490E+02  0.73668602122E+02  0.10794971910E+03  0.41800000000E+01 0. -1.
         -5    1    3    3    0  502 -0.11423096684E+03  0.28620664892E+02  0.25150946469E+03  0.27774509802E+03  0.41800000000E+01 0. -1.
        -11    1    1    2    0    0  0.96344490839E+02  0.19489661785E+01  0.90652122548E+02  0.13230217952E+03  0.00000000000E+00 0. -1.
         11    1    1    2    0    0  0.65544254253E+02  0.32178617419E+02 -0.87405670166E+01  0.73538494657E+02  0.00000000000E+00 0.  1.
</event>
<event>
 7    1  0.2820496E-009  0.1171062E+03  0.7561462E-02  0.1247949E+00
          1   -1    0    0  501    0  0.00000000000E+00  0.00000000000E+00  0.38279528821E+03  0.38279528821E+03  0.00000000000E+00 0. -1.
         -1   -1    0    0    0  501 -0.00000000000E+00 -0.00000000000E+00 -0.40904317408E+02  0.40904317408E+02  0.00000000000E+00 0.  1.
         25    2    1    2    0    0  0.34017570886E+02  0.52040226392E+02  0.17299272084E+03  0.22235059805E+03  0.12509167316E+03 0.  0.
          5    1    3    3  502    0 -0.32709745936E+02 -0.18126507197E+02  0.78193775778E+02  0.86776936526E+02  0.41800000000E+01 0.  1.
         -5    1    3    3    0  502  0.66727316822E+02  0.70166733589E+02  0.94798945065E+02  0.13557366152E+03  0.41800000000E+01 0.  1.
        -11    1    1    2    0    0 -0.36063242355E+02  0.10130638368E+02  0.10794086787E+03  0.11425593306E+03  0.00000000000E+00 0. -1.
         11    1    1    2    0    0  0.20456714689E+01 -0.62170864761E+02  0.60957382092E+02  0.87093074515E+02  0.00000000000E+00 0.  1.
</event>
<event>
 7    1  0.2820496E-009  0.1234175E+03  0.7561462E-02  0.1237563E+00
          1   -1    0    0  501    0  0.00000000000E+00  0.00000000000E+00  0.83503674784E+02  0.83503674784E+02  0.00000000000E+00 0. -1.
         -1   -1    0    0    0  501 -0.00000000000E+00 -0.00000000000E+00 -0.19309148788E+03  0.19309148788E+03  0.00000000000E+00 0.  1.
         25    2    1    2    0    0  0.16860174258E+02  0.62938855891E+02 -0.66794189531E+02  0.15607014883E+03  0.12510340740E+03 0.  0.
          5    1    3    3  502    0 -0.26010319520E+02 -0.27602895450E+02 -0.54931046926E+01  0.38550008534E+02  0.41800000000E+01 0. -1.
         -5    1    3    3    0  502  0.42870493778E+02  0.90541751342E+02 -0.61301084838E+02  0.11752014030E+03  0.41800000000E+01 0. -1.
        -11    1    1    2    0    0 -0.22451365167E+02 -0.83831140304E+02 -0.46692262092E+02  0.98548928060E+02  0.00000000000E+00 0.  1.
         11    1    1    2    0    0  0.55911909087E+01  0.20892284412E+02  0.38986385251E+01  0.21976085777E+02  0.00000000000E+00 0. -1.
</event>
<event>
 7    1  0.2820496E-009  0.8678469E+02  0.7561462E-02  0.1310830E+00
         -4   -1    0    0    0  501 -0.00000000000E+00  0.00000000000E+00  0.11985287221E+03  0.11985287221E+03  0.00000000000E+00 0.  1.
          4   -1    0    0  501    0  0.00000000000E+00 -0.00000000000E+00 -0.20760255653E+03  0.20760255653E+03  0.00000000000E+00 0. -1.
         25    2    1    2    0    0 -0.68908337975E+02 -0.27535687442E+02  0.41641226328E+02  0.15128763802E+03  0.12508950621E+03 0.  0.
          5    1    3    3  502    0 -0.16324613248E+02 -0.13939949678E+02 -0.44376050016E+02  0.49472430805E+02  0.41800000000E+01 0.  1.
         -5    1    3    3    0  502 -0.52583724728E+02 -0.13595737764E+02  0.86017276344E+02  0.10181520722E+03  0.41800000000E+01 0.  1.
        -11    1    1    2    0    0  0.60753482701E+02  0.46549977840E+02 -0.13459468232E+03  0.15483415194E+03  0.00000000000E+00 0.  1.
         11    1    1    2    0    0  0.81548552742E+01 -0.19014290398E+02  0.52037716764E+01  0.21333638778E+02  0.00000000000E+00 0. -1.
</event>
<event>
 7    1  0.2820496E-009  0.8290871E+02  0.7561462E-02  0.1320994E+00
          1   -1    0    0  501    0  0.00000000000E+00  0.00000000000E+00  0.68565345198E+03  0.68565345198E+03  0.00000000000E+00 0. -1.
         -1   -1    0    0    0  501 -0.00000000000E+00 -0.00000000000E+00 -0.25448330862E+02  0.25448330862E+02  0.00000000000E+00 0.  1.
         25    2    1    2    0    0 -0.23054876540E+02 -0.50543710213E+02  0.23322784936E+03  0.27042387730E+03  0.12509056608E+03 0.  0.
          5    1    3    3  502    0 -0.81989894322E+01 -0.19491395773E+01  0.21658624666E+03  0.21679044540E+03  0.41800000000E+01 0. -1.
         -5    1    3    3    0  502 -0.14855887108E+02 -0.48594570635E+02  0.16641602697E+02  0.53633431899E+02  0.41800000000E+01 0. -1.
        -11    1    1    2    0    0  0.57728543608E+02  0.29010623577E+02  0.20369429399E+03  0.21369503137E+03  0.00000000000E+00 0.  1.
         11    1    1    2    0    0 -0.34673667068E+02  0.21533086636E+02  0.22328297777E+03  0.22698287418E+03  0.00000000000E+00 0. -1.
</event>
<event>
 7    1  0.2820496E-009  0.2234805E+03  0.7561462E-02  0.1131314E+00
         -2   -1    0    0    0  501 -0.00000000000E+00  0.00000000000E+00  0.38882385530E+02  0.38882385530E+02  0.00000000000E+00 0.  1.
          2   -1    0    0  501    0  0.00000000000E+00 -0.00000000000E+00 -0.13703422607E+04  0.13703422607E+04  0.00000000000E+00 0. -1.
         25    2    1    2    0    0 -0.10660254950E+03 -0.17234477167E+03 -0.64961261052E+03  0.69188829050E+03  0.12508412731E+03 0.  0.
          5    1    3    3  502    0 -0.91476838782E+02 -0.18432635189E+03 -0.63443375293E+03  0.66698416419E+03  0.41800000000E+01 0.  1.
         -5    1    3    3    0  502 -0.15125710721E+02  0.11981580219E+02 -0.15178857595E+02  0.24904126309E+02  0.41800000000E+01 0.  1.
        -11    1    1    2    0    0  0.28015333826E+02  0.12827211317E+03 -0.36356088137E+03  0.38654250530E+03  0.00000000000E+00 0.  1.
         11    1    1    2    0    0  0.78587215677E+02  0.44072658497E+02 -0.31828638332E+03  0.33079385046E+03  0.00000000000E+00 0. -1.
</event>
<event>
 7    1  0.2820496E-009  0.1211419E+03  0.7561462E-02  0.1241225E+00
          4   -1    0    0  501    0  0.00000000000E+00  0.00000000000E+00  0.24080428741E+03  0.24080428741E+03  0.00000000000E+00 0.  1.
         -4   -1    0    0    0  501 -0.00000000000E+00 -0.00000000000E+00 -0.90327966517E+02  0.90327966517E+02  0.00000000000E+00 0. -1.
         25    2    1    2    0    0 -0.89597658050E+02 -0.11617304920E+02  0.31741358658E+02  0.15754030337E+03  0.12509488892E+03 0.  0.
          5    1    3    3  502    0 -0.33648999493E+02  0.38058894321E+02  0.58845924359E+02  0.77852744444E+02  0.41800000000E+01 0.  1.
         -5    1    3    3    0  502 -0.55948658557E+02 -0.49676199241E+02 -0.27104565701E+02  0.79687558924E+02  0.41800000000E+01 0.  1.
        -11    1    1    2    0    0  0.53756572986E+02  0.42919943912E+02  0.34762485871E+02  0.77073478892E+02  0.00000000000E+00 0. -1.
         11    1    1    2    0    0  0.35841085064E+02 -0.31302638992E+02  0.83972476369E+02  0.96518471672E+02  0.00000000000E+00 0.  1.
</event>
<event>
 7    1  0.2820496E-009  0.1083404E+03  0.7561462E-02  0.1263674E+00
          1   -1    0    0  501    0  0.00000000000E+00  0.00000000000E+00  0.46437920255E+03  0.46437920255E+03  0.00000000000E+00 0. -1.
         -1   -1    0    0    0  501 -0.00000000000E+00 -0.00000000000E+00 -0.39068392029E+02  0.39068392029E+02  0.00000000000E+00 0.  1.
         25    2    1    2    0    0  0.28148326474E+02  0.23256941364E+02  0.10182991137E+03  0.16538525024E+03  0.12509890705E+03 0.  0.
          5    1    3    3  502    0 -0.44323187093E+02  0.27293259669E+02  0.19990259569E+02  0.55915559687E+02  0.41800000000E+01 0. -1.
         -5    1    3    3    0  502  0.72471513567E+02 -0.40363183057E+01  0.81839651800E+02  0.10946969056E+03  0.41800000000E+01 0. -1.
        -11    1    1    2    0    0 -0.55091704256E+02  0.15767231773E+01  0.24936864535E+03  0.25538657603E+03  0.00000000000E+00 0. -1.
         11    1    1    2    0    0  0.26943377782E+02 -0.24833664541E+02  0.74112253803E+02  0.82675768304E+02  0.00000000000E+00 0.  1.
</event>
<event>
 7    1  0.2820496E-009  0.1102093E+03  0.7561462E-02  0.1260183E+00
         -1   -1    0    0    0  501 -0.00000000000E+00  0.00000000000E+00  0.74065389838E+02  0.74065389838E+02  0.00000000000E+00 0.  1.
          1   -1    0    0  501    0  0.00000000000E+00 -0.00000000000E+00 -0.17874966532E+03  0.17874966532E+03  0.00000000000E+00 0. -1.
         25    2    1    2    0    0 -0.39017776866E+02 -0.11609287696E+02 -0.65302421015E+02  0.14686064704E+03  0.12508589443E+03 0.  0.
          5    1    3    3  502    0  0.14330321886E+02 -0.56774816641E+02 -0.14849136500E+02  0.60553341648E+02  0.41800000000E+01 0. -1.
         -5    1    3    3    0  502 -0.53348098751E+02  0.45165528946E+02 -0.50453284515E+02  0.86307305390E+02  0.41800000000E+01 0. -1.
        -11    1    1    2    0    0  0.64318402253E+02  0.15321817783E+02 -0.97810221544E+01  0.66837739062E+02  0.00000000000E+00 0.  1.
         11    1    1    2    0    0 -0.25300625387E+02 -0.37125300874E+01 -0.29600832314E+02  0.39116669059E+02  0.00000000000E+00 0. -1.
</event>
<event>
 7    1  0.2820496E-009  0.9483131E+02  0.7561462E-02  0.1291556E+00
         -1   -1    0    0    0  501 -0.00000000000E+00  0.00000000000E+00  0.25213160351E+03  0.25213160351E+03  0.00000000000E+00 0. -1.
          1   -1    0    0  501    0  0.00000000000E+00 -0.00000000000E+00 -0.69982435936E+02  0.69982435936E+02  0.00000000000E+00 0.  1.
         25    2    1    2    0    0  0.21997803252E+02 -0.15366271403E+02  0.12463382758E+02  0.12854471257E+03  0.12509349134E+03 0.  0.
          5    1    3    3  502    0  0.44810016108E+02  0.24787901166E+02  0.47853163196E+02  0.70212357999E+02  0.41800000000E+01 0.  1.
         -5    1    3    3    0  502 -0.22812212856E+02 -0.40154172569E+02 -0.35389780438E+02  0.58332354569E+02  0.41800000000E+01 0.  1.
        -11    1    1    2    0    0 -0.73653817643E+01 -0.36904547561E+02  0.85312645207E+02  0.93243991289E+02  0.00000000000E+00 0. -1.
         11    1    1    2    0    0 -0.14632421488E+02  0.52270818964E+02  0.84373139612E+02  0.10032533559E+03  0.00000000000E+00 0.  1.
</event>
<event>
 7    1  0.2820496E-009  0.1711179E+03  0.7561462E-02  0.1176687E+00
          1   -1    0    0  501    0  0.00000000000E+00  0.00000000000E+00  0.11329942248E+04  0.11329942248E+04  0.00000000000E+00 0. -1.
         -1   -1    0    0    0  501 -0.00000000000E+00 -0.00000000000E+00 -0.38062653918E+02  0.38062653918E+02  0.00000000000E+00 0.  1.
         25    2    1    2    0    0  0.15853177001E+03  0.11728325179E+01  0.79021672172E+03  0.81561313300E+03  0.12509443553E+03 0.  0.
          5    1    3    3  502    0  0.99488605526E+02  0.16493424456E+02  0.69610432075E+03  0.70338375973E+03  0.41800000000E+01 0.  1.
         -5    1    3    3    0  502  0.59043164483E+02 -0.15320591938E+02  0.94112400974E+02  0.11222937328E+03  0.41800000000E+01 0.  1.
        -11    1    1    2    0    0 -0.87817716536E+02  0.41963325004E+02  0.13315247929E+03  0.16493166683E+03  0.00000000000E+00 0.  1.
         11    1    1    2    0    0 -0.70714053473E+02 -0.43136157522E+02  0.17156236986E+03  0.19051207887E+03  0.00000000000E+00 0. -1.
</event>
<event>
 7    1  0.2820496E-009  0.1712911E+03  0.7561462E-02  0.1176508E+00
          2   -1    0    0  501    0  0.00000000000E+00  0.00000000000E+00  0.70223661077E+03  0.70223661077E+03  0.00000000000E+00 0. -1.
         -2   -1    0    0    0  501 -0.00000000000E+00 -0.00000000000E+00 -0.55010013249E+02  0.55010013249E+02  0.00000000000E+00 0.  1.
         25    2    1    2    0    0 -0.23350156360E+02  0.14481820356E+03  0.19682683239E+03  0.27551012047E+03  0.12508989826E+03 0.  0.
          5    1    3    3  502    0  0.36450195999E+02  0.75603156184E+02  0.15171693098E+03  0.17343573323E+03  0.41800000000E+01 0.  1.
         -5    1    3    3    0  502 -0.59800352359E+02  0.69215047376E+02  0.45109901404E+02  0.10207438724E+03  0.41800000000E+01 0.  1.
        -11    1    1    2    0    0 -0.28423999667E+02 -0.31697748056E+02  0.74775860592E+02  0.86047081973E+02  0.00000000000E+00 0.  1.
         11    1    1    2    0    0  0.51774156027E+02 -0.11312045550E+03  0.37562390454E+03  0.39568942157E+03  0.00000000000E+00 0. -1.
</event>
<event>
 7    1  0.2820496E-009  0.9055084E+02  0.7561462E-02  0.1301523E+00
         -2   -1    0    0    0  501 -0.00000000000E+00  0.00000000000E+00  0.17045633237E+03  0.17045633237E+03  0.00000000000E+00 0.  1.
          2   -1    0    0  501    0  0.00000000000E+00 -0.00000000000E+00 -0.77271910208E+02  0.77271910208E+02  0.00000000000E+00 0. -1.
         25    2    1    2    0    0  0.15827925176E+02  0.24516228556E+02  0.81293477337E+02  0.15200985600E+03  0.12508716235E+03 0.  0.
          5    1    3    3  502    0  0.36523144254E+02  0.49191985338E+02 -0.31962275563E+01  0.61493737554E+02  0.41800000000E+01 0. -1.
         -5    1    3    3    0  502 -0.20695219078E+02 -0.24675756783E+02  0.84489704893E+02  0.90516118445E+02  0.41800000000E+01 0. -1.
        -11    1    1    2    0    0 -0.22955213341E+02  0.26868341894E+02 -0.13664470985E+02  0.37888882050E+02  0.00000000000E+00 0. -1.
         11    1    1    2    0    0  0.71272881648E+01 -0.51384570450E+02  0.25555415810E+02  0.57829504530E+02  0.00000000000E+00 0.  1.
</event>
<event>
 7    1  0.2820496E-009  0.1112186E+03  0.7561462E-02  0.1258330E+00
         -1   -1    0    0    0  501 -0.00000000000E+00  0.00000000000E+00  0.68773196530E+02  0.68773196530E+02  0.00000000000E+00 0.  1.
          1   -1    0    0  501    0  0.00000000000E+00 -0.00000000000E+00 -0.33638059163E+03  0.33638059163E+03  0.00000000000E+00 0. -1.
         25    2    1    2    0    0 -0.85527259147E+02 -0.29261356349E+02 -0.70772644993E+02  0.16978752040E+03  0.12509154956E+03 0.  0.
          5    1    3    3  502    0 -0.91080795932E+02 -0.33376016168E+02 -0.10004951662E+03  0.13941681398E+03  0.41800000000E+01 0. -1.
         -5    1    3    3    0  502  0.55535367853E+01  0.41146598190E+01  0.29276871628E+02  0.30370706422E+02  0.41800000000E+01 0. -1.
        -11    1    1    2    0    0  0.66454668071E+02 -0.15824008470E+02 -0.16040353061E+03  0.17434424219E+03  0.00000000000E+00 0. -1.
         11    1    1    2    0    0  0.19072591076E+02  0.45085364819E+02 -0.36431219503E+02  0.61022025579E+02  0.00000000000E+00 0.  1.
</event>
<event>
 7    1  0.2820496E-009  0.1431871E+03  0.7561462E-02  0.1209104E+00
          1   -1    0    0  501    0  0.00000000000E+00  0.00000000000E+00  0.69306296464E+03  0.69306296464E+03  0.00000000000E+00 0. -1.
         -1   -1    0    0    0  501 -0.00000000000E+00 -0.00000000000E+00 -0.39080312975E+02  0.39080312975E+02  0.00000000000E+00 0.  1.
         25    2    1    2    0    0  0.29702208782E+02 -0.11251056344E+03  0.43431490620E+03  0.46670955926E+03  0.12509007502E+03 0.  0.
          5    1    3    3  502    0 -0.26052350359E+02 -0.92680084591E+02  0.16624601072E+03  0.19215496746E+03  0.41800000000E+01 0.  1.
         -5    1    3    3    0  502  0.55754559141E+02 -0.19830478847E+02  0.26806889548E+03  0.27455459180E+03  0.41800000000E+01 0.  1.
        -11    1    1    2    0    0 -0.48050256707E+02  0.78312341029E+02  0.84579801136E+02  0.12488151459E+03  0.00000000000E+00 0.  1.
         11    1    1    2    0    0  0.18348047925E+02  0.34198222409E+02  0.13508794434E+03  0.14055220377E+03  0.00000000000E+00 0. -1.
</event>
<event>
 7    1  0.2820496E-009  0.1284871E+03  0.7561462E-02  0.1229718E+00
          2   -1    0    0  501    0  0.00000000000E+00  0.00000000000E+00  0.12489410882E+03  0.12489410882E+03  0.00000000000E+00 0. -1.
         -2   -1    0    0    0  501 -0.00000000000E+00 -0.00000000000E+00 -0.22413910129E+03  0.22413910129E+03  0.00000000000E+00 0.  1.
         25    2    1    2    0    0  0.10156752477E+03  0.44298699498E+02  0.11401702169E+02  0.16749889310E+03  0.12509014154E+03 0.  0.
          5    1    3    3  502    0  0.82399931936E+02  0.63258674807E+00  0.57873201023E+02  0.10078158932E+03  0.41800000000E+01 0.  1.
         -5    1    3    3    0  502  0.19167592836E+02  0.43666112750E+02 -0.46471498854E+02  0.66717303779E+02  0.41800000000E+01 0.  1.
        -11    1    1    2    0    0 -0.34133402568E+02  0.14538983907E+02 -0.77816361600E+02  0.86208220934E+02  0.00000000000E+00 0.  1.
         11    1    1    2    0    0 -0.67434122203E+02 -0.58837683404E+02 -0.32830333044E+02  0.95326096078E+02  0.00000000000E+00 0. -1.
</event>
<event>
 7    1  0.2820496E-009  0.1921308E+03  0.7561462E-02  0.1156553E+00
         -2   -1    0    0    0  501 -0.00000000000E+00  0.00000000000E+00  0.10442834983E+03  0.10442834983E+03  0.00000000000E+00 0.  1.
          2   -1    0    0  501    0  0.00000000000E+00 -0.00000000000E+00 -0.70065543572E+03  0.70065543572E+03  0.00000000000E+00 0. -1.
         25    2    1    2    0    0 -0.16059497502E+03 -0.40866173043E+02 -0.31916933926E+02  0.21004951607E+03  0.12506525668E+03 0.  0.
          5    1    3    3  502    0 -0.17311039574E+03 -0.57111813828E+02 -0.14662050586E+02  0.18292461977E+03  0.41800000000E+01 0. -1.
         -5    1    3    3    0  502  0.12515420714E+02  0.16245640785E+02 -0.17254883340E+02  0.27124896300E+02  0.41800000000E+01 0. -1.
        -11    1    1    2    0    0  0.74837897364E+02  0.56570466977E+02 -0.20740674975E+03  0.22763674672E+03  0.00000000000E+00 0.  1.
         11    1    1    2    0    0  0.85757077659E+02 -0.15704293934E+02 -0.35690340222E+03  0.36739752276E+03  0.00000000000E+00 0. -1.
</event>
<event>
 7    1  0.2820496E-009  0.1080329E+03  0.7561462E-02  0.1264257E+00
          1   -1    0    0  501    0  0.00000000000E+00  0.00000000000E+00  0.10572656374E+03  0.10572656374E+03  0.00000000000E+00 0.  1.
         -1   -1    0    0    0  501 -0.00000000000E+00 -0.00000000000E+00 -0.16135026757E+03  0.16135026757E+03  0.00000000000E+00 0. -1.
         25    2    1    2    0    0  0.14277911717E+02  0.30670262491E+02  0.25630613966E+02  0.13210201039E+03  0.12509791770E+03 0.  0.
          5    1    3    3  502    0  0.21145512776E+02  0.74309417877E+02 -0.60062092890E+01  0.77605214038E+02  0.41800000000E+01 0. -1.
         -5    1    3    3    0  502 -0.68676010595E+01 -0.43639155386E+02  0.31636823255E+02  0.54496796353E+02  0.41800000000E+01 0. -1.
        -11    1    1    2    0    0 -0.51697331279E+02 -0.19724659857E+02 -0.78296967510E+02  0.95875395118E+02  0.00000000000E+00 0. -1.
         11    1    1    2    0    0  0.37419419562E+02 -0.10945602634E+02 -0.29573502829E+01  0.39099425802E+02  0.00000000000E+00 0.  1.
</event>
<event>
 7    1  0.2820496E-009  0.1982523E+03  0.7561462E-02  0.1151222E+00
          2   -1    0    0  501    0  0.00000000000E+00  0.00000000000E+00  0.59550586224E+03  0.59550586224E+03  0.00000000000E+00 0. -1.
         -2   -1    0    0    0  501 -0.00000000000E+00 -0.00000000000E+00 -0.10560423261E+03  0.10560423261E+03  0.00000000000E+00 0.  1.
         25    2    1    2    0    0 -0.80524799027E+02 -0.15889174897E+03  0.44726198098E+03  0.49741519665E+03  0.12509103515E+03 0.  0.
          5    1    3    3  502    0  0.10766968587E+02 -0.10877059026E+03  0.27659360731E+03  0.29743648889E+03  0.41800000000E+01 0. -1.
         -5    1    3    3    0  502 -0.91291767615E+02 -0.50121158713E+02  0.17066837367E+03  0.19997870775E+03  0.41800000000E+01 0. -1.
        -11    1    1    2    0    0 -0.20147848700E+01  0.28509220285E+02 -0.22323694251E+02  0.36265442564E+02  0.00000000000E+00 0.  1.
         11    1    1    2    0    0  0.82539583897E+02  0.13038252869E+03  0.64963342900E+02  0.16742945565E+03  0.00000000000E+00 0. -1.
</event>
<event>
 7    1  0.2820496E-009  0.1595954E+03  0.7561462E-02  0.1189154E+00
          2   -1    0    0  501    0  0.00000000000E+00  0.00000000000E+00  0.57748031193E+03  0.57748031193E+03  0.00000000000E+00 0. -1.
         -2   -1    0    0    0  501 -0.00000000000E+00 -0.00000000000E+00 -0.90831478925E+02  0.90831478925E+02  0.00000000000E+00 0.  1.
         25    2    1    2    0    0 -0.12801017578E+03  0.95095431762E+02  0.43181720362E+03  0.47701604791E+03  0.12509383029E+03 0.  0.
          5    1    3    3  502    0 -0.63737131364E+02  0.45864111586E+02  0.67022993684E+02  0.10332227605E+03  0.41800000000E+01 0. -1.
         -5    1    3    3    0  502 -0.64273044419E+02  0.49231320176E+02  0.36479420993E+03  0.37369377186E+03  0.41800000000E+01 0. -1.
        -11    1    1    2    0    0  0.50578203756E+02 -0.39111682818E+02 -0.23113207363E+02  0.67986019024E+02  0.00000000000E+00 0.  1.
         11    1    1    2    0    0  0.77431972027E+02 -0.55983748944E+02  0.77944836754E+02  0.12330972393E+03  0.00000000000E+00 0. -1.
</event>
<event>
 7    1  0.2820496E-009  0.8901030E+02  0.7561462E-02  0.1305266E+00
         -2   -1    0    0    0  501 -0.00000000000E+00  0.00000000000E+00  0.21854108105E+02  0.21854108105E+02  0.00000000000E+00 0. -1.
          2   -1    0    0  501    0  0.00000000000E+00 -0.00000000000E+00 -0.69405062503E+03  0.69405062503E+03  0.00000000000E+00 0.  1.
         25    2    1    2    0    0  0.17275102291E+02  0.38730878620E+02 -0.49746132467E+03  0.51469722576E+03  0.12508778733E+03 0.  0.
          5    1    3    3  502    0  0.66169630349E+02  0.18437195572E+02 -0.17776698519E+03  0.19062246349E+03  0.41800000000E+01 0. -1.
         -5    1    3    3    0  502 -0.48894528058E+02  0.20293683048E+02 -0.31969433948E+03  0.32407476227E+03  0.41800000000E+01 0. -1.
        -11    1    1    2    0    0 -0.87083122600E+00 -0.39659688107E+02 -0.17971324982E+03  0.18403940168E+03  0.00000000000E+00 0.  1.
         11    1    1    2    0    0 -0.16404271065E+02  0.92880948637E+00  0.49780575692E+01  0.17168105702E+02  0.00000000000E+00 0. -1.
</event>
<event>
 7    1  0.2820496E-009  0.1226488E+03  0.7561462E-02  0.1238790E+00
         -1   -1    0    0    0  501 -0.00000000000E+00  0.00000000000E+00  0.23822482645E+03  0.23822482645E+03  0.00000000000E+00 0.  1.
          1   -1    0    0  501    0  0.00000000000E+00 -0.00000000000E+00 -0.85865043261E+02  0.85865043261E+02  0.00000000000E+00 0. -1.
         25    2    1    2    0    0  0.14041366685E+01  0.91333750182E+02  0.99354455356E+02  0.18401906055E+03  0.12509149182E+03 0.  0.
          5    1    3    3  502    0  0.54790524368E+02  0.81853078080E+02  0.49826203502E+02  0.11046289380E+03  0.41800000000E+01 0. -1.
         -5    1    3    3    0  502 -0.53386387699E+02  0.94806721024E+01  0.49528251854E+02  0.73556166749E+02  0.41800000000E+01 0. -1.
        -11    1    1    2    0    0 -0.69499996641E+01 -0.32579477758E+02  0.70955175794E+02  0.78385979858E+02  0.00000000000E+00 0.  1.
         11    1    1    2    0    0  0.55458629956E+01 -0.58754272424E+02 -0.17949847960E+02  0.61684829304E+02  0.00000000000E+00 0. -1.
</event>
<event>
 7    1  0.2820496E-009  0.1174973E+03  0.7561462E-02  0.1247284E+00
          3   -1    0    0  501    0  0.00000000000E+00  0.00000000000E+00  0.20201147589E+03  0.20201147589E+03  0.00000000000E+00 0. -1.
         -3   -1    0    0    0  501 -0.00000000000E+00 -0.00000000000E+00 -0.90381076607E+02  0.90381076607E+02  0.00000000000E+00 0.  1.
         25    2    1    2    0    0  0.42633138127E+02  0.49474415189E+02  0.10896597770E+03  0.17828646499E+03  0.12508867685E+03 0.  0.
          5    1    3    3  502    0 -0.37677745633E+02  0.31344793862E+02  0.11283460555E+02  0.50466796018E+02  0.41800000000E+01 0. -1.
         -5    1    3    3    0  502  0.80310883760E+02  0.18129621326E+02  0.97682517146E+02  0.12781966897E+03  0.41800000000E+01 0. -1.
        -11    1    1    2    0    0  0.13555826291E+02 -0.45003717002E+02 -0.22817977562E+02  0.52247058008E+02  0.00000000000E+00 0.  1.
         11    1    1    2    0    0 -0.56188964418E+02 -0.44706981866E+01  0.25482399144E+02  0.61859029501E+02  0.00000000000E+00 0. -1.
</event>
<event>
 7    1  0.2820496E-009  0.1314341E+03  0.7561462E-02  0.1225343E+00
         -1   -1    0    0    0  501 -0.00000000000E+00  0.00000000000E+00  0.13915217768E+03  0.13915217768E+03  0.00000000000E+00 0.  1.
          1   -1    0    0  501    0  0.00000000000E+00 -0.00000000000E+00 -0.17829590848E+03  0.17829590848E+03  0.00000000000E+00 0. -1.
         25    2    1    2    0    0 -0.30442847843E+02  0.10037165398E+03  0.25227097536E+02  0.16518305610E+03  0.12509116541E+03 0.  0.
          5    1    3    3  502    0  0.45283102051E+02  0.29850411584E+02  0.28816429955E+02  0.61558634151E+02  0.41800000000E+01 0.  1.
         -5    1    3    3    0  502 -0.75725949894E+02  0.70521242398E+02 -0.35893324188E+01  0.10362442195E+03  0.41800000000E+01 0.  1.
        -11    1    1    2    0    0  0.25619757561E+02 -0.81609487709E+02 -0.87318757490E+02  0.12223357097E+03  0.00000000000E+00 0.  1.
         11    1    1    2    0    0  0.48230902818E+01 -0.18762166273E+02  0.22947929148E+02  0.30031459094E+02  0.00000000000E+00 0. -1.
</event>
<event>
 7    1  0.2820496E-009  0.8234353E+02  0.7561462E-02  0.1322529E+00
         -1   -1    0    0    0  501 -0.00000000000E+00  0.00000000000E+00  0.59639144271E+02  0.59639144271E+02  0.00000000000E+00 0.  1.
          1   -1    0    0  501    0  0.00000000000E+00 -0.00000000000E+00 -0.24672573751E+03  0.24672573751E+03  0.00000000000E+00 0. -1.
         25    2    1    2    0    0  0.37371951515E+02 -0.24500082224E+02 -0.67905362057E+02  0.14918330533E+03  0.12509038174E+03 0.  0.
          5    1    3    3  502    0  0.58192873281E+02 -0.13217081451E+02 -0.95432290085E+02  0.11263168352E+03  0.41800000000E+01 0. -1.
         -5    1    3    3    0  502 -0.20820921766E+02 -0.11283000774E+02  0.27526928028E+02  0.36551621801E+02  0.41800000000E+01 0. -1.
        -11    1    1    2    0    0 -0.52108471125E+02  0.34957696449E+02 -0.36591061576E+02  0.72637724987E+02  0.00000000000E+00 0.  1.
         11    1    1    2    0    0  0.14736519610E+02 -0.10457614225E+02 -0.82590169604E+02  0.84543851466E+02  0.00000000000E+00 0. -1.
</event>
<event>
 7    1  0.2820496E-009  0.1029831E+03  0.7561462E-02  0.1274145E+00
         -1   -1    0    0    0  501 -0.00000000000E+00  0.00000000000E+00  0.11553820996E+03  0.11553820996E+03  0.00000000000E+00 0.  1.
          1   -1    0    0  501    0  0.00000000000E+00 -0.00000000000E+00 -0.13277467555E+03  0.13277467555E+03  0.00000000000E+00 0. -1.
         25    2    1    2    0    0  0.18025021889E+02 -0.59907960235E+02  0.72057394768E+01  0.14003580444E+03  0.12507693125E+03 0.  0.
          5    1    3    3  502    0 -0.18312998940E+02 -0.61157672177E+02 -0.43599220661E+02  0.77420870820E+02  0.41800000000E+01 0.  1.
         -5    1    3    3    0  502  0.36338020829E+02  0.12497119418E+01  0.50804960138E+02  0.62614933621E+02  0.41800000000E+01 0.  1.
        -11    1    1    2    0    0  0.18098547659E+02  0.66281808531E+02 -0.18086270861E+02  0.71048918100E+02  0.00000000000E+00 0.  1.
         11    1    1    2    0    0 -0.36123569548E+02 -0.63738482957E+01 -0.63559342024E+01  0.37228162976E+02  0.00000000000E+00 0. -1.
</event>
<event>
 7    1  0.2820496E-009  0.8524212E+02  0.7561462E-02  0.1314801E+00
          2   -1    0    0  501    0  0.00000000000E+00  0.00000000000E+00  0.79551598958E+02  0.79551598958E+02  0.00000000000E+00 0.  1.
         -2   -1    0    0    0  501 -0.00000000000E+00 -0.00000000000E+00 -0.14974007869E+03  0.14974007869E+03  0.00000000000E+00 0. -1.
         25    2    1    2    0    0 -0.97506159941E+01  0.21801752556E+02 -0.31568752824E+02  0.13119807974E+03  0.12508380809E+03 0.  0.
          5    1    3    3  502    0  0.24663973732E+02 -0.16512455055E+02 -0.63666696467E+02  0.70369690999E+02  0.41800000000E+01 0. -1.
         -5    1    3    3    0  502 -0.34414589726E+02  0.38314207611E+02  0.32097943643E+02  0.60828388742E+02  0.41800000000E+01 0. -1.
        -11    1    1    2    0    0 -0.71227218519E+01 -0.52943642412E+02 -0.31336136083E+02  0.61933156411E+02  0.00000000000E+00 0.  1.
         11    1    1    2    0    0  0.16873337846E+02  0.31141889856E+02 -0.72835908250E+01  0.36160441496E+02  0.00000000000E+00 0. -1.
</event>
<event>
 7    1  0.2820496E-009  0.9114266E+02  0.7561462E-02  0.1300108E+00
         -1   -1    0    0    0  501 -0.00000000000E+00  0.00000000000E+00  0.42039731841E+02  0.42039731841E+02  0.00000000000E+00 0.  1.
          1   -1    0    0  501    0  0.00000000000E+00 -0.00000000000E+00 -0.29335745174E+03  0.29335745174E+03  0.00000000000E+00 0. -1.
         25    2    1    2    0    0  0.15905892974E+02  0.75690981742E+00 -0.11361245166E+03  0.16973045888E+03  0.12508824547E+03 0.  0.
          5    1    3    3  502    0 -0.33052802351E+02  0.37394768417E+02 -0.91982344591E+02  0.10473337846E+03  0.41800000000E+01 0. -1.
         -5    1    3    3    0  502  0.48958695325E+02 -0.36637858599E+02 -0.21630107073E+02  0.64997080416E+02  0.41800000000E+01 0. -1.
        -11    1    1    2    0    0  0.27076412214E+02 -0.56188597381E+01 -0.11196867887E+03  0.11533294729E+03  0.00000000000E+00 0.  1.
         11    1    1    2    0    0 -0.42982305188E+02  0.48619499207E+01 -0.25736589370E+02  0.50333777413E+02  0.00000000000E+00 0. -1.
</event>
<event>
 7    1  0.2820496E-009  0.1011142E+03  0.7561462E-02  0.1277970E+00
          1   -1    0    0  501    0  0.00000000000E+00  0.00000000000E+00  0.71369852482E+03  0.71369852482E+03  0.00000000000E+00 0. -1.
         -1   -1    0    0    0  501 -0.00000000000E+00 -0.00000000000E+00 -0.24539807985E+02  0.24539807985E+02  0.00000000000E+00 0.  1.
         25    2    1    2    0    0  0.27183285408E+02 -0.17133303747E+02  0.19255573023E+03  0.23185812238E+03  0.12509196044E+03 0.  0.
          5    1    3    3  502    0 -0.22847578647E+02  0.29069866055E+02  0.14238888428E+03  0.14717043089E+03  0.41800000000E+01 0. -1.
         -5    1    3    3    0  502  0.50030864055E+02 -0.46203169802E+02  0.50166845955E+02  0.84687691496E+02  0.41800000000E+01 0. -1.
        -11    1    1    2    0    0 -0.11871467494E+02 -0.37873847755E+02  0.15295035115E+03  0.15801635992E+03  0.00000000000E+00 0.  1.
         11    1    1    2    0    0 -0.15311817914E+02  0.55007151502E+02  0.34365263545E+03  0.34836385051E+03  0.00000000000E+00 0. -1.
</event>
<event>
 7    1  0.2820496E-009  0.5522580E+02  0.7561462E-02  0.1419034E+00
         -3   -1    0    0    0  501 -0.00000000000E+00  0.00000000000E+00  0.27836839957E+02  0.27836839957E+02  0.00000000000E+00 0.  1.
          3   -1    0    0  501    0  0.00000000000E+00 -0.00000000000E+00 -0.45711391267E+03  0.45711391267E+03  0.00000000000E+00 0. -1.
         25    2    1    2    0    0  0.17061368070E+02  0.56139460795E+01 -0.26503371645E+03  0.29362035167E+03  0.12508970137E+03 0.  0.
          5    1    3    3  502    0  0.10582932279E+02  0.23238390085E+02  0.19467709508E+01  0.25947707924E+02  0.41800000000E+01 0.  1.
         -5    1    3    3    0  502  0.64784357904E+01 -0.17624444005E+02 -0.26698048740E+03  0.26767264374E+03  0.41800000000E+01 0.  1.
        -11    1    1    2    0    0  0.20514758160E+02 -0.16380124523E+02 -0.42035899074E+01  0.26586348938E+02  0.00000000000E+00 0.  1.
         11    1    1    2    0    0 -0.37576126230E+02  0.10766178443E+02 -0.16003976636E+03  0.16474405202E+03  0.00000000000E+00 0. -1.
</event>
<event>
 7    1  0.2820496E-009  0.1417867E+03  0.7561462E-02  0.1210945E+00
          2   -1    0    0  501    0  0.00000000000E+00  0.00000000000E+00  0.54348258438E+03  0.54348258438E+03  0.00000000000E+00 0. -1.
         -2   -1    0    0    0  501 -0.00000000000E+00 -0.00000000000E+00 -0.43719870195E+02  0.43719870195E+02  0.00000000000E+00 0.  1.
         25    2    1    2    0    0 -0.10282764880E+03 -0.27879575406E+02  0.30967964607E+03  0.35057057072E+03  0.12508975090E+03 0.  0.
          5    1    3    3  502    0 -0.12130978955E+03 -0.31932810598E+02  0.17992485238E+03  0.21937683181E+03  0.41800000000E+01 0.  1.
         -5    1    3    3    0  502  0.18482140745E+02  0.40532351921E+01  0.12975479369E+03  0.13119373891E+03  0.41800000000E+01 0.  1.
        -11    1    1    2    0    0  0.13321878687E+02  0.45543450727E+02  0.45963609786E+02  0.66063089395E+02  0.00000000000E+00 0.  1.
         11    1    1    2    0    0  0.89505770114E+02 -0.17663875321E+02  0.14411945833E+03  0.17056879446E+03  0.00000000000E+00 0. -1.
</event>
<event>
 7    1  0.2820496E-009  0.9843103E+02  0.7561462E-02  0.1283630E+00
         -3   -1    0    0    0  501 -0.00000000000E+00  0.00000000000E+00  0.74697256669E+02  0.74697256669E+02  0.00000000000E+00 0.  1.
          3   -1    0    0  501    0  0.00000000000E+00 -0.00000000000E+00 -0.16991378939E+03  0.16991378939E+03  0.00000000000E+00 0. -1.
         25    2    1    2    0    0 -0.21375907425E+02  0.14908298843E+02 -0.34899117675E+02  0.13245553512E+03  0.12508930241E+03 0.  0.
          5    1    3    3  502    0  0.19864342126E+02  0.48401977571E+02  0.19791420569E+02  0.56093816496E+02  0.41800000000E+01 0.  1.
         -5    1    3    3    0  502 -0.41240249552E+02 -0.33493678729E+02 -0.54690538244E+02  0.76361718624E+02  0.41800000000E+01 0.  1.
        -11    1    1    2    0    0  0.53931456909E+02 -0.21158503234E+02 -0.52302621322E+02  0.78050294686E+02  0.00000000000E+00 0.  1.
         11    1    1    2    0    0 -0.32555549483E+02  0.62502043917E+01 -0.80147937213E+01  0.34105216250E+02  0.00000000000E+00 0. -1.
</event>
<event>
 7    1  0.4988294E-009  0.1776655E+03  0.7561462E-02  0.1170082E+00
          2   -1    0    0  501    0  0.00000000000E+00  0.00000000000E+00  0.17702033736E+03  0.17702033736E+03  0.00000000000E+00 0. -1.
         -2   -1    0    0    0  501 -0.00000000000E+00 -0.00000000000E+00 -0.19573523613E+03  0.19573523613E+03  0.00000000000E+00 0.  1.
         25    2    1    2    0    0 -0.10848162874E+03  0.10134385204E+03 -0.37106742096E+02  0.19764589774E+03  0.12509256758E+03 0.  0.
          5    1    3    3  502    0  0.27450967139E+02  0.26084703114E+02 -0.11805849343E+01  0.38116053234E+02  0.41800000000E+01 0. -1.
         -5    1    3    3    0  502 -0.13593259588E+03  0.75259148922E+02 -0.35926157162E+02  0.15952984450E+03  0.41800000000E+01 0. -1.
        -11    1    1    2    0    0  0.14334715970E+02 -0.55054690951E+02 -0.24276806515E+02  0.61853588515E+02  0.00000000000E+00 0.  1.
         11    1    1    2    0    0  0.94146912768E+02 -0.46289161085E+02  0.42668649838E+02  0.11325608724E+03  0.00000000000E+00 0. -1.
</event>
<event>
 7    1  0.2820496E-009  0.8901763E+02  0.7561462E-02  0.1305248E+00
          2   -1    0    0  501    0  0.00000000000E+00  0.00000000000E+00  0.84653819091E+03  0.84653819091E+03  0.00000000000E+00 0. -1.
         -2   -1    0    0    0  501 -0.00000000000E+00 -0.00000000000E+00 -0.19000773353E+02  0.19000773353E+02  0.00000000000E+00 0.  1.
         25    2    1    2    0    0  0.41389177011E+01  0.26680836399E+02  0.66073456831E+03  0.67301312498E+03  0.12508996349E+03 0.  0.
          5    1    3    3  502    0  0.10457589364E+02  0.59131170280E+02  0.15647438640E+03  0.16765310159E+03  0.41800000000E+01 0.  1.
         -5    1    3    3    0  502 -0.63186716625E+01 -0.32450333881E+02  0.50426018191E+03  0.50536002339E+03  0.41800000000E+01 0.  1.
        -11    1    1    2    0    0  0.25983003191E+02 -0.43014320840E+02  0.50352049965E+02  0.71138436783E+02  0.00000000000E+00 0.  1.
         11    1    1    2    0    0 -0.30121920892E+02  0.16333484441E+02  0.11645079929E+03  0.12138740250E+03  0.00000000000E+00 0. -1.
</event>
<event>
 7    1  0.2820496E-009  0.1439515E+03  0.7561462E-02  0.1208109E+00
          1   -1    0    0  501    0  0.00000000000E+00  0.00000000000E+00  0.82119789067E+03  0.82119789067E+03  0.00000000000E+00 0. -1.
         -1   -1    0    0    0  501 -0.00000000000E+00 -0.00000000000E+00 -0.26644071891E+02  0.26644071891E+02  0.00000000000E+00 0.  1.
         25    2    1    2    0    0  0.12879773108E+02  0.96643841118E+02  0.36292611164E+03  0.39606592590E+03  0.12508770750E+03 0.  0.
          5    1    3    3  502    0  0.53821648767E+02  0.47028013668E+01  0.16997064248E+03  0.17839948969E+03  0.41800000000E+01 0.  1.
         -5    1    3    3    0  502 -0.40941875659E+02  0.91941039751E+02  0.19295546916E+03  0.21766643621E+03  0.41800000000E+01 0.  1.
        -11    1    1    2    0    0  0.37939183377E+02 -0.26137508623E+02  0.16721412942E+03  0.17344485022E+03  0.00000000000E+00 0.  1.
         11    1    1    2    0    0 -0.50818956485E+02 -0.70506332495E+02  0.26441357772E+03  0.27833118644E+03  0.00000000000E+00 0. -1.
</event>
<event>
 7    1  0.2820496E-009  0.9466545E+02  0.7561462E-02  0.1291931E+00
          3   -1    0    0  501    0  0.00000000000E+00  0.00000000000E+00  0.79170377357E+02  0.79170377357E+02  0.00000000000E+00 0. -1.
         -3   -1    0    0    0  501 -0.00000000000E+00 -0.00000000000E+00 -0.14942948859E+03  0.14942948859E+03  0.00000000000E+00 0.  1.
         25    2    1    2    0    0  0.24012566076E+01  0.16018273543E+02 -0.58338887202E+02  0.13896928826E+03  0.12508671472E+03 0.  0.
          5    1    3    3  502    0 -0.30142469578E+02  0.47732473716E+02  0.93100917854E+01  0.57368176966E+02  0.41800000000E+01 0.  1.
         -5    1    3    3    0  502  0.32543726186E+02 -0.31714200173E+02 -0.67648978987E+02  0.81601111296E+02  0.41800000000E+01 0.  1.
        -11    1    1    2    0    0 -0.18269403858E+02  0.31818493373E+02 -0.13789072424E+02  0.39195996686E+02  0.00000000000E+00 0.  1.
         11    1    1    2    0    0  0.15868147250E+02 -0.47836766917E+02  0.18688483942E+01  0.50434580999E+02  0.00000000000E+00 0. -1.
</event>
<event>
 7    1  0.2820496E-009  0.2304288E+03  0.7561462E-02  0.1126338E+00
          1   -1    0    0  501    0  0.00000000000E+00  0.00000000000E+00  0.10513263895E+03  0.10513263895E+03  0.00000000000E+00 0. -1.
         -1   -1    0    0    0  501 -0.00000000000E+00 -0.00000000000E+00 -0.62618046328E+03  0.62618046328E+03  0.00000000000E+00 0.  1.
         25    2    1    2    0    0 -0.17517334164E+03  0.10900033353E+03 -0.11595036502E+03  0.26769190168E+03  0.12509074604E+03 0.  0.
          5    1    3    3  502    0 -0.37235241731E+01 -0.20022291743E+02 -0.30014467233E+02  0.36511606951E+02  0.41800000000E+01 0. -1.
         -5    1    3    3    0  502 -0.17144981746E+03  0.12902262527E+03 -0.85935897786E+02  0.23118029473E+03  0.41800000000E+01 0. -1.
        -11    1    1    2    0    0  0.59090878243E+02 -0.90238271843E+02 -0.19730844471E+03  0.22486729409E+03  0.00000000000E+00 0.  1.
         11    1    1    2    0    0  0.11608246339E+03 -0.18762061689E+02 -0.20778901460E+03  0.23875390647E+03  0.00000000000E+00 0. -1.
</event>
<event>
 7    1  0.2820496E-009  0.7072607E+02  0.7561462E-02  0.1357641E+00
          1   -1    0    0  501    0  0.00000000000E+00  0.00000000000E+00  0.56893605689E+03  0.56893605689E+03  0.00000000000E+00 0. -1.
         -1   -1    0    0    0  501 -0.00000000000E+00 -0.00000000000E+00 -0.31358588919E+02  0.31358588919E+02  0.00000000000E+00 0.  1.
         25    2    1    2    0    0  0.16983461773E+02  0.27019489545E+02  0.46257767929E+03  0.48025327022E+03  0.12508638371E+03 0.  0.
          5    1    3    3  502    0  0.56734509761E+01  0.63884197559E+02  0.12597521827E+03  0.14142350145E+03  0.41800000000E+01 0. -1.
         -5    1    3    3    0  502  0.11310010797E+02 -0.36864708015E+02  0.33660246101E+03  0.33882976877E+03  0.41800000000E+01 0. -1.
        -11    1    1    2    0    0 -0.19622686182E+02 -0.11694218424E+02 -0.15892988315E+02  0.27827893113E+02  0.00000000000E+00 0.  1.
         11    1    1    2    0    0  0.26392244098E+01 -0.15325271121E+02  0.90892777000E+02  0.92213482481E+02  0.00000000000E+00 0. -1.
</event>
<event>
 7    1  0.3165628E-009  0.1602913E+03  0.7561462E-02  0.1188368E+00
         -2   -1    0    0    0  501 -0.00000000000E+00  0.00000000000E+00  0.87659744018E+02  0.87659744018E+02  0.00000000000E+00 0.  1.
          2   -1    0    0  501    0  0.00000000000E+00 -0.00000000000E+00 -0.44207439241E+03  0.44207439241E+03  0.00000000000E+00 0. -1.
         25    2    1    2    0    0 -0.15638040357E+03 -0.12883178624E+02 -0.24944644682E+03  0.32014102623E+03  0.12508373168E+03 0.  0.
          5    1    3    3  502    0 -0.20402939681E+02  0.88774944591E+01 -0.14628674976E+03  0.14802829260E+03  0.41800000000E+01 0.  1.
         -5    1    3    3    0  502 -0.13597746389E+03 -0.21760673083E+02 -0.10315969706E+03  0.17211273363E+03  0.41800000000E+01 0.  1.
        -11    1    1    2    0    0  0.16862740105E+02  0.11920529866E+02  0.15050667016E+02  0.25553348386E+02  0.00000000000E+00 0.  1.
         11    1    1    2    0    0  0.13951766346E+03  0.96264875785E+00 -0.12001886858E+03  0.18403976181E+03  0.00000000000E+00 0. -1.
</event>
<event>
 7    1  0.2820496E-009  0.1037037E+03  0.7561462E-02  0.1272695E+00
         -2   -1    0    0    0  501 -0.00000000000E+00  0.00000000000E+00  0.87306379181E+02  0.87306379181E+02  0.00000000000E+00 0. -1.
          2   -1    0    0  501    0  0.00000000000E+00 -0.00000000000E+00 -0.27995065027E+03  0.27995065027E+03  0.00000000000E+00 0.  1.
         25    2    1    2    0    0 -0.61633749241E+02  0.71203506005E+02 -0.17375217072E+03  0.23389284488E+03  0.12508951892E+03 0.  0.
          5    1    3    3  502    0 -0.50542397137E+02  0.51154682057E+02 -0.15175014388E+02  0.73614460987E+02  0.41800000000E+01 0.  1.
         -5    1    3    3    0  502 -0.11091352104E+02  0.20048823947E+02 -0.15857715633E+03  0.16027838390E+03  0.41800000000E+01 0.  1.
        -11    1    1    2    0    0  0.70690375080E+01 -0.54589916647E+02  0.25905940543E+02  0.60837061453E+02  0.00000000000E+00 0. -1.
         11    1    1    2    0    0  0.54564711733E+02 -0.16613589358E+02 -0.44798040905E+02  0.72527123112E+02  0.00000000000E+00 0.  1.
</event>
<event>
 7    1  0.2820496E-009  0.1620579E+03  0.7561462E-02  0.1186393E+00
         -1   -1    0    0    0  501 -0.00000000000E+00  0.00000000000E+00  0.35261343082E+02  0.35261343082E+02  0.00000000000E+00 0.  1.
          1   -1    0    0  501    0  0.00000000000E+00 -0.00000000000E+00 -0.79704891670E+03  0.79704891670E+03  0.00000000000E+00 0. -1.
         25    2    1    2    0    0  0.11135522089E+03 -0.61614760983E+02 -0.39291297011E+03  0.43153546738E+03  0.12508354622E+03 0.  0.
          5    1    3    3  502    0 -0.35508016830E+01  0.25924246134E+02 -0.25716988141E+02  0.36925744532E+02  0.41800000000E+01 0. -1.
         -5    1    3    3    0  502  0.11490602257E+03 -0.87539007117E+02 -0.36719598197E+03  0.39460972284E+03  0.41800000000E+01 0. -1.
        -11    1    1    2    0    0 -0.96240040156E+02  0.82884355339E+02 -0.26790208683E+03  0.29648522698E+03  0.00000000000E+00 0.  1.
         11    1    1    2    0    0 -0.15115180730E+02 -0.21269594356E+02 -0.10097251667E+03  0.10428956542E+03  0.00000000000E+00 0. -1.
</event>
<event>
 7    1  0.2820496E-009  0.1541908E+03  0.7561462E-02  0.1195416E+00
          2   -1    0    0  501    0  0.00000000000E+00  0.00000000000E+00  0.44589151497E+03  0.44589151497E+03  0.00000000000E+00 0. -1.
         -2   -1    0    0    0  501 -0.00000000000E+00 -0.00000000000E+00 -0.68033432814E+02  0.68033432814E+02  0.00000000000E+00 0.  1.
         25    2    1    2    0    0 -0.14592109239E+02 -0.13446210118E+03  0.17867494356E+03  0.25664231384E+03  0.12509018943E+03 0.  0.
          5    1    3    3  502    0  0.28310671046E+02 -0.28161097322E+02 -0.46182333635E+01  0.40414625779E+02  0.41800000000E+01 0.  1.
         -5    1    3    3    0  502 -0.42902780284E+02 -0.10630100386E+03  0.18329317692E+03  0.21622768806E+03  0.41800000000E+01 0.  1.
        -11    1    1    2    0    0  0.12523328671E+02 -0.54057103350E+01  0.53917444937E+02  0.55616061833E+02  0.00000000000E+00 0. -1.
         11    1    1    2    0    0  0.20687805674E+01  0.13986781152E+03  0.14526569366E+03  0.20166657211E+03  0.00000000000E+00 0.  1.
</event>
<event>
 7    1  0.3606052E-009  0.8262788E+02  0.7561462E-02  0.1321755E+00
         -1   -1    0    0    0  501 -0.00000000000E+00  0.00000000000E+00  0.28516867738E+02  0.28516867738E+02  0.00000000000E+00 0.  1.
          1   -1    0    0  501    0  0.00000000000E+00 -0.00000000000E+00 -0.53212197466E+03  0.53212197466E+03  0.00000000000E+00 0. -1.
         25    2    1    2    0    0  0.30401911222E+02 -0.99837027709E+01 -0.39173293231E+03  0.41246372356E+03  0.12509069698E+03 0.  0.
          5    1    3    3  502    0  0.74139490984E+02 -0.51767158841E+00 -0.31410284594E+03  0.32276152548E+03  0.41800000000E+01 0.  1.
         -5    1    3    3    0  502 -0.43737579762E+02 -0.94660311825E+01 -0.77630086369E+02  0.89702198074E+02  0.41800000000E+01 0.  1.
        -11    1    1    2    0    0 -0.59036501586E+01  0.19039111422E+02  0.10856460618E+02  0.22698096530E+02  0.00000000000E+00 0.  1.
         11    1    1    2    0    0 -0.24498261064E+02 -0.90554086507E+01 -0.12272863523E+03  0.12547702231E+03  0.00000000000E+00 0. -1.
</event>
<event>
 7    1  0.2820496E-009  0.1263630E+03  0.7561462E-02  0.1232954E+00
          1   -1    0    0  501    0  0.00000000000E+00  0.00000000000E+00  0.11335824271E+03  0.11335824271E+03  0.00000000000E+00 0. -1.
         -1   -1    0    0    0  501 -0.00000000000E+00 -0.00000000000E+00 -0.19068308057E+03  0.19068308057E+03  0.00000000000E+00 0.  1.
         25    2    1    2    0    0  0.29611621953E+02 -0.83354609882E+02 -0.86316716020E+02  0.17585034665E+03  0.12509168562E+03 0.  0.
          5    1    3    3  502    0  0.72537191440E+02 -0.68953004255E+02 -0.32306973050E+02  0.10524910377E+03  0.41800000000E+01 0. -1.
         -5    1    3    3    0  502 -0.42925569487E+02 -0.14401605627E+02 -0.54009742970E+02  0.70601242879E+02  0.41800000000E+01 0. -1.
        -11    1    1    2    0    0  0.58063948688E+01  0.68394571579E+02  0.39424067628E+02  0.79156735349E+02  0.00000000000E+00 0. -1.
         11    1    1    2    0    0 -0.35418016822E+02  0.14960038303E+02 -0.30432189470E+02  0.49034241276E+02  0.00000000000E+00 0.  1.
</event>
<event>
 7    1  0.2820496E-009  0.3886841E+03  0.7561462E-02  0.1047770E+00
          1   -1    0    0  501    0  0.00000000000E+00  0.00000000000E+00  0.57911351141E+03  0.57911351141E+03  0.00000000000E+00 0. -1.
         -1   -1    0    0    0  501 -0.00000000000E+00 -0.00000000000E+00 -0.43522868600E+03  0.43522868600E+03  0.00000000000E+00 0.  1.
         25    2    1    2    0    0  0.33494478812E+03  0.18435869083E+03 -0.23059602238E+03  0.46367809496E+03  0.12508681878E+03 0.  0.
          5    1    3    3  502    0  0.28024941000E+03  0.10690427014E+03 -0.13495362376E+03  0.32893495975E+03  0.41800000000E+01 0. -1.
         -5    1    3    3    0  502  0.54695378118E+02  0.77454420682E+02 -0.95642398621E+02  0.13474313520E+03  0.41800000000E+01 0. -1.
        -11    1    1    2    0    0 -0.27962042267E+03 -0.15839040610E+03  0.23420236653E+03  0.39765041180E+03  0.00000000000E+00 0.  1.
         11    1    1    2    0    0 -0.55324365448E+02 -0.25968284728E+02  0.14027848126E+03  0.15301369066E+03  0.00000000000E+00 0. -1.
</event>
<event>
 7    1  0.2820496E-009  0.1617091E+03  0.7561462E-02  0.1186781E+00
          1   -1    0    0  501    0  0.00000000000E+00  0.00000000000E+00  0.14660225218E+03  0.14660225218E+03  0.00000000000E+00 0. -1.
         -1   -1    0    0    0  501 -0.00000000000E+00 -0.00000000000E+00 -0.23102650432E+03  0.23102650432E+03  0.00000000000E+00 0.  1.
         25    2    1    2    0    0 -0.61823673597E+02 -0.13149259069E+03 -0.71964051441E+02  0.20479010416E+03  0.12509074322E+03 0.  0.
          5    1    3    3  502    0 -0.12351630649E+02 -0.10283362018E+03 -0.97249955917E+02  0.14213494484E+03  0.41800000000E+01 0.  1.
         -5    1    3    3    0  502 -0.49472042948E+02 -0.28658970515E+02  0.25285904476E+02  0.62655159321E+02  0.41800000000E+01 0.  1.
        -11    1    1    2    0    0  0.78580728875E+02  0.10683617296E+03  0.13499420471E+02  0.13330841367E+03  0.00000000000E+00 0.  1.
         11    1    1    2    0    0 -0.16757055278E+02  0.24656417733E+02 -0.25959621173E+02  0.39530238659E+02  0.00000000000E+00 0. -1.
</event>
<event>
 7    1  0.2820496E-009  0.1042932E+03  0.7561462E-02  0.1271518E+00
          2   -1    0    0  501    0  0.00000000000E+00  0.00000000000E+00  0.11371471767E+03  0.11371471767E+03  0.00000000000E+00 0. -1.
         -2   -1    0    0    0  501 -0.00000000000E+00 -0.00000000000E+00 -0.21765035017E+03  0.21765035017E+03  0.00000000000E+00 0.  1.
         25    2    1    2    0    0  0.68880114363E+01  0.76597372545E+02  0.32394930192E+02  0.15036801887E+03  0.12508600008E+03 0.  0.
          5    1    3    3  502    0  0.46933246458E+02  0.23599236571E+01  0.44738618028E+02  0.65017806836E+02  0.41800000000E+01 0. -1.
         -5    1    3    3    0  502 -0.40045235021E+02  0.74237448888E+02 -0.12343687836E+02  0.85350212037E+02  0.41800000000E+01 0. -1.
        -11    1    1    2    0    0 -0.38721821251E+01 -0.28257510116E+02 -0.12887424342E+03  0.13199261831E+03  0.00000000000E+00 0.  1.
         11    1    1    2    0    0 -0.30158293112E+01 -0.48339862429E+02 -0.74563192752E+01  0.49004430649E+02  0.00000000000E+00 0. -1.
</event>
<event>
 7    1  0.2820496E-009  0.1269253E+03  0.7561462E-02  0.1232091E+00
          3   -1    0    0  501    0  0.00000000000E+00  0.00000000000E+00  0.11224233099E+04  0.11224233099E+04  0.00000000000E+00 0. -1.
         -3   -1    0    0    0  501 -0.00000000000E+00 -0.00000000000E+00 -0.18788369086E+02  0.18788369086E+02  0.00000000000E+00 0.  1.
         25    2    1    2    0    0 -0.82643547309E+02 -0.31109777689E+02  0.75257738784E+03  0.76799529676E+03  0.12508507892E+03 0.  0.
          5    1    3    3  502    0 -0.48315735662E+02 -0.64070156207E+02  0.64871496851E+03  0.65367268415E+03  0.41800000000E+01 0. -1.
         -5    1    3    3    0  502 -0.34327811647E+02  0.32960378519E+02  0.10386241933E+03  0.11432261261E+03  0.41800000000E+01 0. -1.
        -11    1    1    2    0    0  0.32926758335E+02  0.59840838500E+02  0.16762255653E+03  0.18100391936E+03  0.00000000000E+00 0.  1.
         11    1    1    2    0    0  0.49716788973E+02 -0.28731060811E+02  0.18343499640E+03  0.19221246283E+03  0.00000000000E+00 0. -1.
</event>
<event>
 7    1  0.2820496E-009  0.1519869E+03  0.7561462E-02  0.1198053E+00
         -1   -1    0    0    0  501 -0.00000000000E+00  0.00000000000E+00  0.64486334210E+03  0.64486334210E+03  0.00000000000E+00 0.  1.
          1   -1    0    0  501    0  0.00000000000E+00 -0.00000000000E+00 -0.44582766265E+02  0.44582766265E+02  0.00000000000E+00 0. -1.
         25    2    1    2    0    0  0.88798932251E+02  0.91960189209E+02  0.27147868632E+03  0.32509855609E+03  0.12508583965E+03 0.  0.
          5    1    3    3  502    0  0.10232277427E+03  0.23687906005E+02  0.19557215527E+03  0.22202929388E+03  0.41800000000E+01 0.  1.
         -5    1    3    3    0  502 -0.13523842018E+02  0.68272283204E+02  0.75906531054E+02  0.10306926221E+03  0.41800000000E+01 0.  1.
        -11    1    1    2    0    0 -0.45454183628E+02 -0.60051504282E+02  0.80335565253E+02  0.11011843179E+03  0.00000000000E+00 0. -1.
         11    1    1    2    0    0 -0.43344748623E+02 -0.31908684927E+02  0.24846632427E+03  0.25422912048E+03  0.00000000000E+00 0.  1.
</event>
<event>
 7    1  0.2820496E-009  0.8152198E+02  0.7561462E-02  0.1324787E+00
         -1   -1    0    0    0  501 -0.00000000000E+00  0.00000000000E+00  0.11624386456E+03  0.11624386456E+03  0.00000000000E+00 0.  1.
          1   -1    0    0  501    0  0.00000000000E+00 -0.00000000000E+00 -0.16793264168E+03  0.16793264168E+03  0.00000000000E+00 0. -1.
         25    2    1    2    0    0  0.15996389254E+02  0.60135274006E+02  0.35517948800E+02  0.14415807495E+03  0.12509152744E+03 0.  0.
          5    1    3    3  502    0  0.24370891791E+02 -0.99977985817E+01  0.62875363442E+02  0.68298463168E+02  0.41800000000E+01 0.  1.
         -5    1    3    3    0  502 -0.83745025374E+01  0.70133072588E+02 -0.27357414642E+02  0.75859611779E+02  0.41800000000E+01 0.  1.
        -11    1    1    2    0    0 -0.25729990135E+01 -0.46189629353E+02 -0.10436087020E+03  0.11415469072E+03  0.00000000000E+00 0. -1.
         11    1    1    2    0    0 -0.13423390240E+02 -0.13945644653E+02  0.17154144285E+02  0.25863740574E+02  0.00000000000E+00 0.  1.
</event>
<event>
 7    1  0.2820496E-009  0.2056423E+03  0.7561462E-02  0.1145064E+00
         -2   -1    0    0    0  501 -0.00000000000E+00  0.00000000000E+00  0.28032070213E+02  0.28032070213E+02  0.00000000000E+00 0.  1.
          2   -1    0    0  501    0  0.00000000000E+00 -0.00000000000E+00 -0.16489908943E+04  0.16489908943E+04  0.00000000000E+00 0. -1.
         25    2    1    2    0    0 -0.82012540538E+02 -0.16518824750E+03 -0.76970526322E+03  0.80131808590E+03  0.12510503047E+03 0.  0.
          5    1    3    3  502    0 -0.11270068332E+03 -0.10246036708E+03 -0.50126262636E+03  0.52390959509E+03  0.41800000000E+01 0.  1.
         -5    1    3    3    0  502  0.30688142785E+02 -0.62727880420E+02 -0.26844263686E+03  0.27740849081E+03  0.41800000000E+01 0.  1.
        -11    1    1    2    0    0  0.30812162922E+02  0.10747591185E+03 -0.66124546426E+03  0.67063106476E+03  0.00000000000E+00 0.  1.
         11    1    1    2    0    0  0.51200377616E+02  0.57712335647E+02 -0.19000809664E+03  0.20507381389E+03  0.00000000000E+00 0. -1.
</event>
<event>
 7    1  0.2820496E-009  0.9895275E+02  0.7561462E-02  0.1282514E+00
         -3   -1    0    0    0  501 -0.00000000000E+00  0.00000000000E+00  0.82426089356E+02  0.82426089356E+02  0.00000000000E+00 0.  1.
          3   -1    0    0  501    0  0.00000000000E+00 -0.00000000000E+00 -0.17201431647E+03  0.17201431647E+03  0.00000000000E+00 0. -1.
         25    2    1    2    0    0 -0.16814752731E+02 -0.45936453809E+02 -0.40215348875E+02  0.14020554342E+03  0.12508967352E+03 0.  0.
          5    1    3    3  502    0 -0.68901513247E+02 -0.26968316394E+02 -0.40828521607E+02  0.84611755646E+02  0.41800000000E+01 0.  1.
         -5    1    3    3    0  502  0.52086760516E+02 -0.18968137415E+02  0.61317273209E+00  0.55593787772E+02  0.41800000000E+01 0.  1.
        -11    1    1    2    0    0  0.25285089331E+02  0.42159248392E+01  0.20223049761E+02  0.32650903607E+02  0.00000000000E+00 0.  1.
         11    1    1    2    0    0 -0.84703365998E+01  0.41720528969E+02 -0.69595928004E+02  0.81583958805E+02  0.00000000000E+00 0. -1.
</event>
<event>
 7    1  0.2820496E-009  0.1486650E+03  0.7561462E-02  0.1202123E+00
         -2   -1    0    0    0  501 -0.00000000000E+00  0.00000000000E+00  0.29255173857E+02  0.29255173857E+02  0.00000000000E+00 0.  1.
          2   -1    0    0  501    0  0.00000000000E+00 -0.00000000000E+00 -0.93978420247E+03  0.93978420247E+03  0.00000000000E+00 0. -1.
         25    2    1    2    0    0  0.85096335067E+02  0.88370114147E+02 -0.56618690842E+03  0.59268304155E+03  0.12511957944E+03 0.  0.
          5    1    3    3  502    0  0.57289408101E+02 -0.18978617252E+02 -0.14479926482E+03  0.15692853050E+03  0.41800000000E+01 0. -1.
         -5    1    3    3    0  502  0.27806926966E+02  0.10734873140E+03 -0.42138764361E+03  0.43575451105E+03  0.41800000000E+01 0. -1.
        -11    1    1    2    0    0 -0.29901667369E+02 -0.13399414962E+02 -0.18827698827E+02  0.37790690333E+02  0.00000000000E+00 0.  1.
         11    1    1    2    0    0 -0.55194667698E+02 -0.74970699185E+02 -0.32551442137E+03  0.33856564444E+03  0.00000000000E+00 0. -1.
</event>
<event>
 7    1  0.2820496E-009  0.7504070E+02  0.7561462E-02  0.1343745E+00
          1   -1    0    0  501    0  0.00000000000E+00  0.00000000000E+00  0.30354745500E+02  0.30354745500E+02  0.00000000000E+00 0. -1.
         -1   -1    0    0    0  501 -0.00000000000E+00 -0.00000000000E+00 -0.50627298406E+03  0.50627298406E+03  0.00000000000E+00 0.  1.
         25    2    1    2    0    0 -0.55686316762E+02  0.17450735473E+02 -0.28210379174E+03  0.31406502634E+03  0.12509515344E+03 0.  0.
          5    1    3    3  502    0  0.13939519661E+02  0.16264874306E+02 -0.21872961619E+03  0.21981577228E+03  0.41800000000E+01 0.  1.
         -5    1    3    3    0  502 -0.69625836423E+02  0.11858611673E+01 -0.63374175542E+02  0.94249254055E+02  0.41800000000E+01 0.  1.
        -11    1    1    2    0    0  0.14954383757E+02 -0.65770706006E+01  0.67051023891E+01  0.17659270916E+02  0.00000000000E+00 0. -1.
         11    1    1    2    0    0  0.40731933005E+02 -0.10873664872E+02 -0.20051954921E+03  0.20490343230E+03  0.00000000000E+00 0.  1.
</event>
<event>
 7    1  0.2820496E-009  0.1587316E+03  0.7561462E-02  0.1190136E+00
          1   -1    0    0  501    0  0.00000000000E+00  0.00000000000E+00  0.33760003029E+03  0.33760003029E+03  0.00000000000E+00 0. -1.
         -1   -1    0    0    0  501 -0.00000000000E+00 -0.00000000000E+00 -0.98211648053E+02  0.98211648053E+02  0.00000000000E+00 0.  1.
         25    2    1    2    0    0 -0.10134237292E+03 -0.10594699317E+03  0.11779775156E+03  0.22587751966E+03  0.12509716904E+03 0.  0.
          5    1    3    3  502    0 -0.68337380162E+02 -0.55437195588E+02 -0.57887643130E+01  0.88285119779E+02  0.41800000000E+01 0.  1.
         -5    1    3    3    0  502 -0.33004992763E+02 -0.50509797587E+02  0.12358651587E+03  0.13759239988E+03  0.41800000000E+01 0.  1.
        -11    1    1    2    0    0  0.11370823889E+03  0.76771590091E+02  0.84423457389E+02  0.16109239831E+03  0.00000000000E+00 0.  1.
         11    1    1    2    0    0 -0.12365865962E+02  0.29175403084E+02  0.37167173287E+02  0.48841760372E+02  0.00000000000E+00 0. -1.
</event>
<event>
 7    1  0.2820496E-009  0.1027125E+03  0.7561462E-02  0.1274693E+00
          1   -1    0    0  501    0  0.00000000000E+00  0.00000000000E+00  0.50366599846E+03  0.50366599846E+03  0.00000000000E+00 0. -1.
         -1   -1    0    0    0  501 -0.00000000000E+00 -0.00000000000E+00 -0.31772034912E+02  0.31772034912E+02  0.00000000000E+00 0.  1.
         25    2    1    2    0    0  0.51057003711E+02 -0.14666008302E+02  0.18535723334E+03  0.22981997608E+03  0.12505202127E+03 0.  0.
          5    1    3    3  502    0  0.16935818269E+01  0.46127053379E+02  0.28385316553E+02  0.54348614229E+02  0.41800000000E+01 0.  1.
         -5    1    3    3    0  502  0.49363421884E+02 -0.60793061680E+02  0.15697191679E+03  0.17547136185E+03  0.41800000000E+01 0.  1.
        -11    1    1    2    0    0 -0.18388919045E+02 -0.23872845883E+02  0.24733827007E+02  0.38984962648E+02  0.00000000000E+00 0.  1.
         11    1    1    2    0    0 -0.32668084666E+02  0.38538854185E+02  0.26180290320E+03  0.26663309465E+03  0.00000000000E+00 0. -1.
</event>
<event>
 7    1  0.2820496E-009  0.8787117E+02  0.7561462E-02  0.1308090E+00
         -1   -1    0    0    0  501 -0.00000000000E+00  0.00000000000E+00  0.29699919213E+02  0.29699919213E+02  0.00000000000E+00 0.  1.
          1   -1    0    0  501    0  0.00000000000E+00 -0.00000000000E+00 -0.39851533250E+03  0.39851533250E+03  0.00000000000E+00 0. -1.
         25    2    1    2    0    0  0.52047177021E+01  0.14904538463E+02 -0.20862196346E+03  0.24376245792E+03  0.12509107841E+03 0.  0.
          5    1    3    3  502    0  0.44462295715E+02 -0.99519418883E+01 -0.18668406231E+03  0.19220912675E+03  0.41800000000E+01 0.  1.
         -5    1    3    3    0  502 -0.39257578013E+02  0.24856480352E+02 -0.21937901155E+02  0.51553331163E+02  0.41800000000E+01 0.  1.
        -11    1    1    2    0    0  0.37909467107E+02 -0.61205210142E+00 -0.36276977840E+02  0.52474007140E+02  0.00000000000E+00 0.  1.
         11    1    1    2    0    0 -0.43114184809E+02 -0.14292486362E+02 -0.12391647198E+03  0.13197878666E+03  0.00000000000E+00 0. -1.
</event>
<event>
 7    1  0.2820496E-009  0.7711433E+02  0.7561462E-02  0.1337446E+00
          2   -1    0    0  501    0  0.00000000000E+00  0.00000000000E+00  0.88596759325E+02  0.88596759325E+02  0.00000000000E+00 0.  1.
         -2   -1    0    0    0  501 -0.00000000000E+00 -0.00000000000E+00 -0.19266715902E+03  0.19266715902E+03  0.00000000000E+00 0. -1.
         25    2    1    2    0    0  0.31164336291E+02  0.20246090644E+02  0.10805581716E+02  0.13094001225E+03  0.12508959257E+03 0.  0.
          5    1    3    3  502    0 -0.26109439618E+02  0.23377072024E+02  0.50102137596E+02  0.61285291263E+02  0.41800000000E+01 0.  1.
         -5    1    3    3    0  502  0.57273775909E+02 -0.31309813795E+01 -0.39296555880E+02  0.69654720984E+02  0.41800000000E+01 0.  1.
        -11    1    1    2    0    0 -0.54919807188E+01 -0.32511021742E+02 -0.10419101309E+01  0.32988088209E+02  0.00000000000E+00 0.  1.
         11    1    1    2    0    0 -0.25672355572E+02  0.12264931098E+02 -0.11383407128E+03  0.11733581789E+03  0.00000000000E+00 0. -1.
</event>
<event>
 7    1  0.2820496E-009  0.1309945E+03  0.7561462E-02  0.1225987E+00
          1   -1    0    0  501    0  0.00000000000E+00  0.00000000000E+00  0.81809823551E+03  0.81809823551E+03  0.00000000000E+00 0. -1.
         -1   -1    0    0    0  501 -0.00000000000E+00 -0.00000000000E+00 -0.28284881902E+02  0.28284881902E+02  0.00000000000E+00 0.  1.
         25    2    1    2    0    0  0.94487489555E+02  0.34764793481E+02  0.40559448702E+03  0.43621863102E+03  0.12507329691E+03 0.  0.
          5    1    3    3  502    0  0.48163535769E+02 -0.22252226108E+02  0.49770226224E+02  0.72865873788E+02  0.41800000000E+01 0.  1.
         -5    1    3    3    0  502  0.46323953786E+02  0.57017019590E+02  0.35582426079E+03  0.36335275723E+03  0.41800000000E+01 0.  1.
        -11    1    1    2    0    0  0.12341135537E+01  0.23233007976E+02  0.26102240824E+02  0.34966021677E+02  0.00000000000E+00 0.  1.
         11    1    1    2    0    0 -0.95721603109E+02 -0.57997801457E+02  0.35811662577E+03  0.37519846472E+03  0.00000000000E+00 0. -1.
</event>
<event>
 7    1  0.2820496E-009  0.1085001E+03  0.7561462E-02  0.1263373E+00
         -1   -1    0    0    0  501 -0.00000000000E+00  0.00000000000E+00  0.90780214109E+02  0.90780214109E+02  0.00000000000E+00 0.  1.
          1   -1    0    0  501    0  0.00000000000E+00 -0.00000000000E+00 -0.15449232930E+03  0.15449232930E+03  0.00000000000E+00 0. -1.
         25    2    1    2    0    0  0.43175381533E+01 -0.28530450130E+02 -0.68116097911E+02  0.14532024011E+03  0.12508213969E+03 0.  0.
          5    1    3    3  502    0  0.59983609903E+02 -0.28741894496E+02 -0.15101953313E+02  0.68334993599E+02  0.41800000000E+01 0. -1.
         -5    1    3    3    0  502 -0.55666071750E+02  0.21144436645E+00 -0.53014144598E+02  0.76985246510E+02  0.41800000000E+01 0. -1.
        -11    1    1    2    0    0 -0.39577042035E+02 -0.11473597926E+02  0.17930094473E+02  0.44938557981E+02  0.00000000000E+00 0.  1.
         11    1    1    2    0    0  0.35259503882E+02  0.40004048055E+02 -0.13526111752E+02  0.55013745318E+02  0.00000000000E+00 0. -1.
</event>
<event>
 7    1  0.2820496E-009  0.7493044E+02  0.7561462E-02  0.1344087E+00
          2   -1    0    0  501    0  0.00000000000E+00  0.00000000000E+00  0.31045053739E+03  0.31045053739E+03  0.00000000000E+00 0.  1.
         -2   -1    0    0    0  501 -0.00000000000E+00 -0.00000000000E+00 -0.43491226479E+02  0.43491226479E+02  0.00000000000E+00 0. -1.
         25    2    1    2    0    0  0.17269752374E+02  0.26858426076E+02  0.18842369971E+03  0.22840744571E+03  0.12508737444E+03 0.  0.
          5    1    3    3  502    0  0.25284831326E+02 -0.68289353961E+01 -0.89376923078E+01  0.27987707974E+02  0.41800000000E+01 0.  1.
         -5    1    3    3    0  502 -0.80150789524E+01  0.33687361472E+02  0.19736139202E+03  0.20041973773E+03  0.41800000000E+01 0.  1.
        -11    1    1    2    0    0 -0.25456217335E+02 -0.54220564927E+02  0.76134725412E+02  0.96873035854E+02  0.00000000000E+00 0.  1.
         11    1    1    2    0    0  0.81864649610E+01  0.27362138851E+02  0.24008857896E+01  0.28661282309E+02  0.00000000000E+00 0. -1.
</event>
<event>
 7    1  0.2820496E-009  0.1105988E+03  0.7561462E-02  0.1259465E+00
         -1   -1    0    0    0  501 -0.00000000000E+00  0.00000000000E+00  0.22481777208E+02  0.22481777208E+02  0.00000000000E+00 0.  1.
          1   -1    0    0  501    0  0.00000000000E+00 -0.00000000000E+00 -0.70845625753E+03  0.70845625753E+03  0.00000000000E+00 0. -1.
         25    2    1    2    0    0 -0.51810438830E+02  0.23722028353E+02 -0.32767370208E+03  0.35533919938E+03  0.12509530519E+03 0.  0.
          5    1    3    3  502    0 -0.32675000037E+02  0.74903497572E+02 -0.21501297106E+03  0.23005703576E+03  0.41800000000E+01 0. -1.
         -5    1    3    3    0  502 -0.19135438793E+02 -0.51181469219E+02 -0.11266073102E+03  0.12528216363E+03  0.41800000000E+01 0. -1.
        -11    1    1    2    0    0  0.47420318410E+02 -0.43475692413E+02 -0.34597345434E+03  0.35190404024E+03  0.00000000000E+00 0. -1.
         11    1    1    2    0    0  0.43901204191E+01  0.19753664060E+02 -0.12327323902E+02  0.23694795118E+02  0.00000000000E+00 0.  1.
</event>
<event>
 7    1  0.2820496E-009  0.1664695E+03  0.7561462E-02  0.1181580E+00
         -2   -1    0    0    0  501 -0.00000000000E+00  0.00000000000E+00  0.61552052130E+02  0.61552052130E+02  0.00000000000E+00 0. -1.
          2   -1    0    0  501    0  0.00000000000E+00 -0.00000000000E+00 -0.48495199713E+03  0.48495199713E+03  0.00000000000E+00 0.  1.
         25    2    1    2    0    0 -0.69821079892E+02 -0.10531587594E+03 -0.29725569383E+03  0.34637415602E+03  0.12509073314E+03 0.  0.
          5    1    3    3  502    0 -0.83479427580E+02 -0.12677544216E+03 -0.24848509272E+03  0.29120978910E+03  0.41800000000E+01 0.  1.
         -5    1    3    3    0  502  0.13658347688E+02  0.21459566222E+02 -0.48770601119E+02  0.55164366919E+02  0.41800000000E+01 0.  1.
        -11    1    1    2    0    0  0.32427524254E+02  0.11263300129E+03 -0.97534337592E+02  0.15248175077E+03  0.00000000000E+00 0.  1.
         11    1    1    2    0    0  0.37393555638E+02 -0.73171253472E+01 -0.28609913573E+02  0.47648142474E+02  0.00000000000E+00 0. -1.
</event>
<event>
 7    1  0.2820496E-009  0.1462604E+03  0.7561462E-02  0.1205145E+00
         -1   -1    0    0    0  501 -0.00000000000E+00  0.00000000000E+00  0.77097316344E+02  0.77097316344E+02  0.00000000000E+00 0.  1.
          1   -1    0    0  501    0  0.00000000000E+00 -0.00000000000E+00 -0.35757142182E+03  0.35757142182E+03  0.00000000000E+00 0. -1.
         25    2    1    2    0    0 -0.75210130228E+02  0.92586744368E+02 -0.20376898013E+03  0.26720377038E+03  0.12508872339E+03 0.  0.
          5    1    3    3  502    0 -0.23984204483E+02  0.11443762625E+03 -0.13793050031E+03  0.18086875817E+03  0.41800000000E+01 0.  1.
         -5    1    3    3    0  502 -0.51225925745E+02 -0.21850881883E+02 -0.65838479819E+02  0.86335012205E+02  0.41800000000E+01 0.  1.
        -11    1    1    2    0    0  0.45346452005E+02 -0.63117970263E+02  0.25821340324E+01  0.77761470509E+02  0.00000000000E+00 0.  1.
         11    1    1    2    0    0  0.29863678223E+02 -0.29468774105E+02 -0.79287259377E+02  0.89703497277E+02  0.00000000000E+00 0. -1.
</event>
<event>
 7    1  0.2820496E-009  0.1084134E+03  0.7561462E-02  0.1263537E+00
          1   -1    0    0  501    0  0.00000000000E+00  0.00000000000E+00  0.42188969185E+03  0.42188969185E+03  0.00000000000E+00 0. -1.
         -1   -1    0    0    0  501 -0.00000000000E+00 -0.00000000000E+00 -0.40188161454E+02  0.40188161454E+02  0.00000000000E+00 0.  1.
         25    2    1    2    0    0 -0.42360940634E+02 -0.49600003190E+02  0.15696239161E+03  0.21104207671E+03  0.12508779379E+03 0.  0.
          5    1    3    3  502    0 -0.23234556215E+02  0.23582742643E+02 -0.35437421739E+01  0.33556234319E+02  0.41800000000E+01 0.  1.
         -5    1    3    3    0  502 -0.19126384420E+02 -0.73182745833E+02  0.16050613378E+03  0.17748584240E+03  0.41800000000E+01 0.  1.
        -11    1    1    2    0    0  0.38253171558E+02 -0.16366811252E+02  0.12174103395E+03  0.12865479778E+03  0.00000000000E+00 0.  1.
         11    1    1    2    0    0  0.41077690768E+01  0.65966814442E+02  0.10299810483E+03  0.12238097880E+03  0.00000000000E+00 0. -1.
</event>
<event>
 7    1  0.2820496E-009  0.9008542E+02  0.7561462E-02  0.1302645E+00
          2   -1    0    0  501    0  0.00000000000E+00  0.00000000000E+00  0.14740711760E+03  0.14740711760E+03  0.00000000000E+00 0. -1.
         -2   -1    0    0    0  501 -0.00000000000E+00 -0.00000000000E+00 -0.91768608586E+02  0.91768608586E+02  0.00000000000E+00 0.  1.
         25    2    1    2    0    0 -0.12791610392E+02  0.27403428743E+02  0.25843440955E+01  0.12871929595E+03  0.12508958835E+03 0.  0.
          5    1    3    3  502    0 -0.55717305262E+02  0.52851651307E+02 -0.86575757426E+01  0.77396002282E+02  0.41800000000E+01 0.  1.
         -5    1    3    3    0  502  0.42925694870E+02 -0.25448222563E+02  0.11241919838E+02  0.51323293672E+02  0.41800000000E+01 0.  1.
        -11    1    1    2    0    0 -0.13192887972E+02  0.26480400830E+01  0.67010878924E+02  0.68348535489E+02  0.00000000000E+00 0. -1.
         11    1    1    2    0    0  0.25984498364E+02 -0.30051468826E+02 -0.13956714006E+02  0.42107894743E+02  0.00000000000E+00 0.  1.
</event>
<event>
 7    1  0.2820496E-009  0.1254075E+03  0.7561462E-02  0.1234434E+00
         -3   -1    0    0    0  501 -0.00000000000E+00  0.00000000000E+00  0.23777019505E+02  0.23777019505E+02  0.00000000000E+00 0.  1.
          3   -1    0    0  501    0  0.00000000000E+00 -0.00000000000E+00 -0.91338351868E+03  0.91338351868E+03  0.00000000000E+00 0. -1.
         25    2    1    2    0    0  0.93947315251E+02 -0.41860811271E+02 -0.48695148502E+03  0.51317361924E+03  0.12508792568E+03 0.  0.
          5    1    3    3  502    0  0.36835684717E+02 -0.52174540298E+02 -0.41835774825E+03  0.42322538705E+03  0.41800000000E+01 0. -1.
         -5    1    3    3    0  502  0.57111630534E+02  0.10313729027E+02 -0.68593736776E+02  0.89948232187E+02  0.41800000000E+01 0. -1.
        -11    1    1    2    0    0 -0.47441990430E+02  0.61897156985E+02 -0.29305335165E+03  0.30325281105E+03  0.00000000000E+00 0. -1.
         11    1    1    2    0    0 -0.46505324821E+02 -0.20036345714E+02 -0.10960166250E+03  0.12073410790E+03  0.00000000000E+00 0.  1.
</event>
<event>
 7    1  0.2820496E-009  0.7929544E+02  0.7561462E-02  0.1331063E+00
         -2   -1    0    0    0  501 -0.00000000000E+00  0.00000000000E+00  0.98955051418E+02  0.98955051418E+02  0.00000000000E+00 0.  1.
          2   -1    0    0  501    0  0.00000000000E+00 -0.00000000000E+00 -0.17025464952E+03  0.17025464952E+03  0.00000000000E+00 0. -1.
         25    2    1    2    0    0  0.14885107941E+02  0.23741632565E+02  0.29462038502E+02  0.13153124360E+03  0.12508886751E+03 0.  0.
          5    1    3    3  502    0 -0.23129645457E+02  0.35850908816E+02  0.65050033322E+02  0.77905374636E+02  0.41800000000E+01 0. -1.
         -5    1    3    3    0  502  0.38014753398E+02 -0.12109276250E+02 -0.35587994820E+02  0.53625868968E+02  0.41800000000E+01 0. -1.
        -11    1    1    2    0    0 -0.25132607419E+02 -0.45261768968E+02 -0.10138110151E+03  0.11383498332E+03  0.00000000000E+00 0. -1.
         11    1    1    2    0    0  0.10247499478E+02  0.21520136403E+02  0.61946489771E+00  0.23843474015E+02  0.00000000000E+00 0.  1.
</event>
<event>
 7    1  0.2820496E-009  0.1239986E+03  0.7561462E-02  0.1236643E+00
          1   -1    0    0  501    0  0.00000000000E+00  0.00000000000E+00  0.33504749927E+03  0.33504749927E+03  0.00000000000E+00 0. -1.
         -1   -1    0    0    0  501 -0.00000000000E+00 -0.00000000000E+00 -0.77136078485E+02  0.77136078485E+02  0.00000000000E+00 0.  1.
         25    2    1    2    0    0  0.10250358368E+03 -0.41787267943E+01  0.19319225020E+03  0.25198535708E+03  0.12509567627E+03 0.  0.
          5    1    3    3  502    0  0.55826921964E+02  0.53914011150E+01  0.34946981931E+01  0.56350667586E+02  0.41800000000E+01 0. -1.
         -5    1    3    3    0  502  0.46676661718E+02 -0.95701279094E+01  0.18969755201E+03  0.19563468950E+03  0.41800000000E+01 0. -1.
        -11    1    1    2    0    0 -0.86230593359E+02 -0.41308196504E+02  0.28350488128E+02  0.99728794771E+02  0.00000000000E+00 0.  1.
         11    1    1    2    0    0 -0.16272990323E+02  0.45486923298E+02  0.36368682459E+02  0.60469425902E+02  0.00000000000E+00 0. -1.
</event>
<event>
 7    1  0.2820496E-009  0.1016568E+03  0.7561462E-02  0.1276850E+00
          2   -1    0    0  501    0  0.00000000000E+00  0.00000000000E+00  0.82192022811E+03  0.82192022811E+03  0.00000000000E+00 0. -1.
         -2   -1    0    0    0  501 -0.00000000000E+00 -0.00000000000E+00 -0.31979964934E+02  0.31979964934E+02  0.00000000000E+00 0.  1.
         25    2    1    2    0    0  0.53183387584E+02 -0.33790492778E+02  0.69209470840E+03  0.70612623372E+03  0.12509557322E+03 0.  0.
          5    1    3    3  502    0  0.56592538492E+02 -0.77430705078E+02  0.46224912097E+03  0.47211222367E+03  0.41800000000E+01 0. -1.
         -5    1    3    3    0  502 -0.34091509079E+01  0.43640212300E+02  0.22984558743E+03  0.23401401005E+03  0.41800000000E+01 0. -1.
        -11    1    1    2    0    0 -0.17564218434E+02  0.14852474602E+02 -0.15317463525E+02  0.27635528941E+02  0.00000000000E+00 0.  1.
         11    1    1    2    0    0 -0.35619169149E+02  0.18938018176E+02  0.11316301830E+03  0.12013843038E+03  0.00000000000E+00 0. -1.
</event>
<event>
 7    1  0.2820496E-009  0.2344677E+03  0.7561462E-02  0.1123534E+00
          1   -1    0    0  501    0  0.00000000000E+00  0.00000000000E+00  0.91373532080E+03  0.91373532080E+03  0.00000000000E+00 0. -1.
         -1   -1    0    0    0  501 -0.00000000000E+00 -0.00000000000E+00 -0.87139241014E+02  0.87139241014E+02  0.00000000000E+00 0.  1.
         25    2    1    2    0    0 -0.20054120168E+03 -0.54754291302E+02  0.70050155338E+03  0.74132678707E+03  0.12509265751E+03 0.  0.
          5    1    3    3  502    0 -0.12269277231E+03 -0.94520216507E+02  0.43440201458E+03  0.46120512830E+03  0.41800000000E+01 0. -1.
         -5    1    3    3    0  502 -0.77848429368E+02  0.39765925206E+02  0.26609953880E+03  0.28012165877E+03  0.41800000000E+01 0. -1.
        -11    1    1    2    0    0  0.15171688084E+00  0.23701262637E+02  0.17949063991E+02  0.29731158180E+02  0.00000000000E+00 0.  1.
         11    1    1    2    0    0  0.20038948479E+03  0.31053028665E+02  0.10814546242E+03  0.22981661656E+03  0.00000000000E+00 0. -1.
</event>
<event>
 7    1  0.2820496E-009  0.1737815E+03  0.7561462E-02  0.1173961E+00
         -1   -1    0    0    0  501 -0.00000000000E+00  0.00000000000E+00  0.56257463660E+02  0.56257463660E+02  0.00000000000E+00 0.  1.
          1   -1    0    0  501    0  0.00000000000E+00 -0.00000000000E+00 -0.61414176260E+03  0.61414176260E+03  0.00000000000E+00 0. -1.
         25    2    1    2    0    0  0.34752981878E+02  0.14648538971E+03 -0.29348909859E+03  0.35277465937E+03  0.12509344569E+03 0.  0.
          5    1    3    3  502    0 -0.33290622913E+02 -0.62141997227E+00 -0.47461682016E+02  0.58126890476E+02  0.41800000000E+01 0. -1.
         -5    1    3    3    0  502  0.68043604791E+02  0.14710680969E+03 -0.24602741658E+03  0.29464776890E+03  0.41800000000E+01 0. -1.
        -11    1    1    2    0    0 -0.20087432149E+02 -0.44347825927E+02 -0.17321104189E+03  0.17992303806E+03  0.00000000000E+00 0. -1.
         11    1    1    2    0    0 -0.14665549729E+02 -0.10213756379E+03 -0.91184158460E+02  0.13770152882E+03  0.00000000000E+00 0.  1.
</event>
<event>
 7    1  0.2820496E-009  0.3076170E+03  0.7561462E-02  0.1081494E+00
          2   -1    0    0  501    0  0.00000000000E+00  0.00000000000E+00  0.14305409132E+04  0.14305409132E+04  0.00000000000E+00 0. -1.
         -2   -1    0    0    0  501 -0.00000000000E+00 -0.00000000000E+00 -0.83857015771E+02  0.83857015771E+02  0.00000000000E+00 0.  1.
         25    2    1    2    0    0 -0.27455891753E+03  0.13230954721E+03  0.41552489523E+03  0.53028053755E+03  0.12509234375E+03 0.  0.
          5    1    3    3  502    0 -0.18604698163E+03  0.10832197265E+03  0.36932420327E+03  0.42751019713E+03  0.41800000000E+01 0. -1.
         -5    1    3    3    0  502 -0.88511935907E+02  0.23987574563E+02  0.46200691959E+02  0.10277034041E+03  0.41800000000E+01 0. -1.
        -11    1    1    2    0    0  0.96714497312E+02 -0.23184741231E+02  0.42813929334E+03  0.43953894107E+03  0.00000000000E+00 0.  1.
         11    1    1    2    0    0  0.17784442022E+03 -0.10912480598E+03  0.50301970885E+03  0.54457845035E+03  0.00000000000E+00 0. -1.
</event>
<event>
 7    1  0.2820496E-009  0.4610843E+02  0.7561462E-02  0.1467538E+00
          1   -1    0    0  501    0  0.00000000000E+00  0.00000000000E+00  0.72377571457E+02  0.72377571457E+02  0.00000000000E+00 0. -1.
         -1   -1    0    0    0  501 -0.00000000000E+00 -0.00000000000E+00 -0.21416963824E+03  0.21416963824E+03  0.00000000000E+00 0.  1.
         25    2    1    2    0    0 -0.67072617841E+00 -0.55931152594E+01 -0.94620878924E+01  0.12557481899E+03  0.12509105182E+03 0.  0.
          5    1    3    3  502    0 -0.15138376137E+02  0.30771378195E+01 -0.65228895905E+02  0.67163386381E+02  0.41800000000E+01 0.  1.
         -5    1    3    3    0  502  0.14467649958E+02 -0.86702530789E+01  0.55766808012E+02  0.58411432611E+02  0.41800000000E+01 0.  1.
        -11    1    1    2    0    0 -0.19519005508E+01  0.32120477469E+02 -0.13032643744E+03  0.13424051283E+03  0.00000000000E+00 0.  1.
         11    1    1    2    0    0  0.26226267292E+01 -0.26527362210E+02 -0.20035414566E+01  0.26731877883E+02  0.00000000000E+00 0. -1.
</event>
<event>
 7    1  0.2820496E-009  0.2983773E+03  0.7561462E-02  0.1086055E+00
          1   -1    0    0  501    0  0.00000000000E+00  0.00000000000E+00  0.61879837084E+03  0.61879837084E+03  0.00000000000E+00 0. -1.
         -1   -1    0    0    0  501 -0.00000000000E+00 -0.00000000000E+00 -0.15265215416E+03  0.15265215416E+03  0.00000000000E+00 0.  1.
         25    2    1    2    0    0  0.20567048810E+03  0.19125105819E+03  0.16090874560E+03  0.34700825319E+03  0.12508311812E+03 0.  0.
          5    1    3    3  502    0  0.14549627384E+03  0.59388724978E+02  0.51731713021E+02  0.16549872775E+03  0.41800000000E+01 0.  1.
         -5    1    3    3    0  502  0.60174214263E+02  0.13186233321E+03  0.10917703258E+03  0.18150952544E+03  0.41800000000E+01 0.  1.
        -11    1    1    2    0    0 -0.53987691993E+02 -0.48189841382E+01  0.64783407054E+02  0.84467646614E+02  0.00000000000E+00 0. -1.
         11    1    1    2    0    0 -0.15168279611E+03 -0.18643207405E+03  0.24045406402E+03  0.33997462519E+03  0.00000000000E+00 0.  1.
</event>
<event>
 7    1  0.2820496E-009  0.9043116E+02  0.7561462E-02  0.1301811E+00
         -2   -1    0    0    0  501 -0.00000000000E+00  0.00000000000E+00  0.40934683797E+03  0.40934683797E+03  0.00000000000E+00 0.  1.
          2   -1    0    0  501    0  0.00000000000E+00 -0.00000000000E+00 -0.44967933271E+02  0.44967933271E+02  0.00000000000E+00 0. -1.
         25    2    1    2    0    0 -0.70189395785E+00 -0.63493094607E+02  0.28136143823E+03  0.31439439874E+03  0.12509082028E+03 0.  0.
          5    1    3    3  502    0  0.42849695805E+01 -0.65710678909E+02  0.49638247225E+02  0.82569257442E+02  0.41800000000E+01 0.  1.
         -5    1    3    3    0  502 -0.49868635383E+01  0.22175843023E+01  0.23172319101E+03  0.23182514130E+03  0.41800000000E+01 0.  1.
        -11    1    1    2    0    0  0.36066360426E+02  0.85879196861E+00  0.47651291324E+02  0.59767595258E+02  0.00000000000E+00 0.  1.
         11    1    1    2    0    0 -0.35364466468E+02  0.62634302638E+02  0.35366175146E+02  0.80152777244E+02  0.00000000000E+00 0. -1.
</event>
<event>
 7    1  0.2820496E-009  0.1379948E+03  0.7561462E-02  0.1216053E+00
          2   -1    0    0  501    0  0.00000000000E+00  0.00000000000E+00  0.97195741182E+03  0.97195741182E+03  0.00000000000E+00 0.  1.
         -2   -1    0    0    0  501 -0.00000000000E+00 -0.00000000000E+00 -0.36164179374E+02  0.36164179374E+02  0.00000000000E+00 0. -1.
         25    2    1    2    0    0 -0.73910424957E+02  0.77667683218E+02  0.78440760884E+03  0.80152228773E+03  0.12509061115E+03 0.  0.
          5    1    3    3  502    0  0.33777609146E+01  0.67371840078E+02  0.55694357229E+03  0.56102940138E+03  0.41800000000E+01 0.  1.
         -5    1    3    3    0  502 -0.77288185871E+02  0.10295843140E+02  0.22746403655E+03  0.24049288635E+03  0.41800000000E+01 0.  1.
        -11    1    1    2    0    0  0.80911697177E+02 -0.36851505353E+02  0.13587334258E+03  0.16237703474E+03  0.00000000000E+00 0.  1.
         11    1    1    2    0    0 -0.70012722209E+01 -0.40816177865E+02  0.15512281029E+02  0.44222268722E+02  0.00000000000E+00 0. -1.
</event>
<event>
 7    1  0.2820496E-009  0.1917434E+03  0.7561462E-02  0.1156898E+00
          2   -1    0    0  501    0  0.00000000000E+00  0.00000000000E+00  0.76192040933E+03  0.76192040933E+03  0.00000000000E+00 0. -1.
         -2   -1    0    0    0  501 -0.00000000000E+00 -0.00000000000E+00 -0.74867838332E+02  0.74867838332E+02  0.00000000000E+00 0.  1.
         25    2    1    2    0    0  0.15821499974E+03 -0.26617891820E+02  0.11026555248E+03  0.23140193232E+03  0.12509142220E+03 0.  0.
          5    1    3    3  502    0  0.17940741981E+03 -0.18795547700E+02  0.96538763384E+02  0.20463992800E+03  0.41800000000E+01 0.  1.
         -5    1    3    3    0  502 -0.21192420072E+02 -0.78223441202E+01  0.13726789100E+02  0.26762004317E+02  0.41800000000E+01 0.  1.
        -11    1    1    2    0    0 -0.11292542835E+03 -0.20444172073E+02  0.30539987795E+03  0.32625021379E+03  0.00000000000E+00 0.  1.
         11    1    1    2    0    0 -0.45289571381E+02  0.47062063893E+02  0.27138714056E+03  0.27913610156E+03  0.00000000000E+00 0. -1.
</event>
<event>
 7    1  0.2820496E-009  0.9385875E+02  0.7561462E-02  0.1293767E+00
          1   -1    0    0  501    0  0.00000000000E+00  0.00000000000E+00  0.59208562283E+03  0.59208562283E+03  0.00000000000E+00 0. -1.
         -1   -1    0    0    0  501 -0.00000000000E+00 -0.00000000000E+00 -0.22350152163E+02  0.22350152163E+02  0.00000000000E+00 0.  1.
         25    2    1    2    0    0 -0.36530594088E+02 -0.38271344397E+01  0.32795964099E+03  0.35292353941E+03  0.12509343422E+03 0.  0.
          5    1    3    3  502    0 -0.65309828378E+02  0.43149707572E+01  0.31189687304E+03  0.31871793873E+03  0.41800000000E+01 0.  1.
         -5    1    3    3    0  502  0.28779234289E+02 -0.81421051969E+01  0.16062767952E+02  0.34205600676E+02  0.41800000000E+01 0.  1.
        -11    1    1    2    0    0  0.18404672748E+02  0.44090235053E+02  0.74476139518E+02  0.88483762146E+02  0.00000000000E+00 0.  1.
         11    1    1    2    0    0  0.18125921340E+02 -0.40263100613E+02  0.16729969015E+03  0.17302847344E+03  0.00000000000E+00 0. -1.
</event>
<event>
 7    1  0.2820496E-009  0.9090850E+02  0.7561462E-02  0.1300666E+00
         -1   -1    0    0    0  501 -0.00000000000E+00  0.00000000000E+00  0.78132873108E+02  0.78132873108E+02  0.00000000000E+00 0.  1.
          1   -1    0    0  501    0  0.00000000000E+00 -0.00000000000E+00 -0.20051682937E+03  0.20051682937E+03  0.00000000000E+00 0. -1.
         25    2    1    2    0    0 -0.23380484801E+02  0.57784659840E+02 -0.85212639421E+02  0.16368968620E+03  0.12508958977E+03 0.  0.
          5    1    3    3  502    0 -0.33346848149E+02  0.38737680420E+02  0.20871383437E+02  0.55368828888E+02  0.41800000000E+01 0. -1.
         -5    1    3    3    0  502  0.99663633481E+01  0.19046979421E+02 -0.10608402286E+03  0.10832085731E+03  0.41800000000E+01 0. -1.
        -11    1    1    2    0    0  0.54983684210E+02 -0.18066293840E+02 -0.22826854958E+02  0.62214643048E+02  0.00000000000E+00 0.  1.
         11    1    1    2    0    0 -0.31603199408E+02 -0.39718366001E+02 -0.14344461887E+02  0.52745373232E+02  0.00000000000E+00 0. -1.
</event>
<event>
 7    1  0.2820496E-009  0.1598309E+03  0.7561462E-02  0.1188888E+00
         -2   -1    0    0    0  501 -0.00000000000E+00  0.00000000000E+00  0.36244599067E+02  0.36244599067E+02  0.00000000000E+00 0.  1.
          2   -1    0    0  501    0  0.00000000000E+00 -0.00000000000E+00 -0.12497812201E+04  0.12497812201E+04  0.00000000000E+00 0. -1.
         25    2    1    2    0    0  0.11023460121E+03 -0.88993476775E+02 -0.99089185030E+03  0.10087545610E+04  0.12509036403E+03 0.  0.
          5    1    3    3  502    0  0.34820027606E+02  0.23569152109E+02 -0.11667363026E+03  0.12408927291E+03  0.41800000000E+01 0. -1.
         -5    1    3    3    0  502  0.75414573605E+02 -0.11256262888E+03 -0.87421822004E+03  0.88466528811E+03  0.41800000000E+01 0. -1.
        -11    1    1    2    0    0 -0.89807866370E+02  0.68829911487E+02 -0.22128613030E+03  0.24853684041E+03  0.00000000000E+00 0. -1.
         11    1    1    2    0    0 -0.20426734841E+02  0.20163565288E+02 -0.13586404774E+01  0.28734417783E+02  0.00000000000E+00 0.  1.
</event>
<event>
 7    1  0.2820496E-009  0.1436082E+03  0.7561462E-02  0.1208555E+00
         -1   -1    0    0    0  501 -0.00000000000E+00  0.00000000000E+00  0.11097855445E+03  0.11097855445E+03  0.00000000000E+00 0.  1.
          1   -1    0    0  501    0  0.00000000000E+00 -0.00000000000E+00 -0.21230869904E+03  0.21230869904E+03  0.00000000000E+00 0. -1.
         25    2    1    2    0    0 -0.10085741635E+03  0.38391052648E+02 -0.58510472965E+02  0.17525829076E+03  0.12508357877E+03 0.  0.
          5    1    3    3  502    0 -0.36974191729E+02  0.80403415239E+02 -0.29643221322E+02  0.93423728284E+02  0.41800000000E+01 0. -1.
         -5    1    3    3    0  502 -0.63883224622E+02 -0.42012362591E+02 -0.28867251643E+02  0.81834562478E+02  0.41800000000E+01 0. -1.
        -11    1    1    2    0    0  0.24156135197E+02 -0.38375205692E+02  0.19345230498E+02  0.49299221318E+02  0.00000000000E+00 0.  1.
         11    1    1    2    0    0  0.76701281154E+02 -0.15846955943E-01 -0.62164902124E+02  0.98729741405E+02  0.00000000000E+00 0. -1.
</event>
<event>
 7    1  0.2820496E-009  0.1773080E+03  0.7561462E-02  0.1170434E+00
          1   -1    0    0  501    0  0.00000000000E+00  0.00000000000E+00  0.10655114020E+03  0.10655114020E+03  0.00000000000E+00 0. -1.
         -1   -1    0    0    0  501 -0.00000000000E+00 -0.00000000000E+00 -0.32098432437E+03  0.32098432437E+03  0.00000000000E+00 0.  1.
         25    2    1    2    0    0  0.11756672184E+03 -0.89780315769E+02 -0.14436156164E+03  0.24159981655E+03  0.12509105361E+03 0.  0.
          5    1    3    3  502    0  0.43513071534E+01  0.27926698497E+02 -0.10668261139E+02  0.30497845147E+02  0.41800000000E+01 0.  1.
         -5    1    3    3    0  502  0.11321541469E+03 -0.11770701427E+03 -0.13369330050E+03  0.21110197140E+03  0.41800000000E+01 0.  1.
        -11    1    1    2    0    0 -0.84329125368E+02  0.21952056323E+02 -0.68027664279E+01  0.87404644003E+02  0.00000000000E+00 0. -1.
         11    1    1    2    0    0 -0.33237596474E+02  0.67828259446E+02 -0.63268856101E+02  0.98531004010E+02  0.00000000000E+00 0.  1.
</event>
<event>
 7    1  0.2820496E-009  0.8686814E+02  0.7561462E-02  0.1310618E+00
          1   -1    0    0  501    0  0.00000000000E+00  0.00000000000E+00  0.97747590755E+02  0.97747590755E+02  0.00000000000E+00 0. -1.
         -1   -1    0    0    0  501 -0.00000000000E+00 -0.00000000000E+00 -0.12432839130E+03  0.12432839130E+03  0.00000000000E+00 0.  1.
         25    2    1    2    0    0 -0.29581167291E+01 -0.10805634558E+02  0.66195091153E+01  0.12576496947E+03  0.12508995744E+03 0.  0.
          5    1    3    3  502    0  0.37239837476E+02  0.94201314949E+01  0.49953109478E+02  0.63153225722E+02  0.41800000000E+01 0.  1.
         -5    1    3    3    0  502 -0.40197954206E+02 -0.20225766053E+02 -0.43333600363E+02  0.62611743748E+02  0.41800000000E+01 0.  1.
        -11    1    1    2    0    0 -0.19802983916E+02  0.44806388403E+02 -0.13015303878E+02  0.50686968234E+02  0.00000000000E+00 0.  1.
         11    1    1    2    0    0  0.22761100645E+02 -0.34000753845E+02 -0.20185005784E+02  0.45624044353E+02  0.00000000000E+00 0. -1.
</event>
<event>
 6    1  0.2820496E-009  0.1122215E+03  0.7561462E-02  0.1256511E+00
          1   -1    0    0  501    0  0.00000000000E+00  0.00000000000E+00  0.63519460539E+03  0.63519460539E+03  0.00000000000E+00 0. -1.
         -1   -1    0    0    0  501 -0.00000000000E+00 -0.00000000000E+00 -0.21356548219E+02  0.21356548219E+02  0.00000000000E+00 0.  1.
          5    1    1    2  502    0  0.26652670389E+02  0.73907507415E+02  0.25388600400E+03  0.26579740390E+03  0.41800000000E+01 0. -1.
         -5    1    1    2    0  502 -0.23965284594E+02 -0.43182456963E+02  0.17956094677E+03  0.18627577798E+03  0.41800000000E+01 0. -1.
        -11    1    1    2    0    0 -0.30069750248E+02  0.21682639335E+02  0.65482829420E+02  0.75248439700E+02  0.00000000000E+00 0. -1.
         11    1    1    2    0    0  0.27382364453E+02 -0.52407689787E+02  0.11490827698E+03  0.12922953204E+03  0.00000000000E+00 0.  1.
</event>
<event>
 7    1  0.2820496E-009  0.2469206E+03  0.7561462E-02  0.1115267E+00
         -2   -1    0    0    0  501 -0.00000000000E+00  0.00000000000E+00  0.32120822749E+03  0.32120822749E+03  0.00000000000E+00 0.  1.
          2   -1    0    0  501    0  0.00000000000E+00 -0.00000000000E+00 -0.36645835555E+03  0.36645835555E+03  0.00000000000E+00 0. -1.
         25    2    1    2    0    0  0.11030051689E+03  0.19884931391E+03 -0.25546589453E+03  0.36416673427E+03  0.12508930174E+03 0.  0.
          5    1    3    3  502    0  0.10766353527E+03  0.88717956736E+02 -0.19066475571E+03  0.23628972501E+03  0.41800000000E+01 0.  1.
         -5    1    3    3    0  502  0.26369816279E+01  0.11013135717E+03 -0.64801138813E+02  0.12787700926E+03  0.41800000000E+01 0.  1.
        -11    1    1    2    0    0 -0.96910429434E+02 -0.83547952905E+02  0.12998157764E+03  0.18239271448E+03  0.00000000000E+00 0. -1.
         11    1    1    2    0    0 -0.13390087460E+02 -0.11530136100E+03  0.80234188826E+02  0.14110713429E+03  0.00000000000E+00 0.  1.
</event>
<event>
 6    1  0.2820496E-009  0.1034512E+03  0.7561462E-02  0.1273202E+00
          2   -1    0    0  501    0  0.00000000000E+00  0.00000000000E+00  0.99815073508E+02  0.99815073508E+02  0.00000000000E+00 0. -1.
         -2   -1    0    0    0  501 -0.00000000000E+00 -0.00000000000E+00 -0.18296158896E+03  0.18296158896E+03  0.00000000000E+00 0.  1.
          5    1    1    2  502    0  0.47857785115E+02  0.59674267259E+02  0.28047306942E+02  0.81581306656E+02  0.41800000000E+01 0.  1.
         -5    1    1    2    0  502 -0.44679879909E+02  0.15169054678E+02 -0.44899889046E+02  0.65267636121E+02  0.41800000000E+01 0.  1.
        -11    1    1    2    0    0  0.16109057110E+02 -0.39551790964E+02  0.14971675691E+02  0.45254800435E+02  0.00000000000E+00 0. -1.
         11    1    1    2    0    0 -0.19286962316E+02 -0.35291530974E+02 -0.81265609041E+02  0.90672919258E+02  0.00000000000E+00 0.  1.
</event>
<event>
 7    1  0.2820496E-009  0.1065138E+03  0.7561462E-02  0.1267165E+00
          2   -1    0    0  501    0  0.00000000000E+00  0.00000000000E+00  0.19640947679E+03  0.19640947679E+03  0.00000000000E+00 0. -1.
         -2   -1    0    0    0  501 -0.00000000000E+00 -0.00000000000E+00 -0.10660146911E+03  0.10660146911E+03  0.00000000000E+00 0.  1.
         25    2    1    2    0    0  0.76451763280E+02 -0.33672557519E+02 -0.19747721329E+01  0.15043384046E+03  0.12509087654E+03 0.  0.
          5    1    3    3  502    0  0.59846054806E+02  0.26493370679E+02  0.38384748317E+02  0.75988882536E+02  0.41800000000E+01 0. -1.
         -5    1    3    3    0  502  0.16605708474E+02 -0.60165928198E+02 -0.40359520450E+02  0.74444957927E+02  0.41800000000E+01 0. -1.
        -11    1    1    2    0    0 -0.13823930008E+02  0.83395831605E-01  0.79209404965E+02  0.80406702647E+02  0.00000000000E+00 0. -1.
         11    1    1    2    0    0 -0.62627833272E+02  0.33589161688E+02  0.12573374844E+02  0.72170402785E+02  0.00000000000E+00 0.  1.
</event>
<event>
 7    1  0.2820496E-009  0.6682566E+02  0.7561462E-02  0.1371233E+00
         -3   -1    0    0    0  501 -0.00000000000E+00  0.00000000000E+00  0.40034722040E+03  0.40034722040E+03  0.00000000000E+00 0.  1.
          3   -1    0    0  501    0  0.00000000000E+00 -0.00000000000E+00 -0.48063468189E+02  0.48063468189E+02  0.00000000000E+00 0. -1.
         25    2    1    2    0    0  0.13403093413E+02 -0.47794154476E+02  0.30795950553E+03  0.33608917765E+03  0.12511176670E+03 0.  0.
          5    1    3    3  502    0 -0.18036278632E+02 -0.37059252957E+02  0.29840824091E+03  0.30127005530E+03  0.41800000000E+01 0.  1.
         -5    1    3    3    0  502  0.31439372045E+02 -0.10734901518E+02  0.95512646268E+01  0.34819122349E+02  0.41800000000E+01 0.  1.
        -11    1    1    2    0    0 -0.18977297538E+02  0.11862758553E+02  0.66204369860E+02  0.69884772668E+02  0.00000000000E+00 0.  1.
         11    1    1    2    0    0  0.55742041247E+01  0.35931395923E+02 -0.21880123186E+02  0.42436738273E+02  0.00000000000E+00 0. -1.
</event>
<event>
 7    1  0.2820496E-009  0.9604484E+02  0.7561462E-02  0.1288840E+00
         -1   -1    0    0    0  501 -0.00000000000E+00  0.00000000000E+00  0.31973923197E+03  0.31973923197E+03  0.00000000000E+00 0.  1.
          1   -1    0    0  501    0  0.00000000000E+00 -0.00000000000E+00 -0.57282002193E+02  0.57282002193E+02  0.00000000000E+00 0. -1.
         25    2    1    2    0    0  0.56484785616E+02 -0.12494779884E+02  0.22437159476E+03  0.26331869190E+03  0.12508984946E+03 0.  0.
          5    1    3    3  502    0  0.52704878701E+02  0.27923126387E+02  0.34331945548E+02  0.68946791885E+02  0.41800000000E+01 0. -1.
         -5    1    3    3    0  502  0.37799069148E+01 -0.40417906270E+02  0.19003964921E+03  0.19437190002E+03  0.41800000000E+01 0. -1.
        -11    1    1    2    0    0 -0.71919935442E+02  0.46686098782E+00  0.11812383248E+01  0.71931150395E+02  0.00000000000E+00 0. -1.
         11    1    1    2    0    0  0.15435149827E+02  0.12027918896E+02  0.36904396693E+02  0.41771391866E+02  0.00000000000E+00 0.  1.
</event>
<event>
 7    1  0.2820496E-009  0.9309227E+02  0.7561462E-02  0.1295532E+00
          1   -1    0    0  501    0  0.00000000000E+00  0.00000000000E+00  0.62415613389E+02  0.62415613389E+02  0.00000000000E+00 0. -1.
         -1   -1    0    0    0  501 -0.00000000000E+00 -0.00000000000E+00 -0.21373479604E+03  0.21373479604E+03  0.00000000000E+00 0.  1.
         25    2    1    2    0    0  0.67770793450E+01  0.13646349880E+02 -0.12856156350E+03  0.18002095702E+03  0.12508923889E+03 0.  0.
          5    1    3    3  502    0 -0.39308353612E+02  0.24574237893E+02 -0.40287101467E+01  0.46719832375E+02  0.41800000000E+01 0. -1.
         -5    1    3    3    0  502  0.46085432957E+02 -0.10927888013E+02 -0.12453285335E+03  0.13330112464E+03  0.41800000000E+01 0. -1.
        -11    1    1    2    0    0  0.33026372926E+02  0.21153698354E+02 -0.18165995379E+01  0.39262199334E+02  0.00000000000E+00 0.  1.
         11    1    1    2    0    0 -0.39803452271E+02 -0.34800048234E+02 -0.20941019613E+02  0.56867253074E+02  0.00000000000E+00 0. -1.
</event>
<event>
 7    1  0.2820496E-009  0.7575165E+02  0.7561462E-02  0.1341559E+00
          4   -1    0    0  501    0  0.00000000000E+00  0.00000000000E+00  0.20993344913E+03  0.20993344913E+03  0.00000000000E+00 0. -1.
         -4   -1    0    0    0  501 -0.00000000000E+00 -0.00000000000E+00 -0.80414869723E+02  0.80414869723E+02  0.00000000000E+00 0.  1.
         25    2    1    2    0    0  0.17918525025E+02  0.96061313814E+01  0.14847186672E+03  0.19520498799E+03  0.12509093025E+03 0.  0.
          5    1    3    3  502    0  0.35715317816E+02 -0.10965892979E+02 -0.62017172020E+01  0.38102079100E+02  0.41800000000E+01 0.  1.
         -5    1    3    3    0  502 -0.17796792790E+02  0.20572024360E+02  0.15467358392E+03  0.15710290889E+03  0.41800000000E+01 0.  1.
        -11    1    1    2    0    0  0.32070455578E+02 -0.16262545352E+02 -0.25791800496E+02  0.44251570313E+02  0.00000000000E+00 0.  1.
         11    1    1    2    0    0 -0.49988980604E+02  0.66564139710E+01  0.68385131796E+01  0.50891760544E+02  0.00000000000E+00 0. -1.
</event>
<event>
 7    1  0.2820496E-009  0.9902046E+02  0.7561462E-02  0.1282369E+00
         -2   -1    0    0    0  501 -0.00000000000E+00  0.00000000000E+00  0.92053300177E+02  0.92053300177E+02  0.00000000000E+00 0. -1.
          2   -1    0    0  501    0  0.00000000000E+00 -0.00000000000E+00 -0.24014697967E+03  0.24014697967E+03  0.00000000000E+00 0.  1.
         25    2    1    2    0    0  0.49378027538E+02 -0.18524279284E+02 -0.17712020565E+03  0.22316002578E+03  0.12508993297E+03 0.  0.
          5    1    3    3  502    0 -0.27620038186E+02 -0.21708111730E+02 -0.66004038285E+01  0.35988141866E+02  0.41800000000E+01 0. -1.
         -5    1    3    3    0  502  0.76998065724E+02  0.31838324459E+01 -0.17051980182E+03  0.18717188391E+03  0.41800000000E+01 0. -1.
        -11    1    1    2    0    0  0.99918118347E+01 -0.14454327499E+02 -0.18985091935E+02  0.25868853917E+02  0.00000000000E+00 0.  1.
         11    1    1    2    0    0 -0.59369839373E+02  0.32978606783E+02  0.48011618088E+02  0.83171400156E+02  0.00000000000E+00 0. -1.
</event>
<event>
 7    1  0.2820496E-009  0.1001902E+03  0.7561462E-02  0.1279896E+00
         -1   -1    0    0    0  501 -0.00000000000E+00  0.00000000000E+00  0.66875124590E+02  0.66875124590E+02  0.00000000000E+00 0.  1.
          1   -1    0    0  501    0  0.00000000000E+00 -0.00000000000E+00 -0.21800485496E+03  0.21800485496E+03  0.00000000000E+00 0. -1.
         25    2    1    2    0    0 -0.35578401905E+02  0.29603276203E+02 -0.11418626862E+03  0.17558046952E+03  0.12509124946E+03 0.  0.
          5    1    3    3  502    0 -0.51841361160E+02 -0.12200103038E+02 -0.64143772483E+00  0.53425210186E+02  0.41800000000E+01 0.  1.
         -5    1    3    3    0  502  0.16262959255E+02  0.41803379241E+02 -0.11354483090E+03  0.12215525933E+03  0.41800000000E+01 0.  1.
        -11    1    1    2    0    0  0.58984978964E+02  0.60125783142E+01 -0.14097400322E+02  0.60943543851E+02  0.00000000000E+00 0. -1.
         11    1    1    2    0    0 -0.23406577059E+02 -0.35615854518E+02 -0.22846061431E+02  0.48355966184E+02  0.00000000000E+00 0.  1.
</event>
<event>
 7    1  0.2820496E-009  0.8619268E+02  0.7561462E-02  0.1312343E+00
         -2   -1    0    0    0  501 -0.00000000000E+00  0.00000000000E+00  0.21158096973E+03  0.21158096973E+03  0.00000000000E+00 0.  1.
          2   -1    0    0  501    0  0.00000000000E+00 -0.00000000000E+00 -0.60733025588E+02  0.60733025588E+02  0.00000000000E+00 0. -1.
         25    2    1    2    0    0 -0.14541173704E+02  0.20526560888E+02  0.52185670183E+02  0.13785514355E+03  0.12509161041E+03 0.  0.
          5    1    3    3  502    0  0.97513049862E+01  0.45040853311E+02  0.80611628560E+02  0.92948768012E+02  0.41800000000E+01 0.  1.
         -5    1    3    3    0  502 -0.24292478690E+02 -0.24514292423E+02 -0.28425958377E+02  0.44906375533E+02  0.41800000000E+01 0.  1.
        -11    1    1    2    0    0 -0.16617296718E+02  0.28656218823E+02  0.36299320877E+02  0.49142182732E+02  0.00000000000E+00 0.  1.
         11    1    1    2    0    0  0.31158470422E+02 -0.49182779711E+02  0.62362953085E+02  0.85316669044E+02  0.00000000000E+00 0. -1.
</event>
<event>
 7    1  0.2820496E-009  0.1603256E+03  0.7561462E-02  0.1188330E+00
          2   -1    0    0  501    0  0.00000000000E+00  0.00000000000E+00  0.91661571926E+03  0.91661571926E+03  0.00000000000E+00 0. -1.
         -2   -1    0    0    0  501 -0.00000000000E+00 -0.00000000000E+00 -0.37123329304E+02  0.37123329304E+02  0.00000000000E+00 0.  1.
         25    2    1    2    0    0 -0.82909257194E+02  0.11477554840E+03  0.56093838016E+03  0.59190078291E+03  0.12508916432E+03 0.  0.
          5    1    3    3  502    0 -0.95369121112E+02  0.98046608530E+02  0.55219841080E+03  0.56890154156E+03  0.41800000000E+01 0.  1.
         -5    1    3    3    0  502  0.12459863918E+02  0.16728939872E+02  0.87399693675E+01  0.22999241349E+02  0.41800000000E+01 0.  1.
        -11    1    1    2    0    0 -0.57915510545E+01  0.87305948620E+01  0.20122569057E+01  0.10668389200E+02  0.00000000000E+00 0.  1.
         11    1    1    2    0    0  0.88700808249E+02 -0.12350614326E+03  0.31654175289E+03  0.35116987646E+03  0.00000000000E+00 0. -1.
</event>
<event>
 7    1  0.2820496E-009  0.1073163E+03  0.7561462E-02  0.1265622E+00
          1   -1    0    0  501    0  0.00000000000E+00  0.00000000000E+00  0.52140249611E+03  0.52140249611E+03  0.00000000000E+00 0. -1.
         -1   -1    0    0    0  501 -0.00000000000E+00 -0.00000000000E+00 -0.24683756527E+02  0.24683756527E+02  0.00000000000E+00 0.  1.
         25    2    1    2    0    0 -0.13143378289E+02 -0.12040492347E+02  0.20991904276E+03  0.24501170851E+03  0.12508801278E+03 0.  0.
          5    1    3    3  502    0 -0.67748058320E+02 -0.11631817214E+02  0.91299216254E+02  0.11435959893E+03  0.41800000000E+01 0. -1.
         -5    1    3    3    0  502  0.54604680032E+02 -0.40867513295E+00  0.11861982651E+03  0.13065210958E+03  0.41800000000E+01 0. -1.
        -11    1    1    2    0    0  0.84026315897E-01 -0.38652306234E+02  0.13920268190E+03  0.14446935483E+03  0.00000000000E+00 0.  1.
         11    1    1    2    0    0  0.13059351973E+02  0.50692798581E+02  0.14759701492E+03  0.15660518930E+03  0.00000000000E+00 0. -1.
</event>
<event>
 7    1  0.2820496E-009  0.1112604E+03  0.7561462E-02  0.1258253E+00
         -2   -1    0    0    0  501 -0.00000000000E+00  0.00000000000E+00  0.53472167048E+02  0.53472167048E+02  0.00000000000E+00 0.  1.
          2   -1    0    0  501    0  0.00000000000E+00 -0.00000000000E+00 -0.33405321860E+03  0.33405321860E+03  0.00000000000E+00 0. -1.
         25    2    1    2    0    0  0.57258196466E+02  0.49282025976E+02 -0.18530325373E+03  0.23598954773E+03  0.12508617689E+03 0.  0.
          5    1    3    3  502    0  0.55000062325E+02  0.88962766532E+02 -0.14833253394E+03  0.18154722171E+03  0.41800000000E+01 0. -1.
         -5    1    3    3    0  502  0.22581341412E+01 -0.39680740556E+02 -0.36970719786E+02  0.54442326019E+02  0.41800000000E+01 0. -1.
        -11    1    1    2    0    0 -0.23497355453E+02 -0.32704233719E+02 -0.10519444256E+03  0.11263908452E+03  0.00000000000E+00 0. -1.
         11    1    1    2    0    0 -0.33760841013E+02 -0.16577792257E+02  0.99166447372E+01  0.38896753397E+02  0.00000000000E+00 0.  1.
</event>
<event>
 7    1  0.2820496E-009  0.1424733E+03  0.7561462E-02  0.1210039E+00
         -3   -1    0    0    0  501 -0.00000000000E+00  0.00000000000E+00  0.56606629677E+02  0.56606629677E+02  0.00000000000E+00 0.  1.
          3   -1    0    0  501    0  0.00000000000E+00 -0.00000000000E+00 -0.40185488097E+03  0.40185488097E+03  0.00000000000E+00 0. -1.
         25    2    1    2    0    0  0.34058935127E+02  0.97195960415E+02 -0.20119311169E+03  0.25832456201E+03  0.12508335366E+03 0.  0.
          5    1    3    3  502    0  0.54309490552E+02  0.11804542660E+03 -0.18031213355E+03  0.22229300801E+03  0.41800000000E+01 0.  1.
         -5    1    3    3    0  502 -0.20250555424E+02 -0.20849466187E+02 -0.20880978134E+02  0.36031553993E+02  0.41800000000E+01 0.  1.
        -11    1    1    2    0    0 -0.50447856900E+02 -0.96829138040E+02 -0.14737332988E+03  0.18341146802E+03  0.00000000000E+00 0. -1.
         11    1    1    2    0    0  0.16388921773E+02 -0.36682237559E+00  0.33181902723E+01  0.16725480627E+02  0.00000000000E+00 0.  1.
</event>
<event>
 7    1  0.2820496E-009  0.2301894E+03  0.7561462E-02  0.1126507E+00
         -1   -1    0    0    0  501 -0.00000000000E+00  0.00000000000E+00  0.74987638995E+02  0.74987638995E+02  0.00000000000E+00 0.  1.
          1   -1    0    0  501    0  0.00000000000E+00 -0.00000000000E+00 -0.79120045828E+03  0.79120045828E+03  0.00000000000E+00 0. -1.
         25    2    1    2    0    0  0.16077026729E+03 -0.13800902103E+03 -0.46179887014E+03  0.52325735845E+03  0.12508596235E+03 0.  0.
          5    1    3    3  502    0 -0.38642174329E+01 -0.53732682636E+02 -0.16402085409E+03  0.17269176685E+03  0.41800000000E+01 0.  1.
         -5    1    3    3    0  502  0.16463448472E+03 -0.84276338391E+02 -0.29777801605E+03  0.35056559160E+03  0.41800000000E+01 0.  1.
        -11    1    1    2    0    0 -0.89637856229E+02  0.35140537530E+02 -0.65790964738E+02  0.11661155041E+03  0.00000000000E+00 0.  1.
         11    1    1    2    0    0 -0.71132411063E+02  0.10286848350E+03 -0.18862298441E+03  0.22631918842E+03  0.00000000000E+00 0. -1.
</event>
<event>
 7    1  0.2820496E-009  0.1120427E+03  0.7561462E-02  0.1256833E+00
         -2   -1    0    0    0  501 -0.00000000000E+00  0.00000000000E+00  0.21183474052E+02  0.21183474052E+02  0.00000000000E+00 0.  1.
          2   -1    0    0  501    0  0.00000000000E+00 -0.00000000000E+00 -0.76208943055E+03  0.76208943055E+03  0.00000000000E+00 0. -1.
         25    2    1    2    0    0  0.57172889523E+02  0.28790721249E+02 -0.46007568984E+03  0.48105426923E+03  0.12508367056E+03 0.  0.
          5    1    3    3  502    0 -0.96176615241E+01 -0.24661436414E+02 -0.28390856254E+03  0.28517052818E+03  0.41800000000E+01 0. -1.
         -5    1    3    3    0  502  0.66790551047E+02  0.53452157663E+02 -0.17616712729E+03  0.19588374105E+03  0.41800000000E+01 0. -1.
        -11    1    1    2    0    0 -0.43509533721E+02 -0.61991519371E+02 -0.18709326700E+03  0.20184132024E+03  0.00000000000E+00 0.  1.
         11    1    1    2    0    0 -0.13663355802E+02  0.33200798122E+02 -0.93736999656E+02  0.10037731513E+03  0.00000000000E+00 0. -1.
</event>
<event>
 7    1  0.2820496E-009  0.1805564E+03  0.7561462E-02  0.1167266E+00
          1   -1    0    0  501    0  0.00000000000E+00  0.00000000000E+00  0.65352189003E+03  0.65352189003E+03  0.00000000000E+00 0. -1.
         -1   -1    0    0    0  501 -0.00000000000E+00 -0.00000000000E+00 -0.53831329211E+02  0.53831329211E+02  0.00000000000E+00 0.  1.
         25    2    1    2    0    0 -0.10118457887E+03  0.11063780437E+03  0.36410254235E+03  0.41315713602E+03  0.12509642255E+03 0.  0.
          5    1    3    3  502    0  0.14546925058E+02  0.56888678627E+02  0.63626046935E+02  0.86681491872E+02  0.41800000000E+01 0.  1.
         -5    1    3    3    0  502 -0.11573150393E+03  0.53749125744E+02  0.30047649542E+03  0.32647564415E+03  0.41800000000E+01 0.  1.
        -11    1    1    2    0    0  0.18702249522E+02  0.15208015225E+02  0.20167469557E+02  0.31429042184E+02  0.00000000000E+00 0. -1.
         11    1    1    2    0    0  0.82482329353E+02 -0.12584581960E+03  0.21542054891E+03  0.26276704104E+03  0.00000000000E+00 0.  1.
</event>
<event>
 7    1  0.2820496E-009  0.1373355E+03  0.7561462E-02  0.1216960E+00
         -1   -1    0    0    0  501 -0.00000000000E+00  0.00000000000E+00  0.20393839587E+03  0.20393839587E+03  0.00000000000E+00 0.  1.
          1   -1    0    0  501    0  0.00000000000E+00 -0.00000000000E+00 -0.12163136144E+03  0.12163136144E+03  0.00000000000E+00 0. -1.
         25    2    1    2    0    0  0.20828154314E+02  0.10579807461E+03  0.66773998877E+01  0.16528093675E+03  0.12508459450E+03 0.  0.
          5    1    3    3  502    0  0.35903793064E+02 -0.17983149134E+02  0.23069996073E+01  0.40438479897E+02  0.41800000000E+01 0.  1.
         -5    1    3    3    0  502 -0.15075638750E+02  0.12378122374E+03  0.43704002804E+01  0.12484245685E+03  0.41800000000E+01 0.  1.
        -11    1    1    2    0    0  0.44808691641E+00 -0.47020011823E+02 -0.15736184546E+02  0.49585378872E+02  0.00000000000E+00 0. -1.
         11    1    1    2    0    0 -0.21276241230E+02 -0.58778062783E+02  0.91365819085E+02  0.11070344169E+03  0.00000000000E+00 0.  1.
</event>
<event>
 7    1  0.2820496E-009  0.8911053E+02  0.7561462E-02  0.1305020E+00
          2   -1    0    0  501    0  0.00000000000E+00  0.00000000000E+00  0.20287025942E+03  0.20287025942E+03  0.00000000000E+00 0. -1.
         -2   -1    0    0    0  501 -0.00000000000E+00 -0.00000000000E+00 -0.59323580439E+02  0.59323580439E+02  0.00000000000E+00 0.  1.
         25    2    1    2    0    0  0.16060351324E+01  0.17045049095E+02  0.88251534281E+02  0.15404527406E+03  0.12509396512E+03 0.  0.
          5    1    3    3  502    0 -0.81856521022E+01 -0.48600280410E+02  0.68840551749E+02  0.84767246749E+02  0.41800000000E+01 0. -1.
         -5    1    3    3    0  502  0.97916872346E+01  0.65645329505E+02  0.19410982531E+02  0.69278027307E+02  0.41800000000E+01 0. -1.
        -11    1    1    2    0    0  0.24781421633E+02 -0.24487810269E+02 -0.10896438535E+02  0.36503480419E+02  0.00000000000E+00 0.  1.
         11    1    1    2    0    0 -0.26387456765E+02  0.74427611743E+01  0.66191583235E+02  0.71645085383E+02  0.00000000000E+00 0. -1.
</event>
<event>
 7    1  0.2820496E-009  0.1283460E+03  0.7561462E-02  0.1229931E+00
         -1   -1    0    0    0  501 -0.00000000000E+00  0.00000000000E+00  0.10964694555E+03  0.10964694555E+03  0.00000000000E+00 0.  1.
          1   -1    0    0  501    0  0.00000000000E+00 -0.00000000000E+00 -0.16787703439E+03  0.16787703439E+03  0.00000000000E+00 0. -1.
         25    2    1    2    0    0  0.72443919854E+02 -0.35274598966E+02 -0.53557038661E+02  0.15814068360E+03  0.12509076930E+03 0.  0.
          5    1    3    3  502    0  0.69311430669E+02 -0.78758574406E+02 -0.38121373513E+02  0.11170362117E+03  0.41800000000E+01 0. -1.
         -5    1    3    3    0  502  0.31324891852E+01  0.43483975440E+02 -0.15435665148E+02  0.46437062430E+02  0.41800000000E+01 0. -1.
        -11    1    1    2    0    0 -0.28092905441E+01  0.38102603749E+02  0.22776867306E+02  0.44480177721E+02  0.00000000000E+00 0.  1.
         11    1    1    2    0    0 -0.69634629310E+02 -0.28280047832E+01 -0.27449917487E+02  0.74903118628E+02  0.00000000000E+00 0. -1.
</event>
<event>
 7    1  0.2820496E-009  0.9220711E+02  0.7561462E-02  0.1297593E+00
         -1   -1    0    0    0  501 -0.00000000000E+00  0.00000000000E+00  0.24871851839E+02  0.24871851839E+02  0.00000000000E+00 0.  1.
          1   -1    0    0  501    0  0.00000000000E+00 -0.00000000000E+00 -0.52173520017E+03  0.52173520017E+03  0.00000000000E+00 0. -1.
         25    2    1    2    0    0  0.32002914294E+01 -0.31598605685E+02 -0.29406797354E+03  0.32114203567E+03  0.12509004863E+03 0.  0.
          5    1    3    3  502    0 -0.20089146936E+02  0.21320960315E+02 -0.24017657667E+03  0.24199259814E+03  0.41800000000E+01 0.  1.
         -5    1    3    3    0  502  0.23289438365E+02 -0.52919566000E+02 -0.53891396876E+02  0.79149437536E+02  0.41800000000E+01 0.  1.
        -11    1    1    2    0    0  0.30153880069E+02  0.50277284734E+02 -0.10176955356E+03  0.11744830299E+03  0.00000000000E+00 0. -1.
         11    1    1    2    0    0 -0.33354171498E+02 -0.18678679049E+02 -0.10102582124E+03  0.10801671336E+03  0.00000000000E+00 0.  1.
</event>
<event>
 7    1  0.2820496E-009  0.1024845E+03  0.7561462E-02  0.1275156E+00
          1   -1    0    0  501    0  0.00000000000E+00  0.00000000000E+00  0.25762355117E+03  0.25762355117E+03  0.00000000000E+00 0. -1.
         -1   -1    0    0    0  501 -0.00000000000E+00 -0.00000000000E+00 -0.81231249046E+02  0.81231249046E+02  0.00000000000E+00 0.  1.
         25    2    1    2    0    0 -0.78373837131E+01 -0.49334565663E+02  0.39779514090E+01  0.13475720899E+03  0.12509339441E+03 0.  0.
          5    1    3    3  502    0  0.26729494737E+02 -0.63248380336E+02  0.42611240970E+02  0.80919798325E+02  0.41800000000E+01 0.  1.
         -5    1    3    3    0  502 -0.34566878450E+02  0.13913814672E+02 -0.38633289561E+02  0.53837410663E+02  0.41800000000E+01 0.  1.
        -11    1    1    2    0    0  0.40084841921E+01 -0.24460718716E+02  0.90252191072E+02  0.93594084744E+02  0.00000000000E+00 0. -1.
         11    1    1    2    0    0  0.38288995210E+01  0.73795284380E+02  0.82162159647E+02  0.11050350649E+03  0.00000000000E+00 0.  1.
</event>
<event>
 7    1  0.2820496E-009  0.1251163E+03  0.7561462E-02  0.1234888E+00
         -2   -1    0    0    0  501 -0.00000000000E+00  0.00000000000E+00  0.37165223569E+02  0.37165223569E+02  0.00000000000E+00 0.  1.
          2   -1    0    0  501    0  0.00000000000E+00 -0.00000000000E+00 -0.51252696483E+03  0.51252696483E+03  0.00000000000E+00 0. -1.
         25    2    1    2    0    0 -0.25500264971E+02 -0.69651105302E+02 -0.34194842424E+03  0.37158742520E+03  0.12508776817E+03 0.  0.
          5    1    3    3  502    0 -0.63707031437E+02 -0.28073814588E+00 -0.18562531189E+03  0.19629797116E+03  0.41800000000E+01 0. -1.
         -5    1    3    3    0  502  0.38206766465E+02 -0.69370367156E+02 -0.15632311235E+03  0.17528945404E+03  0.41800000000E+01 0. -1.
        -11    1    1    2    0    0 -0.25900854701E+02  0.40257331858E+02 -0.23659822276E+02  0.53397511484E+02  0.00000000000E+00 0.  1.
         11    1    1    2    0    0  0.51401119672E+02  0.29393773443E+02 -0.10975349475E+03  0.12470725171E+03  0.00000000000E+00 0. -1.
</event>
<event>
 7    1  0.3118293E-009  0.9674001E+02  0.7561462E-02  0.1287305E+00
         -2   -1    0    0    0  501 -0.00000000000E+00  0.00000000000E+00  0.25310256029E+02  0.25310256029E+02  0.00000000000E+00 0.  1.
          2   -1    0    0  501    0  0.00000000000E+00 -0.00000000000E+00 -0.55917204709E+03  0.55917204709E+03  0.00000000000E+00 0. -1.
         25    2    1    2    0    0  0.26561718716E+02  0.25007096341E+00 -0.40402488783E+03  0.42378143033E+03  0.12509597622E+03 0.  0.
          5    1    3    3  502    0 -0.46802280993E+02  0.18365708142E+00 -0.93036030120E+02  0.10422889492E+03  0.41800000000E+01 0.  1.
         -5    1    3    3    0  502  0.73363999709E+02  0.66413881989E-01 -0.31098885771E+03  0.31955253541E+03  0.41800000000E+01 0.  1.
        -11    1    1    2    0    0 -0.39572767523E+02 -0.23745712888E+02 -0.12521416974E+03  0.13344830877E+03  0.00000000000E+00 0. -1.
         11    1    1    2    0    0  0.13011048807E+02  0.23495641924E+02 -0.46227334835E+01  0.27252564014E+02  0.00000000000E+00 0.  1.
</event>
<event>
 7    1  0.2820496E-009  0.1353310E+03  0.7561462E-02  0.1219753E+00
         -1   -1    0    0    0  501 -0.00000000000E+00  0.00000000000E+00  0.36317028603E+02  0.36317028603E+02  0.00000000000E+00 0.  1.
          1   -1    0    0  501    0  0.00000000000E+00 -0.00000000000E+00 -0.52053245852E+03  0.52053245852E+03  0.00000000000E+00 0. -1.
         25    2    1    2    0    0 -0.56096700358E+02 -0.60792040823E+02 -0.23869230894E+03  0.28189480487E+03  0.12509256831E+03 0.  0.
          5    1    3    3  502    0 -0.31797169636E+02 -0.97540378625E+02 -0.19089408168E+03  0.21675610321E+03  0.41800000000E+01 0.  1.
         -5    1    3    3    0  502 -0.24299530722E+02  0.36748337802E+02 -0.47798227257E+02  0.65138701656E+02  0.41800000000E+01 0.  1.
        -11    1    1    2    0    0 -0.13452353317E+02  0.51900731305E+02 -0.10307207343E+03  0.11618306263E+03  0.00000000000E+00 0. -1.
         11    1    1    2    0    0  0.69549053675E+02  0.88913095181E+01 -0.14245104754E+03  0.15877161962E+03  0.00000000000E+00 0.  1.
</event>
<event>
 7    1  0.2820496E-009  0.1234987E+03  0.7561462E-02  0.1237434E+00
         -2   -1    0    0    0  501 -0.00000000000E+00  0.00000000000E+00  0.26492474351E+03  0.26492474351E+03  0.00000000000E+00 0.  1.
          2   -1    0    0  501    0  0.00000000000E+00 -0.00000000000E+00 -0.62153375229E+02  0.62153375229E+02  0.00000000000E+00 0. -1.
         25    2    1    2    0    0 -0.16864060393E+02  0.56752972922E+02  0.15567344439E+03  0.20829580917E+03  0.12509047270E+03 0.  0.
          5    1    3    3  502    0 -0.43244987503E+02 -0.26539089423E+02  0.58663154868E+02  0.77674257966E+02  0.41800000000E+01 0. -1.
         -5    1    3    3    0  502  0.26380927110E+02  0.83292062344E+02  0.97010289525E+02  0.13062155120E+03  0.41800000000E+01 0. -1.
        -11    1    1    2    0    0 -0.37474892447E+02 -0.30241849950E+02  0.26133622187E+02  0.54789627311E+02  0.00000000000E+00 0.  1.
         11    1    1    2    0    0  0.54338952840E+02 -0.26511122972E+02  0.20964301700E+02  0.63992682259E+02  0.00000000000E+00 0. -1.
</event>
<event>
 7    1  0.2820496E-009  0.2316742E+03  0.7561462E-02  0.1125467E+00
          1   -1    0    0  501    0  0.00000000000E+00  0.00000000000E+00  0.31267873866E+04  0.31267873866E+04  0.00000000000E+00 0. -1.
         -1   -1    0    0    0  501 -0.00000000000E+00 -0.00000000000E+00 -0.36367228055E+02  0.36367228055E+02  0.00000000000E+00 0.  1.
         25    2    1    2    0    0  0.18540731063E+03  0.12840026475E+03  0.26271490926E+04  0.26397773897E+04  0.12509921360E+03 0.  0.
          5    1    3    3  502    0  0.10424293964E+03  0.11501346956E+03  0.11640072714E+04  0.11743189894E+04  0.41800000000E+01 0. -1.
         -5    1    3    3    0  502  0.81164370990E+02  0.13386795197E+02  0.14631418213E+04  0.14654584003E+04  0.41800000000E+01 0. -1.
        -11    1    1    2    0    0 -0.38893298432E+02 -0.31399549481E+02  0.36637095662E+02  0.61974971957E+02  0.00000000000E+00 0.  1.
         11    1    1    2    0    0 -0.14651401220E+03 -0.97000715272E+02  0.42663397029E+03  0.46140225307E+03  0.00000000000E+00 0. -1.
</event>
<event>
 7    1  0.2820496E-009  0.1006476E+03  0.7561462E-02  0.1278940E+00
         -2   -1    0    0    0  501 -0.00000000000E+00  0.00000000000E+00  0.40162058027E+02  0.40162058027E+02  0.00000000000E+00 0.  1.
          2   -1    0    0  501    0  0.00000000000E+00 -0.00000000000E+00 -0.46733187937E+03  0.46733187937E+03  0.00000000000E+00 0. -1.
         25    2    1    2    0    0 -0.73233398923E+01 -0.52794796134E+02 -0.35362642336E+03  0.37886743363E+03  0.12509181892E+03 0.  0.
          5    1    3    3  502    0  0.39059023153E+02 -0.44104109761E+02 -0.30616051925E+03  0.31180525290E+03  0.41800000000E+01 0. -1.
         -5    1    3    3    0  502 -0.46382363045E+02 -0.86906863736E+01 -0.47465904108E+02  0.67062180729E+02  0.41800000000E+01 0. -1.
        -11    1    1    2    0    0  0.36981687521E+02  0.53682555203E+02 -0.74431028552E+02  0.98941598715E+02  0.00000000000E+00 0. -1.
         11    1    1    2    0    0 -0.29658347628E+02 -0.88775906915E+00  0.88763056586E+00  0.29684905057E+02  0.00000000000E+00 0.  1.
</event>
<event>
 7    1  0.2820496E-009  0.1006749E+03  0.7561462E-02  0.1278883E+00
         -2   -1    0    0    0  501 -0.00000000000E+00  0.00000000000E+00  0.15062602293E+02  0.15062602293E+02  0.00000000000E+00 0.  1.
          2   -1    0    0  501    0  0.00000000000E+00 -0.00000000000E+00 -0.11383251710E+04  0.11383251710E+04  0.00000000000E+00 0. -1.
         25    2    1    2    0    0  0.62056062656E+02  0.16561736506E+02 -0.77771520172E+03  0.79032937603E+03  0.12511731139E+03 0.  0.
          5    1    3    3  502    0  0.75542824716E+02  0.19685001260E+01 -0.22788247022E+03  0.24012181490E+03  0.41800000000E+01 0.  1.
         -5    1    3    3    0  502 -0.13486762059E+02  0.14593236380E+02 -0.54983273150E+03  0.55020756113E+03  0.41800000000E+01 0.  1.
        -11    1    1    2    0    0  0.15282867406E+02 -0.23151432945E+02 -0.15229367703E+03  0.15479960900E+03  0.00000000000E+00 0. -1.
         11    1    1    2    0    0 -0.77338930062E+02  0.65896964399E+01 -0.19325368991E+03  0.20825878821E+03  0.00000000000E+00 0.  1.
</event>
<event>
 7    1  0.2820496E-009  0.2118435E+03  0.7561462E-02  0.1140114E+00
         -2   -1    0    0    0  501 -0.00000000000E+00  0.00000000000E+00  0.31658765310E+02  0.31658765310E+02  0.00000000000E+00 0. -1.
          2   -1    0    0  501    0  0.00000000000E+00 -0.00000000000E+00 -0.23342879309E+04  0.23342879309E+04  0.00000000000E+00 0.  1.
         25    2    1    2    0    0  0.20643215557E+03 -0.44019589045E+02 -0.17149153839E+04  0.17323787844E+04  0.12509804128E+03 0.  0.
          5    1    3    3  502    0  0.18640620801E+03 -0.40196957603E+02 -0.10529345650E+04  0.10700709043E+04  0.41800000000E+01 0.  1.
         -5    1    3    3    0  502  0.20025947556E+02 -0.38226314425E+01 -0.66198081890E+03  0.66230788013E+03  0.41800000000E+01 0.  1.
        -11    1    1    2    0    0 -0.16926085478E+03  0.44316089393E+02 -0.56137657143E+03  0.58801089079E+03  0.00000000000E+00 0.  1.
         11    1    1    2    0    0 -0.37171300790E+02 -0.29650034761E+00 -0.26337210341E+02  0.45557021012E+02  0.00000000000E+00 0. -1.
</event>
<event>
 7    1  0.2820496E-009  0.1157804E+03  0.7561462E-02  0.1250225E+00
          1   -1    0    0  501    0  0.00000000000E+00  0.00000000000E+00  0.84115074036E+02  0.84115074036E+02  0.00000000000E+00 0. -1.
         -1   -1    0    0    0  501 -0.00000000000E+00 -0.00000000000E+00 -0.37060649214E+03  0.37060649214E+03  0.00000000000E+00 0.  1.
         25    2    1    2    0    0  0.58426759539E+01 -0.10158801300E+03 -0.29781334955E+02  0.16397508752E+03  0.12508653072E+03 0.  0.
          5    1    3    3  502    0 -0.34991266947E+02 -0.37502645908E+02  0.36469626237E+02  0.63074109193E+02  0.41800000000E+01 0. -1.
         -5    1    3    3    0  502  0.40833942901E+02 -0.64085367091E+02 -0.66250961192E+02  0.10090097832E+03  0.41800000000E+01 0. -1.
        -11    1    1    2    0    0  0.81854696689E+01  0.40159845110E+02 -0.19644649734E+02  0.45450273224E+02  0.00000000000E+00 0. -1.
         11    1    1    2    0    0 -0.14028145623E+02  0.61428167888E+02 -0.23706543342E+03  0.24529620543E+03  0.00000000000E+00 0.  1.
</event>
<event>
 7    1  0.2820496E-009  0.1074934E+03  0.7561462E-02  0.1265283E+00
         -2   -1    0    0    0  501 -0.00000000000E+00  0.00000000000E+00  0.41154057277E+02  0.41154057277E+02  0.00000000000E+00 0.  1.
          2   -1    0    0  501    0  0.00000000000E+00 -0.00000000000E+00 -0.33497155607E+03  0.33497155607E+03  0.00000000000E+00 0. -1.
         25    2    1    2    0    0 -0.22992923523E+01 -0.21882938780E+02 -0.23093458771E+03  0.26355779172E+03  0.12509107092E+03 0.  0.
          5    1    3    3  502    0 -0.17499097920E+02 -0.69454119232E+02 -0.97733787067E+02  0.12124132398E+03  0.41800000000E+01 0.  1.
         -5    1    3    3    0  502  0.15199805567E+02  0.47571180452E+02 -0.13320080064E+03  0.14231646774E+03  0.41800000000E+01 0.  1.
        -11    1    1    2    0    0  0.13324489132E+02 -0.33815478384E+02 -0.20633558020E+02  0.41794405194E+02  0.00000000000E+00 0.  1.
         11    1    1    2    0    0 -0.11025196780E+02  0.55698417164E+02 -0.42249353062E+02  0.70773416427E+02  0.00000000000E+00 0. -1.
</event>
<event>
 7    1  0.2820496E-009  0.1706586E+03  0.7561462E-02  0.1177163E+00
          1   -1    0    0  501    0  0.00000000000E+00  0.00000000000E+00  0.33218128574E+03  0.33218128574E+03  0.00000000000E+00 0. -1.
         -1   -1    0    0    0  501 -0.00000000000E+00 -0.00000000000E+00 -0.90552049166E+02  0.90552049166E+02  0.00000000000E+00 0.  1.
         25    2    1    2    0    0 -0.62144050724E+02  0.12013519211E+03  0.11703405302E+03  0.21826422153E+03  0.12509177995E+03 0.  0.
          5    1    3    3  502    0  0.25427255046E+02  0.78607046635E+02  0.77996670225E+02  0.11369505726E+03  0.41800000000E+01 0. -1.
         -5    1    3    3    0  502 -0.87571305770E+02  0.41528145479E+02  0.39037382791E+02  0.10456916427E+03  0.41800000000E+01 0. -1.
        -11    1    1    2    0    0  0.81948492314E+02 -0.11484760602E+03  0.10292346871E+03  0.17463896590E+03  0.00000000000E+00 0. -1.
         11    1    1    2    0    0 -0.19804441590E+02 -0.52875860958E+01  0.21671714843E+02  0.29830147463E+02  0.00000000000E+00 0.  1.
</event>
<event>
 7    1  0.2820496E-009  0.1130149E+03  0.7561462E-02  0.1255087E+00
         -3   -1    0    0    0  501 -0.00000000000E+00  0.00000000000E+00  0.93638727954E+02  0.93638727954E+02  0.00000000000E+00 0.  1.
          3   -1    0    0  501    0  0.00000000000E+00 -0.00000000000E+00 -0.18621540285E+03  0.18621540285E+03  0.00000000000E+00 0. -1.
         25    2    1    2    0    0 -0.69895147688E+02  0.16193077210E+02 -0.75092560811E+02  0.16258595064E+03  0.12509097184E+03 0.  0.
          5    1    3    3  502    0 -0.74802334744E+02 -0.16535280405E+02  0.39184740334E+01  0.76822077686E+02  0.41800000000E+01 0. -1.
         -5    1    3    3    0  502  0.49071870566E+01  0.32728357616E+02 -0.79011034845E+02  0.85763872955E+02  0.41800000000E+01 0. -1.
        -11    1    1    2    0    0  0.23393795650E+02 -0.52157990981E+02 -0.79779531901E+01  0.57718051207E+02  0.00000000000E+00 0. -1.
         11    1    1    2    0    0  0.46501352038E+02  0.35964913771E+02 -0.95061608967E+01  0.59550128958E+02  0.00000000000E+00 0.  1.
</event>
<event>
 7    1  0.2820496E-009  0.1288269E+03  0.7561462E-02  0.1229207E+00
         -2   -1    0    0    0  501 -0.00000000000E+00  0.00000000000E+00  0.50846033890E+02  0.50846033890E+02  0.00000000000E+00 0.  1.
          2   -1    0    0  501    0  0.00000000000E+00 -0.00000000000E+00 -0.34140818554E+03  0.34140818554E+03  0.00000000000E+00 0. -1.
         25    2    1    2    0    0 -0.68513481575E+02  0.10892197401E+02 -0.12939744662E+03  0.19287984237E+03  0.12508476039E+03 0.  0.
          5    1    3    3  502    0  0.36086471507E+02 -0.22940754355E+01 -0.44247909084E+02  0.57296126102E+02  0.41800000000E+01 0.  1.
         -5    1    3    3    0  502 -0.10459995308E+03  0.13186272836E+02 -0.85149537534E+02  0.13558371627E+03  0.41800000000E+01 0.  1.
        -11    1    1    2    0    0  0.55274546536E+02 -0.49951424403E+02 -0.11897012645E+03  0.14037204594E+03  0.00000000000E+00 0. -1.
         11    1    1    2    0    0  0.13238935038E+02  0.39059227002E+02 -0.42194578580E+02  0.59002331111E+02  0.00000000000E+00 0.  1.
</event>
<event>
 7    1  0.2820496E-009  0.1237182E+03  0.7561462E-02  0.1237086E+00
         -3   -1    0    0    0  501 -0.00000000000E+00  0.00000000000E+00  0.22121790567E+02  0.22121790567E+02  0.00000000000E+00 0.  1.
          3   -1    0    0  501    0  0.00000000000E+00 -0.00000000000E+00 -0.77170504099E+03  0.77170504099E+03  0.00000000000E+00 0. -1.
         25    2    1    2    0    0 -0.41363894932E+02  0.57881083029E+02 -0.44488139815E+03  0.46757600462E+03  0.12508665035E+03 0.  0.
          5    1    3    3  502    0 -0.52315406726E+02 -0.17047742748E+02 -0.28904197297E+03  0.29426223314E+03  0.41800000000E+01 0.  1.
         -5    1    3    3    0  502  0.10951511794E+02  0.74928825777E+02 -0.15583942518E+03  0.17331377148E+03  0.41800000000E+01 0.  1.
        -11    1    1    2    0    0  0.34487213196E+02 -0.83260390572E+02 -0.22784279499E+03  0.24501836613E+03  0.00000000000E+00 0.  1.
         11    1    1    2    0    0  0.68766817363E+01  0.25379307544E+02 -0.76859057288E+02  0.81232460816E+02  0.00000000000E+00 0. -1.
</event>
<event>
 7    1  0.2820496E-009  0.1125029E+03  0.7561462E-02  0.1256004E+00
         -2   -1    0    0    0  501 -0.00000000000E+00  0.00000000000E+00  0.18614178512E+03  0.18614178512E+03  0.00000000000E+00 0.  1.
          2   -1    0    0  501    0  0.00000000000E+00 -0.00000000000E+00 -0.12204704379E+03  0.12204704379E+03  0.00000000000E+00 0. -1.
         25    2    1    2    0    0  0.31663452357E+02  0.98292072853E+02  0.22244945848E+02  0.16372904276E+03  0.12509378892E+03 0.  0.
          5    1    3    3  502    0  0.10313588190E+02  0.69166922264E+02 -0.47801521493E+02  0.84810913766E+02  0.41800000000E+01 0. -1.
         -5    1    3    3    0  502  0.21349864167E+02  0.29125150589E+02  0.70046467341E+02  0.78918128993E+02  0.41800000000E+01 0. -1.
        -11    1    1    2    0    0 -0.21640863374E+02 -0.19440335092E+01  0.42340990242E+02  0.47590605045E+02  0.00000000000E+00 0.  1.
         11    1    1    2    0    0 -0.10022588983E+02 -0.96348039344E+02 -0.49119476712E+00  0.96869181103E+02  0.00000000000E+00 0. -1.
</event>
<event>
 7    1  0.2820496E-009  0.1253209E+03  0.7561462E-02  0.1234569E+00
         -1   -1    0    0    0  501 -0.00000000000E+00  0.00000000000E+00  0.78500638724E+02  0.78500638724E+02  0.00000000000E+00 0.  1.
          1   -1    0    0  501    0  0.00000000000E+00 -0.00000000000E+00 -0.37578453520E+03  0.37578453520E+03  0.00000000000E+00 0. -1.
         25    2    1    2    0    0 -0.95684343733E+01  0.67442151208E+02 -0.30769548043E+03  0.33906305083E+03  0.12508894861E+03 0.  0.
          5    1    3    3  502    0  0.52786549533E+02  0.59098195156E+02 -0.17509734689E+03  0.19223831504E+03  0.41800000000E+01 0. -1.
         -5    1    3    3    0  502 -0.62354983907E+02  0.83439560520E+01 -0.13259813354E+03  0.14682473578E+03  0.41800000000E+01 0. -1.
        -11    1    1    2    0    0 -0.89607595140E+01 -0.83344191094E+02  0.24112371266E+02  0.87223596854E+02  0.00000000000E+00 0.  1.
         11    1    1    2    0    0  0.18529193887E+02  0.15902039885E+02 -0.13700787309E+02  0.27998526238E+02  0.00000000000E+00 0. -1.
</event>
<event>
 7    1  0.2820496E-009  0.6936535E+02  0.7561462E-02  0.1362265E+00
          1   -1    0    0  501    0  0.00000000000E+00  0.00000000000E+00  0.64436450418E+02  0.64436450418E+02  0.00000000000E+00 0. -1.
         -1   -1    0    0    0  501 -0.00000000000E+00 -0.00000000000E+00 -0.24108568618E+03  0.24108568618E+03  0.00000000000E+00 0.  1.
         25    2    1    2    0    0  0.18723950277E+02 -0.24091770190E+02 -0.16177654831E+03  0.20676227264E+03  0.12509191061E+03 0.  0.
          5    1    3    3  502    0 -0.84802491372E+01 -0.81728123060E+01 -0.17269327668E+03  0.17314488065E+03  0.41800000000E+01 0.  1.
         -5    1    3    3    0  502  0.27204199414E+02 -0.15918957884E+02  0.10916728368E+02  0.33617391989E+02  0.41800000000E+01 0.  1.
        -11    1    1    2    0    0  0.30467305303E+02 -0.12701550143E+02 -0.17330241809E+02  0.37281675789E+02  0.00000000000E+00 0.  1.
         11    1    1    2    0    0 -0.49191255580E+02  0.36793320333E+02  0.24575543587E+01  0.61478188165E+02  0.00000000000E+00 0. -1.
</event>
<event>
 7    1  0.2820496E-009  0.1488589E+03  0.7561462E-02  0.1201882E+00
          1   -1    0    0  501    0  0.00000000000E+00  0.00000000000E+00  0.30732536064E+02  0.30732536064E+02  0.00000000000E+00 0. -1.
         -1   -1    0    0    0  501 -0.00000000000E+00 -0.00000000000E+00 -0.10622402709E+04  0.10622402709E+04  0.00000000000E+00 0.  1.
         25    2    1    2    0    0 -0.78999198956E+02  0.10719515128E+03 -0.37801476823E+03  0.41985077512E+03  0.12509130456E+03 0.  0.
          5    1    3    3  502    0 -0.32601587109E+02  0.13506428000E+02 -0.95189515053E+01  0.36788176322E+02  0.41800000000E+01 0. -1.
         -5    1    3    3    0  502 -0.46397611847E+02  0.93688723279E+02 -0.36849581673E+03  0.38306259880E+03  0.41800000000E+01 0. -1.
        -11    1    1    2    0    0  0.28562884178E+02  0.97595932857E+01 -0.76517745380E+02  0.82256023316E+02  0.00000000000E+00 0. -1.
         11    1    1    2    0    0  0.50436314778E+02 -0.11695474456E+03 -0.57697522122E+03  0.59086600852E+03  0.00000000000E+00 0.  1.
</event>
<event>
 7    1  0.2820496E-009  0.7089183E+02  0.7561462E-02  0.1357086E+00
          2   -1    0    0  501    0  0.00000000000E+00  0.00000000000E+00  0.18815752552E+03  0.18815752552E+03  0.00000000000E+00 0.  1.
         -2   -1    0    0    0  501 -0.00000000000E+00 -0.00000000000E+00 -0.16336442281E+03  0.16336442281E+03  0.00000000000E+00 0. -1.
         25    2    1    2    0    0  0.40102927027E+02 -0.24648216558E+02  0.14373083900E+03  0.19627245585E+03  0.12509413858E+03 0.  0.
          5    1    3    3  502    0 -0.28273751642E+01 -0.46053249215E+02  0.14057975380E+03  0.14801701048E+03  0.41800000000E+01 0.  1.
         -5    1    3    3    0  502  0.42930302191E+02  0.21405032657E+02  0.31510852031E+01  0.48255445363E+02  0.41800000000E+01 0.  1.
        -11    1    1    2    0    0 -0.20049544313E+02  0.15053582531E+02  0.80485806893E+01  0.26332000025E+02  0.00000000000E+00 0.  1.
         11    1    1    2    0    0 -0.20053382713E+02  0.95946340263E+01 -0.12698631698E+03  0.12891749245E+03  0.00000000000E+00 0. -1.
</event>
<event>
 7    1  0.2820496E-009  0.1905969E+03  0.7561462E-02  0.1157924E+00
          1   -1    0    0  501    0  0.00000000000E+00  0.00000000000E+00  0.31235972234E+03  0.31235972234E+03  0.00000000000E+00 0. -1.
         -1   -1    0    0    0  501 -0.00000000000E+00 -0.00000000000E+00 -0.15456069363E+03  0.15456069363E+03  0.00000000000E+00 0.  1.
         25    2    1    2    0    0 -0.13517339160E+03  0.10862493308E+03  0.16792638541E+03  0.27187794086E+03  0.12508845642E+03 0.  0.
          5    1    3    3  502    0 -0.50300073148E+00  0.53545102372E+02  0.58411082113E+01  0.54027048253E+02  0.41800000000E+01 0.  1.
         -5    1    3    3    0  502 -0.13467039087E+03  0.55079830703E+02  0.16208527720E+03  0.21785089261E+03  0.41800000000E+01 0.  1.
        -11    1    1    2    0    0  0.23651536120E+02 -0.51394124424E+02 -0.35990423266E+02  0.67052678940E+02  0.00000000000E+00 0.  1.
         11    1    1    2    0    0  0.11152185548E+03 -0.57230808651E+02  0.25863066573E+02  0.12798979616E+03  0.00000000000E+00 0. -1.
</event>
<event>
 7    1  0.2820496E-009  0.1119806E+03  0.7561462E-02  0.1256946E+00
         -1   -1    0    0    0  501 -0.00000000000E+00  0.00000000000E+00  0.35736888093E+02  0.35736888093E+02  0.00000000000E+00 0.  1.
          1   -1    0    0  501    0  0.00000000000E+00 -0.00000000000E+00 -0.39920065842E+03  0.39920065842E+03  0.00000000000E+00 0. -1.
         25    2    1    2    0    0  0.28397823975E+02  0.15839947626E+02 -0.13251569332E+03  0.18511165955E+03  0.12509427316E+03 0.  0.
          5    1    3    3  502    0 -0.10259102250E+02  0.65079963811E+02 -0.76016148643E+02  0.10068057471E+03  0.41800000000E+01 0. -1.
         -5    1    3    3    0  502  0.38656926225E+02 -0.49240016185E+02 -0.56499544679E+02  0.84431084844E+02  0.41800000000E+01 0. -1.
        -11    1    1    2    0    0  0.21225679472E+02 -0.35879040769E+02 -0.10567306075E+03  0.11359855107E+03  0.00000000000E+00 0.  1.
         11    1    1    2    0    0 -0.49623503447E+02  0.20039093143E+02 -0.12527501625E+03  0.13622733589E+03  0.00000000000E+00 0. -1.
</event>
<event>
 7    1  0.2820496E-009  0.1223708E+03  0.7561462E-02  0.1239236E+00
         -1   -1    0    0    0  501 -0.00000000000E+00  0.00000000000E+00  0.80513380372E+02  0.80513380372E+02  0.00000000000E+00 0.  1.
          1   -1    0    0  501    0  0.00000000000E+00 -0.00000000000E+00 -0.24597566699E+03  0.24597566699E+03  0.00000000000E+00 0. -1.
         25    2    1    2    0    0 -0.52777726010E+02 -0.52417488214E+02 -0.14315548576E+03  0.20414530093E+03  0.12509488142E+03 0.  0.
          5    1    3    3  502    0  0.31294310649E+02  0.17499926294E+02 -0.36825710652E+02  0.51567302278E+02  0.41800000000E+01 0.  1.
         -5    1    3    3    0  502 -0.84072036658E+02 -0.69917414508E+02 -0.10632977511E+03  0.15257799865E+03  0.41800000000E+01 0.  1.
        -11    1    1    2    0    0  0.28781224198E+02 -0.11462191878E+02  0.24582969946E+02  0.39548237892E+02  0.00000000000E+00 0.  1.
         11    1    1    2    0    0  0.23996501812E+02  0.63879680092E+02 -0.46889770812E+02  0.82795508542E+02  0.00000000000E+00 0. -1.
</event>
<event>
 7    1  0.2820496E-009  0.3921781E+03  0.7561462E-02  0.1046522E+00
          1   -1    0    0  501    0  0.00000000000E+00  0.00000000000E+00  0.19808001357E+03  0.19808001357E+03  0.00000000000E+00 0.  1.
         -1   -1    0    0    0  501 -0.00000000000E+00 -0.00000000000E+00 -0.80436443696E+03  0.80436443696E+03  0.00000000000E+00 0. -1.
         25    2    1    2    0    0  0.67316396645E+02 -0.37777203668E+03 -0.31229435291E+03  0.51031236194E+03  0.12509090671E+03 0.  0.
          5    1    3    3  502    0  0.94141874995E+02 -0.20579695248E+03 -0.20773273971E+03  0.30722213759E+03  0.41800000000E+01 0.  1.
         -5    1    3    3    0  502 -0.26825478350E+02 -0.17197508420E+03 -0.10456161319E+03  0.20309022435E+03  0.41800000000E+01 0.  1.
        -11    1    1    2    0    0 -0.33628239693E+02  0.22194710552E+03 -0.22685994747E+03  0.31915014009E+03  0.00000000000E+00 0. -1.
         11    1    1    2    0    0 -0.33688156952E+02  0.15582493115E+03 -0.67130123024E+02  0.17298194849E+03  0.00000000000E+00 0.  1.
</event>
<event>
 7    1  0.2820496E-009  0.1537866E+03  0.7561462E-02  0.1195896E+00
         -1   -1    0    0    0  501 -0.00000000000E+00  0.00000000000E+00  0.30501255372E+02  0.30501255372E+02  0.00000000000E+00 0.  1.
          1   -1    0    0  501    0  0.00000000000E+00 -0.00000000000E+00 -0.12662536999E+04  0.12662536999E+04  0.00000000000E+00 0. -1.
         25    2    1    2    0    0 -0.81480208984E+02 -0.84868293735E+02 -0.10247578228E+04  0.10390466292E+04  0.12509056998E+03 0.  0.
          5    1    3    3  502    0 -0.84656327853E+02 -0.10773223965E+03 -0.96760717116E+03  0.97726866285E+03  0.41800000000E+01 0.  1.
         -5    1    3    3    0  502  0.31761188699E+01  0.22863945911E+02 -0.57150651588E+02  0.61777966385E+02  0.41800000000E+01 0.  1.
        -11    1    1    2    0    0  0.67384111883E+02  0.68234698445E+01 -0.11169517893E+03  0.13062538525E+03  0.00000000000E+00 0. -1.
         11    1    1    2    0    0  0.14096097101E+02  0.78044823891E+02 -0.99299442841E+02  0.12708294078E+03  0.00000000000E+00 0.  1.
</event>
<event>
 7    1  0.2820496E-009  0.1873246E+03  0.7561462E-02  0.1160897E+00
         -2   -1    0    0    0  501 -0.00000000000E+00  0.00000000000E+00  0.51478350466E+02  0.51478350466E+02  0.00000000000E+00 0. -1.
          2   -1    0    0  501    0  0.00000000000E+00 -0.00000000000E+00 -0.89813744115E+03  0.89813744115E+03  0.00000000000E+00 0.  1.
         25    2    1    2    0    0 -0.15632718364E+03 -0.73174796221E+02 -0.30483386484E+03  0.37196961813E+03  0.12507986452E+03 0.  0.
          5    1    3    3  502    0 -0.15925710410E+03 -0.75578628730E+02 -0.19858837335E+03  0.26557441285E+03  0.41800000000E+01 0.  1.
         -5    1    3    3    0  502  0.29299204659E+01  0.24038325088E+01 -0.10624549149E+03  0.10639520528E+03  0.41800000000E+01 0.  1.
        -11    1    1    2    0    0  0.12710627276E+02 -0.18388921410E+02 -0.25285385460E+02  0.33750010285E+02  0.00000000000E+00 0. -1.
         11    1    1    2    0    0  0.14361655636E+03  0.91563717631E+02 -0.51653984038E+03  0.54389616320E+03  0.00000000000E+00 0.  1.
</event>
<event>
 7    1  0.2820496E-009  0.1223985E+03  0.7561462E-02  0.1239192E+00
         -1   -1    0    0    0  501 -0.00000000000E+00  0.00000000000E+00  0.33337301538E+02  0.33337301538E+02  0.00000000000E+00 0.  1.
          1   -1    0    0  501    0  0.00000000000E+00 -0.00000000000E+00 -0.51947801976E+03  0.51947801976E+03  0.00000000000E+00 0. -1.
         25    2    1    2    0    0  0.71135012980E+01 -0.71770040007E+02 -0.33017982289E+03  0.36036993149E+03  0.12508489732E+03 0.  0.
          5    1    3    3  502    0  0.54829619551E+02 -0.63359642864E+02 -0.13273981269E+03  0.15702885657E+03  0.41800000000E+01 0. -1.
         -5    1    3    3    0  502 -0.47716118253E+02 -0.84103971422E+01 -0.19744001020E+03  0.20334107492E+03  0.41800000000E+01 0. -1.
        -11    1    1    2    0    0  0.24444600925E+02  0.76545544519E+02 -0.10338497875E+03  0.13093972939E+03  0.00000000000E+00 0.  1.
         11    1    1    2    0    0 -0.31558102223E+02 -0.47755045128E+01 -0.52575916581E+02  0.61505660419E+02  0.00000000000E+00 0. -1.
</event>
<event>
 7    1  0.2820496E-009  0.1122853E+03  0.7561462E-02  0.1256396E+00
         -1   -1    0    0    0  501 -0.00000000000E+00  0.00000000000E+00  0.86918684611E+02  0.86918684611E+02  0.00000000000E+00 0.  1.
          1   -1    0    0  501    0  0.00000000000E+00 -0.00000000000E+00 -0.19159877801E+03  0.19159877801E+03  0.00000000000E+00 0. -1.
         25    2    1    2    0    0  0.66202727540E+02  0.11267798007E+02 -0.45967557652E+02  0.14923468308E+03  0.12509280503E+03 0.  0.
          5    1    3    3  502    0 -0.20755431840E+02 -0.35449966138E+02 -0.24880620656E+02  0.48207942647E+02  0.41800000000E+01 0.  1.
         -5    1    3    3    0  502  0.86958159381E+02  0.46717764145E+02 -0.21086936996E+02  0.10102674043E+03  0.41800000000E+01 0.  1.
        -11    1    1    2    0    0 -0.22642785538E+02  0.20516039435E+02  0.18039039493E+02  0.35482538760E+02  0.00000000000E+00 0.  1.
         11    1    1    2    0    0 -0.43559942003E+02 -0.31783837443E+02 -0.76751575239E+02  0.93800240786E+02  0.00000000000E+00 0. -1.
</event>
<event>
 7    1  0.2820496E-009  0.1122927E+03  0.7561462E-02  0.1256382E+00
         -2   -1    0    0    0  501 -0.00000000000E+00  0.00000000000E+00  0.17760908485E+02  0.17760908485E+02  0.00000000000E+00 0.  1.
          2   -1    0    0  501    0  0.00000000000E+00 -0.00000000000E+00 -0.72395450052E+03  0.72395450052E+03  0.00000000000E+00 0. -1.
         25    2    1    2    0    0  0.20772281306E+02  0.25119539582E+02 -0.40634388570E+03  0.42640960839E+03  0.12508925511E+03 0.  0.
          5    1    3    3  502    0  0.41493646636E+02  0.68956465026E+02 -0.25619504477E+03  0.26857045657E+03  0.41800000000E+01 0.  1.
         -5    1    3    3    0  502 -0.20721365330E+02 -0.43836925444E+02 -0.15014884094E+03  0.15783915182E+03  0.41800000000E+01 0.  1.
        -11    1    1    2    0    0  0.23075791864E+02  0.21352009893E+02 -0.69900258579E+02  0.76644938816E+02  0.00000000000E+00 0.  1.
         11    1    1    2    0    0 -0.43848073170E+02 -0.46471549476E+02 -0.22994944775E+03  0.23866086179E+03  0.00000000000E+00 0. -1.
</event>
<event>
 7    1  0.2820496E-009  0.1071318E+03  0.7561462E-02  0.1265976E+00
         -2   -1    0    0    0  501 -0.00000000000E+00  0.00000000000E+00  0.76902471595E+02  0.76902471595E+02  0.00000000000E+00 0.  1.
          2   -1    0    0  501    0  0.00000000000E+00 -0.00000000000E+00 -0.19789965550E+03  0.19789965550E+03  0.00000000000E+00 0. -1.
         25    2    1    2    0    0  0.35568797350E+02 -0.62243035457E+01 -0.12108041583E+02  0.13079895919E+03  0.12513145789E+03 0.  0.
          5    1    3    3  502    0  0.20792094860E+02  0.58458003398E+02 -0.15978326737E+02  0.64206142193E+02  0.41800000000E+01 0. -1.
         -5    1    3    3    0  502  0.14776702489E+02 -0.64682306944E+02  0.38702851538E+01  0.66592816994E+02  0.41800000000E+01 0. -1.
        -11    1    1    2    0    0 -0.52423683139E+02 -0.18570699184E+02 -0.96874678147E+02  0.11170414803E+03  0.00000000000E+00 0. -1.
         11    1    1    2    0    0  0.16854885790E+02  0.24795002729E+02 -0.12014464174E+02  0.32299019872E+02  0.00000000000E+00 0.  1.
</event>
<event>
 7    1  0.2820496E-009  0.1664539E+03  0.7561462E-02  0.1181597E+00
         -1   -1    0    0    0  501 -0.00000000000E+00  0.00000000000E+00  0.41742231389E+02  0.41742231389E+02  0.00000000000E+00 0.  1.
          1   -1    0    0  501    0  0.00000000000E+00 -0.00000000000E+00 -0.68110606468E+03  0.68110606468E+03  0.00000000000E+00 0. -1.
         25    2    1    2    0    0 -0.22456663305E+02  0.12763195706E+03 -0.35980006617E+03  0.40236558011E+03  0.12509098389E+03 0.  0.
          5    1    3    3  502    0  0.51077752209E+02  0.54166905395E+02 -0.12499615593E+03  0.14554896704E+03  0.41800000000E+01 0.  1.
         -5    1    3    3    0  502 -0.73534415514E+02  0.73465051665E+02 -0.23480391024E+03  0.25681661307E+03  0.41800000000E+01 0.  1.
        -11    1    1    2    0    0  0.27806425680E+02 -0.12695800977E+01 -0.31491799299E+02  0.42030257741E+02  0.00000000000E+00 0.  1.
         11    1    1    2    0    0 -0.53497623744E+01 -0.12636237696E+03 -0.24807196783E+03  0.27845245822E+03  0.00000000000E+00 0. -1.
</event>
<event>
 7    1  0.2820496E-009  0.1092743E+03  0.7561462E-02  0.1261920E+00
          1   -1    0    0  501    0  0.00000000000E+00  0.00000000000E+00  0.32638737475E+03  0.32638737475E+03  0.00000000000E+00 0.  1.
         -1   -1    0    0    0  501 -0.00000000000E+00 -0.00000000000E+00 -0.64205740727E+02  0.64205740727E+02  0.00000000000E+00 0. -1.
         25    2    1    2    0    0 -0.43697620945E+02 -0.89015175736E+01  0.28389189410E+02  0.13580444500E+03  0.12509269410E+03 0.  0.
          5    1    3    3  502    0 -0.41358480103E+02 -0.57901970373E+02  0.44467168882E+02  0.84011687032E+02  0.41800000000E+01 0.  1.
         -5    1    3    3    0  502 -0.23391408418E+01  0.49000452800E+02 -0.16077979471E+02  0.51792757972E+02  0.41800000000E+01 0.  1.
        -11    1    1    2    0    0  0.68736085278E+02 -0.58341409788E+01  0.13209509649E+03  0.14902282086E+03  0.00000000000E+00 0. -1.
         11    1    1    2    0    0 -0.25038464334E+02  0.14735658552E+02  0.10169734812E+03  0.10576584962E+03  0.00000000000E+00 0.  1.
</event>
<event>
 7    1  0.3312711E-009  0.1034117E+03  0.7561462E-02  0.1273281E+00
         -1   -1    0    0    0  501 -0.00000000000E+00  0.00000000000E+00  0.15136699285E+02  0.15136699285E+02  0.00000000000E+00 0.  1.
          1   -1    0    0  501    0  0.00000000000E+00 -0.00000000000E+00 -0.10575407786E+04  0.10575407786E+04  0.00000000000E+00 0. -1.
         25    2    1    2    0    0  0.22339488788E+02  0.54014534334E+02 -0.69859660571E+03  0.71211101368E+03  0.12509298785E+03 0.  0.
          5    1    3    3  502    0 -0.43465180036E+01  0.71183550555E+02 -0.65004738770E+03  0.65396106058E+03  0.41800000000E+01 0.  1.
         -5    1    3    3    0  502  0.26686006792E+02 -0.17169016221E+02 -0.48549218009E+02  0.58149953102E+02  0.41800000000E+01 0.  1.
        -11    1    1    2    0    0  0.30895233413E+02 -0.35394281449E+02 -0.10247045394E+03  0.11272739036E+03  0.00000000000E+00 0.  1.
         11    1    1    2    0    0 -0.53234722201E+02 -0.18620252885E+02 -0.24133701965E+03  0.24783907383E+03  0.00000000000E+00 0. -1.
</event>
<event>
 7    1  0.2820496E-009  0.1119212E+03  0.7561462E-02  0.1257053E+00
          2   -1    0    0  501    0  0.00000000000E+00  0.00000000000E+00  0.35494824825E+02  0.35494824825E+02  0.00000000000E+00 0. -1.
         -2   -1    0    0    0  501 -0.00000000000E+00 -0.00000000000E+00 -0.38186183140E+03  0.38186183140E+03  0.00000000000E+00 0.  1.
         25    2    1    2    0    0  0.18612135292E+02  0.29948640713E+02 -0.16679270866E+03  0.21144955922E+03  0.12509106991E+03 0.  0.
          5    1    3    3  502    0 -0.36155465817E+02  0.57785615339E+02 -0.91742331949E+02  0.11437011375E+03  0.41800000000E+01 0.  1.
         -5    1    3    3    0  502  0.54767601109E+02 -0.27836974626E+02 -0.75050376711E+02  0.97079445466E+02  0.41800000000E+01 0.  1.
        -11    1    1    2    0    0 -0.61274642330E+01  0.31080516574E+02 -0.99712097308E+02  0.10462335627E+03  0.00000000000E+00 0.  1.
         11    1    1    2    0    0 -0.12484671059E+02 -0.61029157288E+02 -0.79862200608E+02  0.10128374073E+03  0.00000000000E+00 0. -1.
</event>
<event>
 7    1  0.2820496E-009  0.1630322E+03  0.7561462E-02  0.1185315E+00
         -1   -1    0    0    0  501 -0.00000000000E+00  0.00000000000E+00  0.19144770614E+03  0.19144770614E+03  0.00000000000E+00 0.  1.
          1   -1    0    0  501    0  0.00000000000E+00 -0.00000000000E+00 -0.20560958771E+03  0.20560958771E+03  0.00000000000E+00 0. -1.
         25    2    1    2    0    0 -0.16786901427E+02  0.12782691159E+03  0.97165846716E+02  0.20423446053E+03  0.12509593804E+03 0.  0.
          5    1    3    3  502    0 -0.49699321923E+02  0.13080169992E+02  0.21509293861E+01  0.51606320774E+02  0.41800000000E+01 0.  1.
         -5    1    3    3    0  502  0.32912420496E+02  0.11474674160E+03  0.95014917330E+02  0.15262813976E+03  0.41800000000E+01 0.  1.
        -11    1    1    2    0    0 -0.20425101589E+02 -0.11327230361E+03 -0.96510823794E+02  0.15020698602E+03  0.00000000000E+00 0.  1.
         11    1    1    2    0    0  0.37212003016E+02 -0.14554607982E+02 -0.14816904495E+02  0.42615847296E+02  0.00000000000E+00 0. -1.
</event>
<event>
 7    1  0.2820496E-009  0.1227214E+03  0.7561462E-02  0.1238674E+00
         -1   -1    0    0    0  501 -0.00000000000E+00  0.00000000000E+00  0.14138290929E+03  0.14138290929E+03  0.00000000000E+00 0.  1.
          1   -1    0    0  501    0  0.00000000000E+00 -0.00000000000E+00 -0.11803519341E+03  0.11803519341E+03  0.00000000000E+00 0. -1.
         25    2    1    2    0    0 -0.42194292072E+01 -0.63881723548E+02  0.42667898278E+02  0.14685712562E+03  0.12509111725E+03 0.  0.
          5    1    3    3  502    0 -0.27290710090E+02  0.31543774127E+02  0.17466914189E+02  0.45413192298E+02  0.41800000000E+01 0. -1.
         -5    1    3    3    0  502  0.23071280882E+02 -0.95425497675E+02  0.25200984088E+02  0.10144393332E+03  0.41800000000E+01 0. -1.
        -11    1    1    2    0    0 -0.39268030195E+02  0.38045991713E+02 -0.27693585547E+02  0.61289561601E+02  0.00000000000E+00 0.  1.
         11    1    1    2    0    0  0.43487459403E+02  0.25835731835E+02  0.83734031510E+01  0.51271415478E+02  0.00000000000E+00 0. -1.
</event>
<event>
 7    1  0.3141502E-009  0.1578747E+03  0.7561462E-02  0.1191117E+00
         -2   -1    0    0    0  501 -0.00000000000E+00  0.00000000000E+00  0.66112207380E+02  0.66112207380E+02  0.00000000000E+00 0.  1.
          2   -1    0    0  501    0  0.00000000000E+00 -0.00000000000E+00 -0.51565919699E+03  0.51565919699E+03  0.00000000000E+00 0. -1.
         25    2    1    2    0    0 -0.10331574877E+03 -0.10541794835E+03 -0.20605165200E+03  0.28265187784E+03  0.12509081891E+03 0.  0.
          5    1    3    3  502    0 -0.15496007356E+02  0.11171333461E+02  0.99360830402E+01  0.21934518036E+02  0.41800000000E+01 0. -1.
         -5    1    3    3    0  502 -0.87819741409E+02 -0.11658928182E+03 -0.21598773504E+03  0.26071735980E+03  0.41800000000E+01 0. -1.
        -11    1    1    2    0    0  0.39311429699E+02  0.59837171568E+02 -0.42377358793E+02  0.83196851770E+02  0.00000000000E+00 0.  1.
         11    1    1    2    0    0  0.64004319067E+02  0.45580776786E+02 -0.20111797882E+03  0.21592267476E+03  0.00000000000E+00 0. -1.
</event>
<event>
 7    1  0.2838666E-009  0.1121324E+03  0.7561462E-02  0.1256671E+00
         -2   -1    0    0    0  501 -0.00000000000E+00  0.00000000000E+00  0.56003133385E+02  0.56003133385E+02  0.00000000000E+00 0.  1.
          2   -1    0    0  501    0  0.00000000000E+00 -0.00000000000E+00 -0.38863281773E+03  0.38863281773E+03  0.00000000000E+00 0. -1.
         25    2    1    2    0    0 -0.57827741919E+02  0.53504403483E+02 -0.89322816436E+02  0.17271429187E+03  0.12507954330E+03 0.  0.
          5    1    3    3  502    0  0.93195839077E-01  0.67311779611E+02 -0.90678285601E+02  0.11300844322E+03  0.41800000000E+01 0. -1.
         -5    1    3    3    0  502 -0.57920937758E+02 -0.13807376127E+02  0.13554691651E+01  0.59705848650E+02  0.41800000000E+01 0. -1.
        -11    1    1    2    0    0 -0.10692504968E+02 -0.86523408552E+00  0.28004803502E+01  0.11086973559E+02  0.00000000000E+00 0.  1.
         11    1    1    2    0    0  0.68520246887E+02 -0.52639169398E+02 -0.24610734826E+03  0.26083468568E+03  0.00000000000E+00 0. -1.
</event>
<event>
 7    1  0.2820496E-009  0.9528853E+02  0.7561462E-02  0.1290528E+00
          2   -1    0    0  501    0  0.00000000000E+00  0.00000000000E+00  0.16664287400E+03  0.16664287400E+03  0.00000000000E+00 0. -1.
         -2   -1    0    0    0  501 -0.00000000000E+00 -0.00000000000E+00 -0.19476670310E+03  0.19476670310E+03  0.00000000000E+00 0.  1.
         25    2    1    2    0    0  0.61095713546E+02 -0.44475192109E+02  0.10966583527E+03  0.18271007103E+03  0.12508255555E+03 0.  0.
          5    1    3    3  502    0  0.64338660335E+01 -0.57975222745E+02  0.11184231285E+03  0.12620893958E+03  0.41800000000E+01 0. -1.
         -5    1    3    3    0  502  0.54661847513E+02  0.13500030636E+02 -0.21764775800E+01  0.56501131452E+02  0.41800000000E+01 0. -1.
        -11    1    1    2    0    0 -0.36628901535E+02  0.24712715994E+02 -0.14035297486E+03  0.14714398496E+03  0.00000000000E+00 0.  1.
         11    1    1    2    0    0 -0.24466812011E+02  0.19762476115E+02  0.25633104854E+01  0.31555521115E+02  0.00000000000E+00 0. -1.
</event>
<event>
 7    1  0.2820496E-009  0.6869558E+02  0.7561462E-02  0.1364586E+00
         -2   -1    0    0    0  501 -0.00000000000E+00  0.00000000000E+00  0.56335661722E+02  0.56335661722E+02  0.00000000000E+00 0.  1.
          2   -1    0    0  501    0  0.00000000000E+00 -0.00000000000E+00 -0.28923950770E+03  0.28923950770E+03  0.00000000000E+00 0. -1.
         25    2    1    2    0    0  0.79170423519E+01 -0.24951276354E+02 -0.20635306401E+03  0.24271587374E+03  0.12507662687E+03 0.  0.
          5    1    3    3  502    0 -0.44918147127E+01  0.48271206173E+01  0.16102057959E+02  0.17894864162E+02  0.41800000000E+01 0.  1.
         -5    1    3    3    0  502  0.12408857065E+02 -0.29778396972E+02 -0.22245512197E+03  0.22482100958E+03  0.41800000000E+01 0.  1.
        -11    1    1    2    0    0  0.29849964162E+02 -0.21793375423E+02  0.48643143867E+00  0.36962253562E+02  0.00000000000E+00 0.  1.
         11    1    1    2    0    0 -0.37767006514E+02  0.46744651777E+02 -0.27037213408E+02  0.65897042116E+02  0.00000000000E+00 0. -1.
</event>
<event>
 7    1  0.2820496E-009  0.1106706E+03  0.7561462E-02  0.1259333E+00
          2   -1    0    0  501    0  0.00000000000E+00  0.00000000000E+00  0.68498736561E+03  0.68498736561E+03  0.00000000000E+00 0. -1.
         -2   -1    0    0    0  501 -0.00000000000E+00 -0.00000000000E+00 -0.25456760745E+02  0.25456760745E+02  0.00000000000E+00 0.  1.
         25    2    1    2    0    0 -0.34670054334E+02  0.64761408410E+02  0.31708945035E+03  0.34869583290E+03  0.12508801572E+03 0.  0.
          5    1    3    3  502    0  0.16284622040E+02  0.62348036797E+02  0.65598578325E+02  0.92049511057E+02  0.41800000000E+01 0.  1.
         -5    1    3    3    0  502 -0.50954676374E+02  0.24133716124E+01  0.25149087202E+03  0.25664632185E+03  0.41800000000E+01 0.  1.
        -11    1    1    2    0    0  0.33683039567E+02 -0.81827411834E+02  0.32683284897E+03  0.33860003492E+03  0.00000000000E+00 0. -1.
         11    1    1    2    0    0  0.98701476695E+00  0.17066003424E+02  0.15608305551E+02  0.23148258535E+02  0.00000000000E+00 0.  1.
</event>
<event>
 7    1  0.2820496E-009  0.7926458E+02  0.7561462E-02  0.1331152E+00
         -1   -1    0    0    0  501 -0.00000000000E+00  0.00000000000E+00  0.40384293444E+02  0.40384293444E+02  0.00000000000E+00 0.  1.
          1   -1    0    0  501    0  0.00000000000E+00 -0.00000000000E+00 -0.37493367479E+03  0.37493367479E+03  0.00000000000E+00 0. -1.
         25    2    1    2    0    0 -0.51829945019E+02 -0.12520625606E+02 -0.23113719116E+03  0.26817197013E+03  0.12509474472E+03 0.  0.
          5    1    3    3  502    0 -0.77541096605E+01  0.27945874370E+02 -0.19697980815E+03  0.19914722024E+03  0.41800000000E+01 0.  1.
         -5    1    3    3    0  502 -0.44075835358E+02 -0.40466499976E+02 -0.34157383018E+02  0.69024749891E+02  0.41800000000E+01 0.  1.
        -11    1    1    2    0    0  0.11939230303E+02 -0.16177329818E+02  0.10791132269E+02  0.22818846507E+02  0.00000000000E+00 0.  1.
         11    1    1    2    0    0  0.39890714716E+02  0.28697955424E+02 -0.11420332245E+03  0.12432715160E+03  0.00000000000E+00 0. -1.
</event>
<event>
 7    1  0.2820496E-009  0.2357571E+03  0.7561462E-02  0.1122652E+00
         -1   -1    0    0    0  501 -0.00000000000E+00  0.00000000000E+00  0.11237040396E+03  0.11237040396E+03  0.00000000000E+00 0.  1.
          1   -1    0    0  501    0  0.00000000000E+00 -0.00000000000E+00 -0.76825108008E+03  0.76825108008E+03  0.00000000000E+00 0. -1.
         25    2    1    2    0    0  0.13387522429E+03 -0.17323189088E+03 -0.57918156061E+03  0.63169153218E+03  0.12510414850E+03 0.  0.
          5    1    3    3  502    0 -0.16196217579E+02 -0.63906511540E+02 -0.13712175025E+03  0.15220448900E+03  0.41800000000E+01 0.  1.
         -5    1    3    3    0  502  0.15007144187E+03 -0.10932537934E+03 -0.44205981037E+03  0.47948704317E+03  0.41800000000E+01 0.  1.
        -11    1    1    2    0    0 -0.78725041231E+02  0.86544057643E+02 -0.86819900151E+02  0.14568871299E+03  0.00000000000E+00 0. -1.
         11    1    1    2    0    0 -0.55150183058E+02  0.86687833235E+02  0.10120784650E+02  0.10324123887E+03  0.00000000000E+00 0.  1.
</event>
<event>
 7    1  0.2820496E-009  0.7152761E+02  0.7561462E-02  0.1354974E+00
         -1   -1    0    0    0  501 -0.00000000000E+00  0.00000000000E+00  0.49871851924E+02  0.49871851924E+02  0.00000000000E+00 0.  1.
          1   -1    0    0  501    0  0.00000000000E+00 -0.00000000000E+00 -0.27573194597E+03  0.27573194597E+03  0.00000000000E+00 0. -1.
         25    2    1    2    0    0 -0.33740215240E+01  0.23778582583E+02 -0.18011646038E+03  0.22060293781E+03  0.12508761673E+03 0.  0.
          5    1    3    3  502    0 -0.16401047440E+02 -0.81456277899E+01  0.13985368067E+02  0.23418123947E+02  0.41800000000E+01 0. -1.
         -5    1    3    3    0  502  0.13027025916E+02  0.31924210373E+02 -0.19410182845E+03  0.19718481386E+03  0.41800000000E+01 0. -1.
        -11    1    1    2    0    0 -0.34794691501E+02 -0.35403760206E+02 -0.41821628926E+02  0.64908747017E+02  0.00000000000E+00 0. -1.
         11    1    1    2    0    0  0.38168713025E+02  0.11625177622E+02 -0.39220047361E+01  0.40092113063E+02  0.00000000000E+00 0.  1.
</event>
<event>
 7    1  0.2820496E-009  0.1056696E+03  0.7561462E-02  0.1268806E+00
         -2   -1    0    0    0  501 -0.00000000000E+00  0.00000000000E+00  0.21321120376E+02  0.21321120376E+02  0.00000000000E+00 0.  1.
          2   -1    0    0  501    0  0.00000000000E+00 -0.00000000000E+00 -0.54660490941E+03  0.54660490941E+03  0.00000000000E+00 0. -1.
         25    2    1    2    0    0  0.16423120396E+02  0.46394098887E+01 -0.33412102527E+03  0.35717778650E+03  0.12509144108E+03 0.  0.
          5    1    3    3  502    0 -0.48536807871E+02  0.24585482957E+02 -0.10758982785E+03  0.12063710519E+03  0.41800000000E+01 0. -1.
         -5    1    3    3    0  502  0.64959928267E+02 -0.19946073068E+02 -0.22653119742E+03  0.23654068131E+03  0.41800000000E+01 0. -1.
        -11    1    1    2    0    0 -0.52417376698E+02 -0.53322375269E+01 -0.11638832747E+03  0.12775858839E+03  0.00000000000E+00 0. -1.
         11    1    1    2    0    0  0.35994256302E+02  0.69282763820E+00 -0.74774436293E+02  0.82989654896E+02  0.00000000000E+00 0.  1.
</event>
<event>
 7    1  0.2820496E-009  0.1071130E+03  0.7561462E-02  0.1266011E+00
          3   -1    0    0  501    0  0.00000000000E+00  0.00000000000E+00  0.65941998545E+02  0.65941998545E+02  0.00000000000E+00 0. -1.
         -3   -1    0    0    0  501 -0.00000000000E+00 -0.00000000000E+00 -0.25594504953E+03  0.25594504953E+03  0.00000000000E+00 0.  1.
         25    2    1    2    0    0  0.43096234302E+01  0.46615719634E+02 -0.17966096082E+03  0.22386751178E+03  0.12508798431E+03 0.  0.
          5    1    3    3  502    0  0.17649832946E+02 -0.38890074547E+02 -0.87018263599E+02  0.97023734730E+02  0.41800000000E+01 0.  1.
         -5    1    3    3    0  502 -0.13340209515E+02  0.85505794181E+02 -0.92642697217E+02  0.12684377705E+03  0.41800000000E+01 0.  1.
        -11    1    1    2    0    0  0.16704466813E+02  0.13189244425E+02 -0.25126027923E+02  0.32928903097E+02  0.00000000000E+00 0. -1.
         11    1    1    2    0    0 -0.21014090243E+02 -0.59804964059E+02  0.14783937754E+02  0.65090633199E+02  0.00000000000E+00 0.  1.
</event>
<event>
 7    1  0.2820496E-009  0.1296136E+03  0.7561462E-02  0.1228030E+00
          1   -1    0    0  501    0  0.00000000000E+00  0.00000000000E+00  0.44302349199E+02  0.44302349199E+02  0.00000000000E+00 0. -1.
         -1   -1    0    0    0  501 -0.00000000000E+00 -0.00000000000E+00 -0.50156591302E+03  0.50156591302E+03  0.00000000000E+00 0.  1.
         25    2    1    2    0    0  0.56715809542E+02 -0.67751299643E+02 -0.15067002229E+03  0.21483576394E+03  0.12508408450E+03 0.  0.
          5    1    3    3  502    0  0.22578525747E+02 -0.93273483021E+02 -0.14152049109E+03  0.17104167404E+03  0.41800000000E+01 0. -1.
         -5    1    3    3    0  502  0.34137283795E+02  0.25522183379E+02 -0.91495312071E+01  0.43794089905E+02  0.41800000000E+01 0. -1.
        -11    1    1    2    0    0 -0.18237226626E+02  0.78337941006E+02 -0.24288323273E+03  0.25585483028E+03  0.00000000000E+00 0.  1.
         11    1    1    2    0    0 -0.38478582917E+02 -0.10586641363E+02 -0.63710308797E+02  0.75177667998E+02  0.00000000000E+00 0. -1.
</event>
<event>
 7    1  0.2820496E-009  0.3731056E+03  0.7561462E-02  0.1053512E+00
          2   -1    0    0  501    0  0.00000000000E+00  0.00000000000E+00  0.12170283796E+04  0.12170283796E+04  0.00000000000E+00 0. -1.
         -2   -1    0    0    0  501 -0.00000000000E+00 -0.00000000000E+00 -0.12105391346E+03  0.12105391346E+03  0.00000000000E+00 0.  1.
         25    2    1    2    0    0 -0.35794330882E+03  0.84520931954E+02  0.57320286087E+03  0.69244122254E+03  0.12508447823E+03 0.  0.
          5    1    3    3  502    0 -0.15497466996E+02  0.24437942335E+02  0.10669099314E+02  0.31123730320E+02  0.41800000000E+01 0.  1.
         -5    1    3    3    0  502 -0.34244584182E+03  0.60082989619E+02  0.56253376155E+03  0.66131749222E+03  0.41800000000E+01 0.  1.
        -11    1    1    2    0    0  0.19843196253E+03 -0.63707378115E+02  0.36507920970E+03  0.42037685846E+03  0.00000000000E+00 0. -1.
         11    1    1    2    0    0  0.15951134629E+03 -0.20813553840E+02  0.15769239562E+03  0.22526421211E+03  0.00000000000E+00 0.  1.
</event>
<event>
 7    1  0.2820496E-009  0.1246331E+03  0.7561462E-02  0.1235644E+00
          1   -1    0    0  501    0  0.00000000000E+00  0.00000000000E+00  0.34058834216E+03  0.34058834216E+03  0.00000000000E+00 0. -1.
         -1   -1    0    0    0  501 -0.00000000000E+00 -0.00000000000E+00 -0.66297972380E+02  0.66297972380E+02  0.00000000000E+00 0.  1.
         25    2    1    2    0    0  0.64600388863E+02  0.62845276805E+02  0.21147223929E+03  0.26170788590E+03  0.12509104882E+03 0.  0.
          5    1    3    3  502    0 -0.21809915648E+02 -0.20257699094E+02  0.70267861159E+02  0.76427033862E+02  0.41800000000E+01 0. -1.
         -5    1    3    3    0  502  0.86410304511E+02  0.83102975899E+02  0.14120437813E+03  0.18528085204E+03  0.41800000000E+01 0. -1.
        -11    1    1    2    0    0 -0.29788373555E+02 -0.56486853758E+02  0.82779148467E+02  0.10454902806E+03  0.00000000000E+00 0. -1.
         11    1    1    2    0    0 -0.34812015309E+02 -0.63584230477E+01 -0.19961017972E+02  0.40629400586E+02  0.00000000000E+00 0.  1.
</event>
<event>
 7    1  0.2820496E-009  0.1508391E+03  0.7561462E-02  0.1199446E+00
         -2   -1    0    0    0  501 -0.00000000000E+00  0.00000000000E+00  0.89739200780E+02  0.89739200780E+02  0.00000000000E+00 0.  1.
          2   -1    0    0  501    0  0.00000000000E+00 -0.00000000000E+00 -0.42323012426E+03  0.42323012426E+03  0.00000000000E+00 0. -1.
         25    2    1    2    0    0 -0.47395403313E+02  0.11418429169E+03 -0.38498288530E+02  0.18003700098E+03  0.12508727665E+03 0.  0.
          5    1    3    3  502    0 -0.70707495277E+02  0.70637258341E+02  0.21390066644E+02  0.10229457222E+03  0.41800000000E+01 0. -1.
         -5    1    3    3    0  502  0.23312091964E+02  0.43547033344E+02 -0.59888355174E+02  0.77742428764E+02  0.41800000000E+01 0. -1.
        -11    1    1    2    0    0 -0.24292843894E+02 -0.51103972011E+02 -0.83315722627E+02  0.10071379179E+03  0.00000000000E+00 0. -1.
         11    1    1    2    0    0  0.71688247207E+02 -0.63080319674E+02 -0.21167691232E+03  0.23221853226E+03  0.00000000000E+00 0.  1.
</event>
<event>
 7    1  0.2973882E-009  0.9517555E+02  0.7561462E-02  0.1290781E+00
          2   -1    0    0  501    0  0.00000000000E+00  0.00000000000E+00  0.26600092809E+03  0.26600092809E+03  0.00000000000E+00 0. -1.
         -2   -1    0    0    0  501 -0.00000000000E+00 -0.00000000000E+00 -0.67992528337E+02  0.67992528337E+02  0.00000000000E+00 0.  1.
         25    2    1    2    0    0  0.12406008419E+02  0.19848906620E+02  0.15101778068E+02  0.12816410463E+03  0.12510030326E+03 0.  0.
          5    1    3    3  502    0 -0.43673642981E+02  0.89370279700E+01 -0.31145571132E+02  0.54541512275E+02  0.41800000000E+01 0.  1.
         -5    1    3    3    0  502  0.56079651400E+02  0.10911878650E+02  0.46247349200E+02  0.73622592353E+02  0.41800000000E+01 0.  1.
        -11    1    1    2    0    0 -0.86713600852E+01 -0.53619580996E+02  0.74330530725E+02  0.92061282578E+02  0.00000000000E+00 0.  1.
         11    1    1    2    0    0 -0.37346483342E+01  0.33770674377E+02  0.10857609096E+03  0.11376806922E+03  0.00000000000E+00 0. -1.
</event>
<event>
 7    1  0.2820496E-009  0.1174255E+03  0.7561462E-02  0.1247406E+00
         -2   -1    0    0    0  501 -0.00000000000E+00  0.00000000000E+00  0.42076472370E+02  0.42076472370E+02  0.00000000000E+00 0.  1.
          2   -1    0    0  501    0  0.00000000000E+00 -0.00000000000E+00 -0.58718668644E+03  0.58718668644E+03  0.00000000000E+00 0. -1.
         25    2    1    2    0    0 -0.10561323711E+03 -0.16112507015E+02 -0.22214223908E+03  0.27642228417E+03  0.12509330943E+03 0.  0.
          5    1    3    3  502    0 -0.18636382147E+02  0.25114942672E+02 -0.15696016774E+03  0.16010009914E+03  0.41800000000E+01 0.  1.
         -5    1    3    3    0  502 -0.86976854959E+02 -0.41227449687E+02 -0.65182071338E+02  0.11632218503E+03  0.41800000000E+01 0.  1.
        -11    1    1    2    0    0  0.37076195084E+02  0.81030768482E+01 -0.21586710864E+02  0.43661083154E+02  0.00000000000E+00 0.  1.
         11    1    1    2    0    0  0.68537042023E+02  0.80094301669E+01 -0.30138126412E+03  0.30917979149E+03  0.00000000000E+00 0. -1.
</event>
<event>
 7    1  0.2820496E-009  0.1535695E+03  0.7561462E-02  0.1196154E+00
         -3   -1    0    0    0  501 -0.00000000000E+00  0.00000000000E+00  0.28621233443E+03  0.28621233443E+03  0.00000000000E+00 0.  1.
          3   -1    0    0  501    0  0.00000000000E+00 -0.00000000000E+00 -0.10969146256E+03  0.10969146256E+03  0.00000000000E+00 0. -1.
         25    2    1    2    0    0  0.10542317336E+03 -0.91477528695E+02  0.88898127180E+02  0.20744179841E+03  0.12508812484E+03 0.  0.
          5    1    3    3  502    0  0.55317937856E+02 -0.62952536342E+02  0.11634790728E+03  0.14344826248E+03  0.41800000000E+01 0. -1.
         -5    1    3    3    0  502  0.50105235501E+02 -0.28524992353E+02 -0.27449780101E+02  0.63993535931E+02  0.41800000000E+01 0. -1.
        -11    1    1    2    0    0 -0.76778815666E+02  0.80311718832E+01  0.53225162217E+02  0.93767820439E+02  0.00000000000E+00 0. -1.
         11    1    1    2    0    0 -0.28644357691E+02  0.83446356812E+02  0.34397582478E+02  0.94694178137E+02  0.00000000000E+00 0.  1.
</event>
<event>
 7    1  0.2820496E-009  0.8854465E+02  0.7561462E-02  0.1306415E+00
         -3   -1    0    0    0  501 -0.00000000000E+00  0.00000000000E+00  0.65592510942E+02  0.65592510942E+02  0.00000000000E+00 0.  1.
          3   -1    0    0  501    0  0.00000000000E+00 -0.00000000000E+00 -0.23020895422E+03  0.23020895422E+03  0.00000000000E+00 0. -1.
         25    2    1    2    0    0  0.29611898059E+02 -0.40082830215E+02 -0.12002850798E+03  0.18038357811E+03  0.12509154543E+03 0.  0.
          5    1    3    3  502    0  0.62870010690E+02 -0.95055215589E+01 -0.14264996478E+02  0.65298971728E+02  0.41800000000E+01 0. -1.
         -5    1    3    3    0  502 -0.33258112631E+02 -0.30577308657E+02 -0.10576351151E+03  0.11508460638E+03  0.41800000000E+01 0. -1.
        -11    1    1    2    0    0 -0.18114754407E+02  0.49768766596E+02  0.14122333134E+02  0.54813454087E+02  0.00000000000E+00 0.  1.
         11    1    1    2    0    0 -0.11497143652E+02 -0.96859363809E+01 -0.58710268427E+02  0.60604432961E+02  0.00000000000E+00 0. -1.
</event>
<event>
 7    1  0.2820496E-009  0.1638106E+03  0.7561462E-02  0.1184461E+00
          4   -1    0    0  501    0  0.00000000000E+00  0.00000000000E+00  0.53557719263E+02  0.53557719263E+02  0.00000000000E+00 0. -1.
         -4   -1    0    0    0  501 -0.00000000000E+00 -0.00000000000E+00 -0.61019534473E+03  0.61019534473E+03  0.00000000000E+00 0.  1.
         25    2    1    2    0    0 -0.12919388928E+03  0.56829060824E+02 -0.34442990093E+03  0.39268281284E+03  0.12508889504E+03 0.  0.
          5    1    3    3  502    0 -0.78940919598E+02  0.71362838258E+02 -0.31499781134E+03  0.33251378471E+03  0.41800000000E+01 0. -1.
         -5    1    3    3    0  502 -0.50252969682E+02 -0.14533777434E+02 -0.29432089585E+02  0.60169028127E+02  0.41800000000E+01 0. -1.
        -11    1    1    2    0    0  0.15242083351E+02 -0.52437490449E+02 -0.70579066393E+02  0.89237974665E+02  0.00000000000E+00 0.  1.
         11    1    1    2    0    0  0.11395180593E+03 -0.43915703747E+01 -0.14162865814E+03  0.18183227649E+03  0.00000000000E+00 0. -1.
</event>
<event>
 7    1  0.2820496E-009  0.1236464E+03  0.7561462E-02  0.1237200E+00
         -1   -1    0    0    0  501 -0.00000000000E+00  0.00000000000E+00  0.10201338004E+03  0.10201338004E+03  0.00000000000E+00 0.  1.
          1   -1    0    0  501    0  0.00000000000E+00 -0.00000000000E+00 -0.25231402057E+03  0.25231402057E+03  0.00000000000E+00 0. -1.
         25    2    1    2    0    0  0.38706138773E+01  0.94135426068E+02 -0.15962232285E+03  0.22361416235E+03  0.12509015772E+03 0.  0.
          5    1    3    3  502    0 -0.55049676118E+02  0.69765668298E+02 -0.11624630366E+03  0.14638439407E+03  0.41800000000E+01 0.  1.
         -5    1    3    3    0  502  0.58920289995E+02  0.24369757771E+02 -0.43376019195E+02  0.77229768277E+02  0.41800000000E+01 0.  1.
        -11    1    1    2    0    0 -0.56371340822E+01 -0.68965365005E+02 -0.36627851817E+02  0.78291751671E+02  0.00000000000E+00 0. -1.
         11    1    1    2    0    0  0.17665202049E+01 -0.25170061063E+02  0.45949534147E+02  0.52421486586E+02  0.00000000000E+00 0.  1.
</event>
<event>
 7    1  0.2820496E-009  0.1843593E+03  0.7561462E-02  0.1163650E+00
         -2   -1    0    0    0  501 -0.00000000000E+00  0.00000000000E+00  0.53082281821E+02  0.53082281821E+02  0.00000000000E+00 0.  1.
          2   -1    0    0  501    0  0.00000000000E+00 -0.00000000000E+00 -0.75238859648E+03  0.75238859648E+03  0.00000000000E+00 0. -1.
         25    2    1    2    0    0 -0.15143227002E+03  0.72804196415E+02 -0.36227802971E+03  0.41847590889E+03  0.12507810395E+03 0.  0.
          5    1    3    3  502    0 -0.96712854963E+02  0.99187504813E+02 -0.30439503549E+03  0.33446277440E+03  0.41800000000E+01 0. -1.
         -5    1    3    3    0  502 -0.54719415062E+02 -0.26383308398E+02 -0.57882994217E+02  0.84013134487E+02  0.41800000000E+01 0. -1.
        -11    1    1    2    0    0  0.45794455456E+02 -0.11988728809E+02 -0.19100123503E+03  0.19677991145E+03  0.00000000000E+00 0. -1.
         11    1    1    2    0    0  0.10563781457E+03 -0.60815467606E+02 -0.14602704992E+03  0.19021505796E+03  0.00000000000E+00 0.  1.
</event>
<event>
 7    1  0.2820496E-009  0.1863345E+03  0.7561462E-02  0.1161810E+00
          1   -1    0    0  501    0  0.00000000000E+00  0.00000000000E+00  0.23405974738E+03  0.23405974738E+03  0.00000000000E+00 0. -1.
         -1   -1    0    0    0  501 -0.00000000000E+00 -0.00000000000E+00 -0.16665123994E+03  0.16665123994E+03  0.00000000000E+00 0.  1.
         25    2    1    2    0    0  0.10319534650E+03 -0.12310626386E+03  0.36430428278E+00  0.20360243605E+03  0.12509751200E+03 0.  0.
          5    1    3    3  502    0  0.42515906376E+02  0.12737780945E+02  0.27401607889E+02  0.52327563227E+02  0.41800000000E+01 0.  1.
         -5    1    3    3    0  502  0.60679440123E+02 -0.13584404480E+03 -0.27037303606E+02  0.15127487283E+03  0.41800000000E+01 0.  1.
        -11    1    1    2    0    0 -0.69879095161E+02  0.22719543432E+02  0.31715427058E+01  0.73548108591E+02  0.00000000000E+00 0.  1.
         11    1    1    2    0    0 -0.33316251339E+02  0.10038672043E+03  0.63872660452E+02  0.12356044268E+03  0.00000000000E+00 0. -1.
</event>
<event>
 7    1  0.2820496E-009  0.1145694E+03  0.7561462E-02  0.1252335E+00
         -2   -1    0    0    0  501 -0.00000000000E+00  0.00000000000E+00  0.44054832193E+02  0.44054832193E+02  0.00000000000E+00 0. -1.
          2   -1    0    0  501    0  0.00000000000E+00 -0.00000000000E+00 -0.32679952115E+03  0.32679952115E+03  0.00000000000E+00 0.  1.
         25    2    1    2    0    0 -0.91361100337E+01 -0.32032437007E+02 -0.19604418566E+03  0.23492923061E+03  0.12509546409E+03 0.  0.
          5    1    3    3  502    0  0.54737257117E+02 -0.31501761311E+02 -0.11880130057E+03  0.13460961964E+03  0.41800000000E+01 0.  1.
         -5    1    3    3    0  502 -0.63873367151E+02 -0.53067569632E+00 -0.77242885087E+02  0.10031961097E+03  0.41800000000E+01 0.  1.
        -11    1    1    2    0    0 -0.75373609589E+01  0.64710362370E+02 -0.69972580634E+02  0.95605464535E+02  0.00000000000E+00 0.  1.
         11    1    1    2    0    0  0.16673470993E+02 -0.32677925363E+02 -0.16727922671E+02  0.40319658206E+02  0.00000000000E+00 0. -1.
</event>
<event>
 7    1  0.2820496E-009  0.6419678E+02  0.7561462E-02  0.1381019E+00
         -2   -1    0    0    0  501 -0.00000000000E+00  0.00000000000E+00  0.80820992434E+02  0.80820992434E+02  0.00000000000E+00 0.  1.
          2   -1    0    0  501    0  0.00000000000E+00 -0.00000000000E+00 -0.15921704567E+03  0.15921704567E+03  0.00000000000E+00 0. -1.
         25    2    1    2    0    0 -0.29628923185E+02  0.17847058938E+02 -0.19742125615E+02  0.13127673815E+03  0.12508972721E+03 0.  0.
          5    1    3    3  502    0 -0.77714168392E+01  0.37052672635E+02  0.45726313752E+02  0.59511878129E+02  0.41800000000E+01 0.  1.
         -5    1    3    3    0  502 -0.21857506346E+02 -0.19205613697E+02 -0.65468439367E+02  0.71764860025E+02  0.41800000000E+01 0.  1.
        -11    1    1    2    0    0  0.37720678823E+02 -0.28681706753E+02  0.11969906192E+01  0.47401716210E+02  0.00000000000E+00 0. -1.
         11    1    1    2    0    0 -0.80917556372E+01  0.10834647815E+02 -0.59850918237E+02  0.61359583737E+02  0.00000000000E+00 0.  1.
</event>
<event>
 7    1  0.2820496E-009  0.9839153E+02  0.7561462E-02  0.1283715E+00
         -3   -1    0    0    0  501 -0.00000000000E+00  0.00000000000E+00  0.16403000672E+03  0.16403000672E+03  0.00000000000E+00 0.  1.
          3   -1    0    0  501    0  0.00000000000E+00 -0.00000000000E+00 -0.12637048565E+03  0.12637048565E+03  0.00000000000E+00 0. -1.
         25    2    1    2    0    0 -0.38080447811E+02  0.15900308711E+02 -0.64856386795E+02  0.14682457192E+03  0.12509262044E+03 0.  0.
          5    1    3    3  502    0 -0.42515876641E+02  0.55945997611E+02 -0.77204390557E+02  0.10447748435E+03  0.41800000000E+01 0. -1.
         -5    1    3    3    0  502  0.44354288299E+01 -0.40045688899E+02  0.12348003762E+02  0.42347087565E+02  0.41800000000E+01 0. -1.
        -11    1    1    2    0    0 -0.15857411742E+02 -0.26531031850E+02  0.76991348720E+02  0.82963973723E+02  0.00000000000E+00 0.  1.
         11    1    1    2    0    0  0.53937859553E+02  0.10630723139E+02  0.25524559140E+02  0.60611946734E+02  0.00000000000E+00 0. -1.
</event>
<event>
 7    1  0.2820496E-009  0.9670586E+02  0.7561462E-02  0.1287380E+00
         -1   -1    0    0    0  501 -0.00000000000E+00  0.00000000000E+00  0.44533291146E+03  0.44533291146E+03  0.00000000000E+00 0.  1.
          1   -1    0    0  501    0  0.00000000000E+00 -0.00000000000E+00 -0.61896296697E+02  0.61896296697E+02  0.00000000000E+00 0. -1.
         25    2    1    2    0    0  0.65189716720E+02 -0.63457197819E+02  0.33737162304E+03  0.37113844833E+03  0.12509044998E+03 0.  0.
          5    1    3    3  502    0  0.33820985673E+02 -0.38884199905E+02  0.27261670833E+02  0.58450929597E+02  0.41800000000E+01 0. -1.
         -5    1    3    3    0  502  0.31368731048E+02 -0.24572997914E+02  0.31010995221E+03  0.31268751873E+03  0.41800000000E+01 0. -1.
        -11    1    1    2    0    0 -0.25184525353E+02 -0.16360073278E+01  0.53671675002E+02  0.59309236505E+02  0.00000000000E+00 0.  1.
         11    1    1    2    0    0 -0.40005191367E+02  0.65093205147E+02 -0.76066832825E+01  0.76781523319E+02  0.00000000000E+00 0. -1.
</event>
<event>
 7    1  0.2820496E-009  0.1015482E+03  0.7561462E-02  0.1277073E+00
         -2   -1    0    0    0  501 -0.00000000000E+00  0.00000000000E+00  0.22499032984E+02  0.22499032984E+02  0.00000000000E+00 0.  1.
          2   -1    0    0  501    0  0.00000000000E+00 -0.00000000000E+00 -0.94172350989E+03  0.94172350989E+03  0.00000000000E+00 0. -1.
         25    2    1    2    0    0 -0.36040368129E+02 -0.50680477300E+02 -0.74602325923E+03  0.75898715359E+03  0.12507348675E+03 0.  0.
          5    1    3    3  502    0 -0.75467446403E+02 -0.62628785264E+02 -0.53837245882E+03  0.54724772912E+03  0.41800000000E+01 0. -1.
         -5    1    3    3    0  502  0.39427078274E+02  0.11948307964E+02 -0.20765080041E+03  0.21173942447E+03  0.41800000000E+01 0. -1.
        -11    1    1    2    0    0  0.14795492543E+02  0.31934050671E+02 -0.17336524305E+03  0.17690166107E+03  0.00000000000E+00 0. -1.
         11    1    1    2    0    0  0.21244875586E+02  0.18746426629E+02  0.16402537521E+00  0.28333728211E+02  0.00000000000E+00 0.  1.
</event>
<event>
 7    1  0.2820496E-009  0.2013784E+03  0.7561462E-02  0.1148581E+00
          2   -1    0    0  501    0  0.00000000000E+00  0.00000000000E+00  0.13975886168E+03  0.13975886168E+03  0.00000000000E+00 0. -1.
         -2   -1    0    0    0  501 -0.00000000000E+00 -0.00000000000E+00 -0.59536661946E+03  0.59536661946E+03  0.00000000000E+00 0.  1.
         25    2    1    2    0    0  0.17787501937E+03  0.67417979809E+02  0.53050762824E+01  0.22772871453E+03  0.12509003586E+03 0.  0.
          5    1    3    3  502    0  0.11135745813E+02 -0.26626639751E+01  0.41477681077E+02  0.43231528331E+02  0.41800000000E+01 0.  1.
         -5    1    3    3    0  502  0.16673927355E+03  0.70080643784E+02 -0.36172604795E+02  0.18449718620E+03  0.41800000000E+01 0.  1.
        -11    1    1    2    0    0 -0.32700205635E+02 -0.54948260076E+02 -0.10681155432E+03  0.12448824391E+03  0.00000000000E+00 0.  1.
         11    1    1    2    0    0 -0.14517481373E+03 -0.12469719734E+02 -0.35410127973E+03  0.38290852270E+03  0.00000000000E+00 0. -1.
</event>
<event>
 7    1  0.2820496E-009  0.1033204E+03  0.7561462E-02  0.1273465E+00
          2   -1    0    0  501    0  0.00000000000E+00  0.00000000000E+00  0.31745880161E+03  0.31745880161E+03  0.00000000000E+00 0. -1.
         -2   -1    0    0    0  501 -0.00000000000E+00 -0.00000000000E+00 -0.51330315767E+02  0.51330315767E+02  0.00000000000E+00 0.  1.
         25    2    1    2    0    0  0.57480093941E+01  0.62112627156E+02  0.18379013606E+03  0.23090833884E+03  0.12509527877E+03 0.  0.
          5    1    3    3  502    0  0.17195638341E+02  0.76417424847E+02  0.44153534223E+02  0.90012886759E+02  0.41800000000E+01 0. -1.
         -5    1    3    3    0  502 -0.11447628947E+02 -0.14304797691E+02  0.13963660183E+03  0.14089545208E+03  0.41800000000E+01 0. -1.
        -11    1    1    2    0    0  0.31100574867E+02 -0.65395617089E+02  0.63756504694E+02  0.96481730822E+02  0.00000000000E+00 0. -1.
         11    1    1    2    0    0 -0.36848584261E+02  0.32829899331E+01  0.18581845098E+02  0.41399047721E+02  0.00000000000E+00 0.  1.
</event>
<event>
 7    1  0.2820496E-009  0.1006715E+03  0.7561462E-02  0.1278890E+00
         -4   -1    0    0    0  501 -0.00000000000E+00  0.00000000000E+00  0.24372147603E+03  0.24372147603E+03  0.00000000000E+00 0. -1.
          4   -1    0    0  501    0  0.00000000000E+00 -0.00000000000E+00 -0.55601318547E+02  0.55601318547E+02  0.00000000000E+00 0.  1.
         25    2    1    2    0    0  0.19539921311E+02  0.24252737600E+02  0.14950458381E+03  0.19740605978E+03  0.12509007976E+03 0.  0.
          5    1    3    3  502    0 -0.32399013701E+02 -0.30705879348E+02  0.91905105180E+02  0.10225736097E+03  0.41800000000E+01 0.  1.
         -5    1    3    3    0  502  0.51938935011E+02  0.54958616948E+02  0.57599478629E+02  0.95148698810E+02  0.41800000000E+01 0.  1.
        -11    1    1    2    0    0 -0.45596511935E+02 -0.29349565510E+02 -0.99045785952E+00  0.54234858744E+02  0.00000000000E+00 0.  1.
         11    1    1    2    0    0  0.26056590625E+02  0.50968279097E+01  0.39606031538E+02  0.47681876053E+02  0.00000000000E+00 0. -1.
</event>
<event>
 7    1  0.2820496E-009  0.1323778E+03  0.7561462E-02  0.1223970E+00
         -3   -1    0    0    0  501 -0.00000000000E+00  0.00000000000E+00  0.11023594756E+02  0.11023594756E+02  0.00000000000E+00 0.  1.
          3   -1    0    0  501    0  0.00000000000E+00 -0.00000000000E+00 -0.20439286185E+04  0.20439286185E+04  0.00000000000E+00 0. -1.
         25    2    1    2    0    0 -0.62880889223E+02  0.20353335353E+02 -0.13201434550E+04  0.13277022077E+04  0.12508455504E+03 0.  0.
          5    1    3    3  502    0 -0.92768514107E+02  0.20860202199E+02 -0.65548774781E+03  0.66236153661E+03  0.41800000000E+01 0.  1.
         -5    1    3    3    0  502  0.29887624883E+02 -0.50686684646E+00 -0.66465570723E+03  0.66534067108E+03  0.41800000000E+01 0.  1.
        -11    1    1    2    0    0  0.99962239759E+02 -0.21699160396E+02 -0.59661135513E+03  0.60531678649E+03  0.00000000000E+00 0. -1.
         11    1    1    2    0    0 -0.37081350536E+02  0.13458250433E+01 -0.11615021358E+03  0.12193321909E+03  0.00000000000E+00 0.  1.
</event>
<event>
 7    1  0.2820496E-009  0.1248987E+03  0.7561462E-02  0.1235228E+00
         -2   -1    0    0    0  501 -0.00000000000E+00  0.00000000000E+00  0.12133488497E+03  0.12133488497E+03  0.00000000000E+00 0.  1.
          2   -1    0    0  501    0  0.00000000000E+00 -0.00000000000E+00 -0.14477085118E+03  0.14477085118E+03  0.00000000000E+00 0. -1.
         25    2    1    2    0    0  0.26167541940E+02 -0.62883605834E+02 -0.43626172022E+02  0.14896053083E+03  0.12508760421E+03 0.  0.
          5    1    3    3  502    0 -0.45403765992E+02 -0.48046620623E+02 -0.35901553708E+02  0.75341712737E+02  0.41800000000E+01 0.  1.
         -5    1    3    3    0  502  0.71571307932E+02 -0.14836985211E+02 -0.77246183136E+01  0.73618818092E+02  0.41800000000E+01 0.  1.
        -11    1    1    2    0    0 -0.44867995597E+02  0.13188191647E+00 -0.84836853995E+01  0.45663194585E+02  0.00000000000E+00 0. -1.
         11    1    1    2    0    0  0.18700453657E+02  0.62751723918E+02  0.28673891211E+02  0.71482010736E+02  0.00000000000E+00 0.  1.
</event>
<event>
 7    1  0.2820496E-009  0.1339692E+03  0.7561462E-02  0.1221682E+00
          4   -1    0    0  501    0  0.00000000000E+00  0.00000000000E+00  0.31764095223E+03  0.31764095223E+03  0.00000000000E+00 0. -1.
         -4   -1    0    0    0  501 -0.00000000000E+00 -0.00000000000E+00 -0.61274211552E+02  0.61274211552E+02  0.00000000000E+00 0.  1.
         25    2    1    2    0    0  0.86268079170E+02  0.19304279668E+02  0.14751869678E+03  0.21266115121E+03  0.12509261624E+03 0.  0.
          5    1    3    3  502    0 -0.25214381594E+01 -0.37761798365E+02  0.76277394119E+02  0.85252708577E+02  0.41800000000E+01 0. -1.
         -5    1    3    3    0  502  0.88789517329E+02  0.57066078033E+02  0.71241302660E+02  0.12740844263E+03  0.41800000000E+01 0. -1.
        -11    1    1    2    0    0 -0.47657857558E+02 -0.54212098862E+02  0.50676498009E+02  0.88194843956E+02  0.00000000000E+00 0.  1.
         11    1    1    2    0    0 -0.38610221612E+02  0.34907819194E+02  0.58171545895E+02  0.78059168620E+02  0.00000000000E+00 0. -1.
</event>
<event>
 7    1  0.2820496E-009  0.1183568E+03  0.7561462E-02  0.1245833E+00
         -2   -1    0    0    0  501 -0.00000000000E+00  0.00000000000E+00  0.25772629666E+02  0.25772629666E+02  0.00000000000E+00 0.  1.
          2   -1    0    0  501    0  0.00000000000E+00 -0.00000000000E+00 -0.61272390939E+03  0.61272390939E+03  0.00000000000E+00 0. -1.
         25    2    1    2    0    0 -0.15179735069E+02 -0.53766280492E+02 -0.40554043466E+03  0.42805588671E+03  0.12509021036E+03 0.  0.
          5    1    3    3  502    0 -0.61833048139E+02 -0.18856699079E+01 -0.24927490845E+03  0.25687026682E+03  0.41800000000E+01 0.  1.
         -5    1    3    3    0  502  0.46653313070E+02 -0.51880610584E+02 -0.15626552621E+03  0.17118561989E+03  0.41800000000E+01 0.  1.
        -11    1    1    2    0    0 -0.29722691316E+02 -0.57348447986E+01 -0.35991207687E+02  0.47028649297E+02  0.00000000000E+00 0. -1.
         11    1    1    2    0    0  0.44902426385E+02  0.59501125290E+02 -0.14541963737E+03  0.16341200305E+03  0.00000000000E+00 0.  1.
</event>
<event>
 7    1  0.2820496E-009  0.1048960E+03  0.7561462E-02  0.1270325E+00
          1   -1    0    0  501    0  0.00000000000E+00  0.00000000000E+00  0.17892333911E+02  0.17892333911E+02  0.00000000000E+00 0. -1.
         -1   -1    0    0    0  501 -0.00000000000E+00 -0.00000000000E+00 -0.89937459454E+03  0.89937459454E+03  0.00000000000E+00 0.  1.
         25    2    1    2    0    0 -0.53041849017E+02 -0.26898573365E+00 -0.62951205916E+03  0.64400811060E+03  0.12508998273E+03 0.  0.
          5    1    3    3  502    0 -0.86403358670E+02  0.23432316000E+02 -0.50459092167E+03  0.51248813104E+03  0.41800000000E+01 0.  1.
         -5    1    3    3    0  502  0.33361509653E+02 -0.23701301733E+02 -0.12492113749E+03  0.13151997956E+03  0.41800000000E+01 0.  1.
        -11    1    1    2    0    0 -0.97588792926E+01  0.11663420547E+02 -0.20834877138E+01  0.15349658790E+02  0.00000000000E+00 0. -1.
         11    1    1    2    0    0  0.62800728310E+02 -0.11394434814E+02 -0.24988671375E+03  0.25790915907E+03  0.00000000000E+00 0.  1.
</event>
<event>
 7    1  0.2820496E-009  0.1137236E+03  0.7561462E-02  0.1253826E+00
         -1   -1    0    0    0  501 -0.00000000000E+00  0.00000000000E+00  0.34605054184E+02  0.34605054184E+02  0.00000000000E+00 0.  1.
          1   -1    0    0  501    0  0.00000000000E+00 -0.00000000000E+00 -0.45530829240E+03  0.45530829240E+03  0.00000000000E+00 0. -1.
         25    2    1    2    0    0  0.34449689018E+01 -0.60627040586E+02 -0.26791273939E+03  0.30184788063E+03  0.12508957292E+03 0.  0.
          5    1    3    3  502    0 -0.20567758458E+02 -0.94783010197E+02 -0.18872967802E+03  0.21223386977E+03  0.41800000000E+01 0.  1.
         -5    1    3    3    0  502  0.24012727360E+02  0.34155969611E+02 -0.79183061367E+02  0.89614010863E+02  0.41800000000E+01 0.  1.
        -11    1    1    2    0    0 -0.17474084658E+02 -0.73798025436E+01  0.13394924790E+01  0.19015766099E+02  0.00000000000E+00 0.  1.
         11    1    1    2    0    0  0.14029115756E+02  0.68006843130E+02 -0.15412999130E+03  0.16904969985E+03  0.00000000000E+00 0. -1.
</event>
<event>
 7    1  0.2820496E-009  0.8555029E+02  0.7561462E-02  0.1314000E+00
          4   -1    0    0  501    0  0.00000000000E+00  0.00000000000E+00  0.13031184607E+03  0.13031184607E+03  0.00000000000E+00 0. -1.
         -4   -1    0    0    0  501 -0.00000000000E+00 -0.00000000000E+00 -0.11662726559E+03  0.11662726559E+03  0.00000000000E+00 0.  1.
         25    2    1    2    0    0 -0.84659610462E+01  0.43005778079E+01  0.40170453692E+02  0.13172287025E+03  0.12508829574E+03 0.  0.
          5    1    3    3  502    0 -0.89576097815E+01 -0.57143053566E+02  0.39437325869E+02  0.70130894872E+02  0.41800000000E+01 0.  1.
         -5    1    3    3    0  502  0.49164873532E+00  0.61443631374E+02  0.73312782294E+00  0.61591975381E+02  0.41800000000E+01 0.  1.
        -11    1    1    2    0    0 -0.19899722405E+02 -0.10479435409E+02  0.38191861606E+02  0.44321956311E+02  0.00000000000E+00 0. -1.
         11    1    1    2    0    0  0.28365683452E+02  0.61788576015E+01 -0.64677734812E+02  0.70894285096E+02  0.00000000000E+00 0.  1.
</event>
<event>
 7    1  0.2820496E-009  0.1094620E+03  0.7561462E-02  0.1261569E+00
          2   -1    0    0  501    0  0.00000000000E+00  0.00000000000E+00  0.11446347733E+04  0.11446347733E+04  0.00000000000E+00 0. -1.
         -2   -1    0    0    0  501 -0.00000000000E+00 -0.00000000000E+00 -0.14655325196E+02  0.14655325196E+02  0.00000000000E+00 0.  1.
         25    2    1    2    0    0  0.69917162495E+02  0.11417117776E+02  0.58474635870E+03  0.60215744049E+03  0.12508604613E+03 0.  0.
          5    1    3    3  502    0 -0.15946556139E+01 -0.27245638330E+02  0.27402022916E+02  0.38900012782E+02  0.41800000000E+01 0. -1.
         -5    1    3    3    0  502  0.71511818108E+02  0.38662756106E+02  0.55734433579E+03  0.56325742771E+03  0.41800000000E+01 0. -1.
        -11    1    1    2    0    0 -0.81139682365E+02 -0.31391742164E+02  0.48392538343E+03  0.49168370550E+03  0.00000000000E+00 0. -1.
         11    1    1    2    0    0  0.11222519870E+02  0.19974624388E+02  0.61307705959E+02  0.65448952487E+02  0.00000000000E+00 0.  1.
</event>
<event>
 7    1  0.2820496E-009  0.1220567E+03  0.7561462E-02  0.1239742E+00
         -2   -1    0    0    0  501 -0.00000000000E+00  0.00000000000E+00  0.40035737578E+02  0.40035737578E+02  0.00000000000E+00 0.  1.
          2   -1    0    0  501    0  0.00000000000E+00 -0.00000000000E+00 -0.54846966960E+03  0.54846966960E+03  0.00000000000E+00 0. -1.
         25    2    1    2    0    0 -0.67721852334E+02  0.36830843144E+02 -0.40096487081E+03  0.42704006836E+03  0.12509049555E+03 0.  0.
          5    1    3    3  502    0 -0.75747608784E+02 -0.22973040071E+02 -0.29027352526E+03  0.30090140025E+03  0.41800000000E+01 0. -1.
         -5    1    3    3    0  502  0.80257564496E+01  0.59803883215E+02 -0.11069134554E+03  0.12613866811E+03  0.41800000000E+01 0. -1.
        -11    1    1    2    0    0  0.68749557964E+02 -0.12427388581E+01 -0.27735076885E+02  0.74143648480E+02  0.00000000000E+00 0. -1.
         11    1    1    2    0    0 -0.10277056301E+01 -0.35588104286E+02 -0.79733984326E+02  0.87321690330E+02  0.00000000000E+00 0.  1.
</event>
<event>
 7    1  0.2820496E-009  0.1017202E+03  0.7561462E-02  0.1276720E+00
         -1   -1    0    0    0  501 -0.00000000000E+00  0.00000000000E+00  0.17465772682E+03  0.17465772682E+03  0.00000000000E+00 0.  1.
          1   -1    0    0  501    0  0.00000000000E+00 -0.00000000000E+00 -0.77098451844E+02  0.77098451844E+02  0.00000000000E+00 0. -1.
         25    2    1    2    0    0 -0.12086459952E+02 -0.27505310385E+02  0.21080129759E+02  0.13036135722E+03  0.12508831669E+03 0.  0.
          5    1    3    3  502    0  0.58125785371E+01 -0.74368649543E+02 -0.25412628208E+01  0.74755685541E+02  0.41800000000E+01 0. -1.
         -5    1    3    3    0  502 -0.17899038489E+02  0.46863339158E+02  0.23621392580E+02  0.55605671682E+02  0.41800000000E+01 0. -1.
        -11    1    1    2    0    0  0.80558928734E+01  0.52478144543E+02  0.15394625098E+02  0.55279720934E+02  0.00000000000E+00 0. -1.
         11    1    1    2    0    0  0.40305670783E+01 -0.24972834158E+02  0.61084520121E+02  0.66115100509E+02  0.00000000000E+00 0.  1.
</event>
<event>
 7    1  0.2820496E-009  0.1091809E+03  0.7561462E-02  0.1262094E+00
          2   -1    0    0  501    0  0.00000000000E+00  0.00000000000E+00  0.47299889456E+02  0.47299889456E+02  0.00000000000E+00 0. -1.
         -2   -1    0    0    0  501 -0.00000000000E+00 -0.00000000000E+00 -0.25385427254E+03  0.25385427254E+03  0.00000000000E+00 0.  1.
         25    2    1    2    0    0 -0.13933942296E+02  0.19576647239E+02 -0.11997808178E+03  0.17498403719E+03  0.12508906147E+03 0.  0.
          5    1    3    3  502    0 -0.68130803731E+02 -0.15158897471E+01 -0.74376840215E+02  0.10096282038E+03  0.41800000000E+01 0. -1.
         -5    1    3    3    0  502  0.54196861435E+02  0.21092536986E+02 -0.45601241565E+02  0.74021216811E+02  0.41800000000E+01 0. -1.
        -11    1    1    2    0    0  0.12094297661E+02  0.35072499594E+02 -0.35004999738E+02  0.51006884539E+02  0.00000000000E+00 0.  1.
         11    1    1    2    0    0  0.18396446350E+01 -0.54649146833E+02 -0.51571301564E+02  0.75163240264E+02  0.00000000000E+00 0. -1.
</event>
<event>
 7    1  0.2820496E-009  0.1158753E+03  0.7561462E-02  0.1250061E+00
          1   -1    0    0  501    0  0.00000000000E+00  0.00000000000E+00  0.23005002346E+04  0.23005002346E+04  0.00000000000E+00 0. -1.
         -1   -1    0    0    0  501 -0.00000000000E+00 -0.00000000000E+00 -0.10500439125E+02  0.10500439125E+02  0.00000000000E+00 0.  1.
         25    2    1    2    0    0 -0.21922986040E+02  0.66148055286E+02  0.19251097337E+04  0.19304280287E+04  0.12509478275E+03 0.  0.
          5    1    3    3  502    0 -0.66404589768E+02  0.35758901574E+02  0.14996158728E+04  0.15015170685E+04  0.41800000000E+01 0.  1.
         -5    1    3    3    0  502  0.44481603728E+02  0.30389153712E+02  0.42549386091E+03  0.42891096023E+03  0.41800000000E+01 0.  1.
        -11    1    1    2    0    0 -0.26283486850E+02 -0.98611393393E+01  0.16533044134E+03  0.16769680553E+03  0.00000000000E+00 0. -1.
         11    1    1    2    0    0  0.48206472891E+02 -0.56286915946E+02  0.19955962049E+03  0.21287583955E+03  0.00000000000E+00 0.  1.
</event>
<event>
 7    1  0.2820496E-009  0.1632537E+03  0.7561462E-02  0.1185072E+00
         -2   -1    0    0    0  501 -0.00000000000E+00  0.00000000000E+00  0.58074649388E+02  0.58074649388E+02  0.00000000000E+00 0.  1.
          2   -1    0    0  501    0  0.00000000000E+00 -0.00000000000E+00 -0.48108235536E+03  0.48108235536E+03  0.00000000000E+00 0. -1.
         25    2    1    2    0    0  0.16487935538E+02  0.12516386140E+03 -0.22899753735E+03  0.28987149627E+03  0.12509103892E+03 0.  0.
          5    1    3    3  502    0 -0.47201120102E+02  0.24467616066E+02 -0.41043871154E+02  0.67295480785E+02  0.41800000000E+01 0.  1.
         -5    1    3    3    0  502  0.63689055639E+02  0.10069624534E+03 -0.18795366620E+03  0.22257601549E+03  0.41800000000E+01 0.  1.
        -11    1    1    2    0    0 -0.30595723274E+02 -0.27345626146E+01 -0.58786076750E+02  0.66327814189E+02  0.00000000000E+00 0. -1.
         11    1    1    2    0    0  0.14107787737E+02 -0.12242929879E+03 -0.13522409187E+03  0.18295769429E+03  0.00000000000E+00 0.  1.
</event>
<event>
 7    1  0.2820496E-009  0.1047607E+03  0.7561462E-02  0.1270592E+00
          1   -1    0    0  501    0  0.00000000000E+00  0.00000000000E+00  0.65201663558E+02  0.65201663558E+02  0.00000000000E+00 0. -1.
         -1   -1    0    0    0  501 -0.00000000000E+00 -0.00000000000E+00 -0.21077454884E+03  0.21077454884E+03  0.00000000000E+00 0.  1.
         25    2    1    2    0    0 -0.41070198229E+02  0.17741117153E+02 -0.86684343452E+02  0.15862923770E+03  0.12509017241E+03 0.  0.
          5    1    3    3  502    0 -0.66619155305E+02 -0.17013779615E+02 -0.92039528452E+02  0.11496228837E+03  0.41800000000E+01 0.  1.
         -5    1    3    3    0  502  0.25548957076E+02  0.34754896767E+02  0.53551849992E+01  0.43666949325E+02  0.41800000000E+01 0.  1.
        -11    1    1    2    0    0  0.40358322748E+02  0.29539468425E+02 -0.46902800455E+02  0.68565640815E+02  0.00000000000E+00 0.  1.
         11    1    1    2    0    0  0.71187548149E+00 -0.47280585577E+02 -0.11985741373E+02  0.48781333884E+02  0.00000000000E+00 0. -1.
</event>
<event>
 7    1  0.2820496E-009  0.7455338E+02  0.7561462E-02  0.1345260E+00
         -1   -1    0    0    0  501 -0.00000000000E+00  0.00000000000E+00  0.58548429666E+03  0.58548429666E+03  0.00000000000E+00 0.  1.
          1   -1    0    0  501    0  0.00000000000E+00 -0.00000000000E+00 -0.21959337239E+02  0.21959337239E+02  0.00000000000E+00 0. -1.
         25    2    1    2    0    0  0.16943112903E+02 -0.19273219606E+02  0.37239897444E+03  0.39368385854E+03  0.12508980073E+03 0.  0.
          5    1    3    3  502    0  0.50795285841E+02 -0.12680799378E+02  0.34622769381E+03  0.35018859505E+03  0.41800000000E+01 0.  1.
         -5    1    3    3    0  502 -0.33852172938E+02 -0.65924202277E+01  0.26171280622E+02  0.43495263495E+02  0.41800000000E+01 0.  1.
        -11    1    1    2    0    0 -0.36363150688E+02  0.21587053138E+02  0.18947065597E+03  0.19413245238E+03  0.00000000000E+00 0.  1.
         11    1    1    2    0    0  0.19420037784E+02 -0.23138335320E+01  0.16553290089E+01  0.19627322978E+02  0.00000000000E+00 0. -1.
</event>
<event>
 7    1  0.2820496E-009  0.1482192E+03  0.7561462E-02  0.1202678E+00
          3   -1    0    0  501    0  0.00000000000E+00  0.00000000000E+00  0.34357387517E+02  0.34357387517E+02  0.00000000000E+00 0. -1.
         -3   -1    0    0    0  501 -0.00000000000E+00 -0.00000000000E+00 -0.10276055737E+04  0.10276055737E+04  0.00000000000E+00 0.  1.
         25    2    1    2    0    0  0.92690487074E+02 -0.68525381532E+02 -0.23737428975E+03  0.29203050381E+03  0.12509199580E+03 0.  0.
          5    1    3    3  502    0  0.11219210008E+03 -0.68855151146E+02 -0.13833726662E+03  0.19100463580E+03  0.41800000000E+01 0.  1.
         -5    1    3    3    0  502 -0.19501613005E+02  0.32976961425E+00 -0.99037023131E+02  0.10102586802E+03  0.41800000000E+01 0.  1.
        -11    1    1    2    0    0 -0.79653380535E+02  0.48595158070E+01 -0.47343319024E+03  0.48011171777E+03  0.00000000000E+00 0. -1.
         11    1    1    2    0    0 -0.13037106539E+02  0.63665865725E+02 -0.28244070615E+03  0.28982073959E+03  0.00000000000E+00 0.  1.
</event>
<event>
 7    1  0.2820496E-009  0.1130024E+03  0.7561462E-02  0.1255109E+00
         -1   -1    0    0    0  501 -0.00000000000E+00  0.00000000000E+00  0.11937770904E+03  0.11937770904E+03  0.00000000000E+00 0.  1.
          1   -1    0    0  501    0  0.00000000000E+00 -0.00000000000E+00 -0.18911071739E+03  0.18911071739E+03  0.00000000000E+00 0. -1.
         25    2    1    2    0    0  0.53574705742E+01  0.50606925961E+02 -0.13025642690E+03  0.18762706032E+03  0.12508962215E+03 0.  0.
          5    1    3    3  502    0 -0.58046471201E+02  0.11404027331E+02 -0.69542383084E+02  0.91395077019E+02  0.41800000000E+01 0.  1.
         -5    1    3    3    0  502  0.63403941775E+02  0.39202898630E+02 -0.60714043813E+02  0.96231983299E+02  0.41800000000E+01 0.  1.
        -11    1    1    2    0    0  0.28606045755E+02  0.28053625408E+01  0.48582918678E+02  0.56448878642E+02  0.00000000000E+00 0.  1.
         11    1    1    2    0    0 -0.33963516329E+02 -0.53412288501E+02  0.11940499870E+02  0.64412487466E+02  0.00000000000E+00 0. -1.
</event>
<event>
 7    1  0.2820496E-009  0.1056350E+03  0.7561462E-02  0.1268874E+00
          2   -1    0    0  501    0  0.00000000000E+00  0.00000000000E+00  0.56047013427E+03  0.56047013427E+03  0.00000000000E+00 0. -1.
         -2   -1    0    0    0  501 -0.00000000000E+00 -0.00000000000E+00 -0.22690244963E+02  0.22690244963E+02  0.00000000000E+00 0.  1.
         25    2    1    2    0    0  0.26842376635E+02  0.10403241518E+02  0.29276065326E+03  0.31966419334E+03  0.12509059033E+03 0.  0.
          5    1    3    3  502    0 -0.25929504238E+02  0.44317655804E+02  0.20708428833E+03  0.21339580287E+03  0.41800000000E+01 0. -1.
         -5    1    3    3    0  502  0.52771880872E+02 -0.33914414286E+02  0.85676364927E+02  0.10626839048E+03  0.41800000000E+01 0. -1.
        -11    1    1    2    0    0  0.26184483770E+02 -0.30481804932E+02  0.10568238995E+03  0.11306429661E+03  0.00000000000E+00 0.  1.
         11    1    1    2    0    0 -0.53026860405E+02  0.20078563414E+02  0.13933684610E+03  0.15043188928E+03  0.00000000000E+00 0. -1.
</event>
<event>
 7    1  0.2820496E-009  0.1403309E+03  0.7561462E-02  0.1212884E+00
         -1   -1    0    0    0  501 -0.00000000000E+00  0.00000000000E+00  0.31469604327E+02  0.31469604327E+02  0.00000000000E+00 0.  1.
          1   -1    0    0  501    0  0.00000000000E+00 -0.00000000000E+00 -0.99001647411E+03  0.99001647411E+03  0.00000000000E+00 0. -1.
         25    2    1    2    0    0  0.53327415716E+02 -0.10453674490E+03 -0.72461840217E+03  0.74464168083E+03  0.12509060623E+03 0.  0.
          5    1    3    3  502    0  0.63080510737E+02 -0.13235885666E+02 -0.15924135803E+03  0.17184185175E+03  0.41800000000E+01 0. -1.
         -5    1    3    3    0  502 -0.97530950209E+01 -0.91300859234E+02 -0.56537704414E+03  0.57279982909E+03  0.41800000000E+01 0. -1.
        -11    1    1    2    0    0 -0.45341191998E+01  0.52972689607E+02 -0.30296216801E+02  0.61192522693E+02  0.00000000000E+00 0.  1.
         11    1    1    2    0    0 -0.48793296516E+02  0.51564055293E+02 -0.20363225081E+03  0.21565187492E+03  0.00000000000E+00 0. -1.
</event>
<event>
 7    1  0.2820496E-009  0.1780842E+03  0.7561462E-02  0.1169670E+00
          2   -1    0    0  501    0  0.00000000000E+00  0.00000000000E+00  0.11218337833E+03  0.11218337833E+03  0.00000000000E+00 0. -1.
         -2   -1    0    0    0  501 -0.00000000000E+00 -0.00000000000E+00 -0.29675815639E+03  0.29675815639E+03  0.00000000000E+00 0.  1.
         25    2    1    2    0    0  0.73929419127E+02  0.12223986261E+03 -0.60153134216E+02  0.19918356983E+03  0.12509017512E+03 0.  0.
          5    1    3    3  502    0 -0.26936700358E+02 -0.18678927284E+01 -0.21052502476E+02  0.34492826934E+02  0.41800000000E+01 0.  1.
         -5    1    3    3    0  502  0.10086611948E+03  0.12410775533E+03 -0.39100631740E+02  0.16469074290E+03  0.41800000000E+01 0.  1.
        -11    1    1    2    0    0 -0.35719632738E+02 -0.12552923055E+03 -0.95292583846E+02  0.16159875130E+03  0.00000000000E+00 0.  1.
         11    1    1    2    0    0 -0.38209786389E+02  0.32893679409E+01 -0.29129060001E+02  0.48159213593E+02  0.00000000000E+00 0. -1.
</event>
<event>
 7    1  0.2820496E-009  0.8820767E+02  0.7561462E-02  0.1307251E+00
          1   -1    0    0  501    0  0.00000000000E+00  0.00000000000E+00  0.16781852641E+03  0.16781852641E+03  0.00000000000E+00 0. -1.
         -1   -1    0    0    0  501 -0.00000000000E+00 -0.00000000000E+00 -0.98058546921E+02  0.98058546921E+02  0.00000000000E+00 0.  1.
         25    2    1    2    0    0  0.17124680283E+02  0.65175399964E+02  0.31700526826E+02  0.14557868782E+03  0.12508854269E+03 0.  0.
          5    1    3    3  502    0  0.11327037664E+02  0.77838734630E+02 -0.28408509149E+02  0.83735811831E+02  0.41800000000E+01 0. -1.
         -5    1    3    3    0  502  0.57976426191E+01 -0.12663334666E+02  0.60109035975E+02  0.61842875990E+02  0.41800000000E+01 0. -1.
        -11    1    1    2    0    0 -0.29455881121E+02 -0.18398637281E+02 -0.23553933097E+02  0.41963633669E+02  0.00000000000E+00 0.  1.
         11    1    1    2    0    0  0.12331200838E+02 -0.46776762683E+02  0.61613385759E+02  0.78334751841E+02  0.00000000000E+00 0. -1.
</event>
<event>
 7    1  0.2820496E-009  0.1198598E+03  0.7561462E-02  0.1243329E+00
         -4   -1    0    0    0  501 -0.00000000000E+00  0.00000000000E+00  0.37108914797E+03  0.37108914797E+03  0.00000000000E+00 0.  1.
          4   -1    0    0  501    0  0.00000000000E+00 -0.00000000000E+00 -0.55550209615E+02  0.55550209615E+02  0.00000000000E+00 0. -1.
         25    2    1    2    0    0  0.66078386765E+02  0.89703469323E+01  0.71786010790E+02  0.15888567595E+03  0.12507840083E+03 0.  0.
          5    1    3    3  502    0  0.31055036413E+02  0.59921256932E+02  0.50390338010E+01  0.67807349016E+02  0.41800000000E+01 0. -1.
         -5    1    3    3    0  502  0.35023350351E+02 -0.50950910000E+02  0.66746976989E+02  0.91078326933E+02  0.41800000000E+01 0. -1.
        -11    1    1    2    0    0 -0.17049248409E+01  0.33155412325E+02  0.60570868610E+02  0.69072557933E+02  0.00000000000E+00 0.  1.
         11    1    1    2    0    0 -0.64373461924E+02 -0.42125759258E+02  0.18318205896E+03  0.19868112370E+03  0.00000000000E+00 0. -1.
</event>
<event>
 7    1  0.2820496E-009  0.1088337E+03  0.7561462E-02  0.1262745E+00
          1   -1    0    0  501    0  0.00000000000E+00  0.00000000000E+00  0.64151770354E+03  0.64151770354E+03  0.00000000000E+00 0. -1.
         -1   -1    0    0    0  501 -0.00000000000E+00 -0.00000000000E+00 -0.32348193761E+02  0.32348193761E+02  0.00000000000E+00 0.  1.
         25    2    1    2    0    0  0.17604669000E+02  0.90011587192E+02  0.38536211368E+03  0.41540409534E+03  0.12507834970E+03 0.  0.
          5    1    3    3  502    0  0.13325429807E+01  0.88858994385E+02  0.38825468913E+03  0.39831755245E+03  0.41800000000E+01 0.  1.
         -5    1    3    3    0  502  0.16272126019E+02  0.11525928064E+01 -0.28925754477E+01  0.17086542894E+02  0.41800000000E+01 0.  1.
        -11    1    1    2    0    0  0.13888348448E+02 -0.76228103639E+02  0.20526601717E+03  0.21940316272E+03  0.00000000000E+00 0. -1.
         11    1    1    2    0    0 -0.31493017447E+02 -0.13783483553E+02  0.18541378925E+02  0.39058639239E+02  0.00000000000E+00 0.  1.
</event>
<event>
 7    1  0.2820496E-009  0.1093883E+03  0.7561462E-02  0.1261707E+00
         -1   -1    0    0    0  501 -0.00000000000E+00  0.00000000000E+00  0.90539479796E+02  0.90539479796E+02  0.00000000000E+00 0.  1.
          1   -1    0    0  501    0  0.00000000000E+00 -0.00000000000E+00 -0.47297090833E+03  0.47297090833E+03  0.00000000000E+00 0. -1.
         25    2    1    2    0    0 -0.24076930336E+02  0.45599403505E+02 -0.43077735391E+03  0.45152559780E+03  0.12508889901E+03 0.  0.
          5    1    3    3  502    0 -0.15994880764E+02 -0.42759934672E+02 -0.16790700594E+03  0.17405310473E+03  0.41800000000E+01 0.  1.
         -5    1    3    3    0  502 -0.80820495719E+01  0.88359338177E+02 -0.26287034797E+03  0.27747249307E+03  0.41800000000E+01 0.  1.
        -11    1    1    2    0    0  0.41449836280E+02 -0.51178889799E+02  0.63110964396E+01  0.66160393189E+02  0.00000000000E+00 0. -1.
         11    1    1    2    0    0 -0.17372905944E+02  0.55794862946E+01  0.42034828940E+02  0.45824397129E+02  0.00000000000E+00 0.  1.
</event>
<event>
 7    1  0.2820496E-009  0.7442529E+02  0.7561462E-02  0.1345660E+00
         -1   -1    0    0    0  501 -0.00000000000E+00  0.00000000000E+00  0.65188124456E+03  0.65188124456E+03  0.00000000000E+00 0.  1.
          1   -1    0    0  501    0  0.00000000000E+00 -0.00000000000E+00 -0.38731666150E+02  0.38731666150E+02  0.00000000000E+00 0. -1.
         25    2    1    2    0    0  0.43790112438E+02  0.21257201196E+02  0.56087616349E+03  0.57671371713E+03  0.12508876130E+03 0.  0.
          5    1    3    3  502    0  0.20575174621E+02  0.76925202120E+01  0.88987254563E+01  0.24066000761E+02  0.41800000000E+01 0. -1.
         -5    1    3    3    0  502  0.23214937818E+02  0.13564680984E+02  0.55197743803E+03  0.55264771636E+03  0.41800000000E+01 0. -1.
        -11    1    1    2    0    0 -0.54858776904E+02 -0.46373287833E+02  0.47294655199E+02  0.86004369879E+02  0.00000000000E+00 0.  1.
         11    1    1    2    0    0  0.11068664466E+02  0.25116086637E+02  0.49787597215E+01  0.27894823703E+02  0.00000000000E+00 0. -1.
</event>
<event>
 7    1  0.2820496E-009  0.1357425E+03  0.7561462E-02  0.1219175E+00
          2   -1    0    0  501    0  0.00000000000E+00  0.00000000000E+00  0.11656258967E+04  0.11656258967E+04  0.00000000000E+00 0.  1.
         -2   -1    0    0    0  501 -0.00000000000E+00 -0.00000000000E+00 -0.18604080681E+02  0.18604080681E+02  0.00000000000E+00 0. -1.
         25    2    1    2    0    0 -0.48848703187E+02  0.85251177430E+02  0.69728905063E+03  0.71520176954E+03  0.12509033518E+03 0.  0.
          5    1    3    3  502    0 -0.20914778565E+02 -0.28927062743E+02  0.25583800638E+03  0.25835007419E+03  0.41800000000E+01 0. -1.
         -5    1    3    3    0  502 -0.27933924622E+02  0.11417824017E+03  0.44145104425E+03  0.45685169535E+03  0.41800000000E+01 0. -1.
        -11    1    1    2    0    0  0.43531756977E+02 -0.12933644490E+02  0.77726079903E+02  0.90020200635E+02  0.00000000000E+00 0. -1.
         11    1    1    2    0    0  0.53169462098E+01 -0.72317532940E+02  0.37200668551E+03  0.37900800724E+03  0.00000000000E+00 0.  1.
</event>
<event>
 7    1  0.2820496E-009  0.9530685E+02  0.7561462E-02  0.1290486E+00
          1   -1    0    0  501    0  0.00000000000E+00  0.00000000000E+00  0.96626274141E+03  0.96626274141E+03  0.00000000000E+00 0. -1.
         -1   -1    0    0    0  501 -0.00000000000E+00 -0.00000000000E+00 -0.18442199391E+02  0.18442199391E+02  0.00000000000E+00 0.  1.
         25    2    1    2    0    0 -0.36213443648E+02 -0.64319465089E+02  0.46706898042E+03  0.48913070506E+03  0.12508799732E+03 0.  0.
          5    1    3    3  502    0 -0.19846868501E+02 -0.60408675561E+02  0.82852887781E+02  0.10452358435E+03  0.41800000000E+01 0.  1.
         -5    1    3    3    0  502 -0.16366575147E+02 -0.39107895270E+01  0.38421609264E+03  0.38460712071E+03  0.41800000000E+01 0.  1.
        -11    1    1    2    0    0  0.25169002659E+02  0.83614212712E+02  0.44490571726E+03  0.45339377203E+03  0.00000000000E+00 0. -1.
         11    1    1    2    0    0  0.11044440988E+02 -0.19294747623E+02  0.35845844335E+02  0.42180463709E+02  0.00000000000E+00 0.  1.
</event>
<event>
 7    1  0.2820496E-009  0.1155368E+03  0.7561462E-02  0.1250647E+00
         -2   -1    0    0    0  501 -0.00000000000E+00  0.00000000000E+00  0.14242430563E+02  0.14242430563E+02  0.00000000000E+00 0.  1.
          2   -1    0    0  501    0  0.00000000000E+00 -0.00000000000E+00 -0.21890032216E+04  0.21890032216E+04  0.00000000000E+00 0. -1.
         25    2    1    2    0    0 -0.26669787507E+02 -0.38178680626E+02 -0.19687484810E+04  0.19732677576E+04  0.12508466156E+03 0.  0.
          5    1    3    3  502    0  0.18363198793E+02  0.39268842259E+02 -0.58972072805E+03  0.59132669357E+03  0.41800000000E+01 0. -1.
         -5    1    3    3    0  502 -0.45032986300E+02 -0.77447522886E+02 -0.13790277530E+04  0.13819410640E+04  0.41800000000E+01 0. -1.
        -11    1    1    2    0    0  0.50680212348E+02 -0.23441518176E+01 -0.73220728321E+02  0.89080042811E+02  0.00000000000E+00 0.  1.
         11    1    1    2    0    0 -0.24010424841E+02  0.40522832444E+02 -0.13279158167E+03  0.14089785169E+03  0.00000000000E+00 0. -1.
</event>
<event>
 7    1  0.2820496E-009  0.6689610E+02  0.7561462E-02  0.1370978E+00
          1   -1    0    0  501    0  0.00000000000E+00  0.00000000000E+00  0.47327372231E+03  0.47327372231E+03  0.00000000000E+00 0. -1.
         -1   -1    0    0    0  501 -0.00000000000E+00 -0.00000000000E+00 -0.25582684385E+02  0.25582684385E+02  0.00000000000E+00 0.  1.
         25    2    1    2    0    0  0.29035094851E+02  0.43040235976E+01  0.22758072291E+03  0.26134586790E+03  0.12508843222E+03 0.  0.
          5    1    3    3  502    0  0.26580603499E+02  0.25392205055E+02  0.45587128318E+01  0.37276625687E+02  0.41800000000E+01 0.  1.
         -5    1    3    3    0  502  0.24544913529E+01 -0.21088181458E+02  0.22302201008E+03  0.22406924221E+03  0.41800000000E+01 0.  1.
        -11    1    1    2    0    0 -0.87108859690E+01 -0.36256700882E+02  0.45434045408E+02  0.58776529119E+02  0.00000000000E+00 0.  1.
         11    1    1    2    0    0 -0.20324208882E+02  0.31952677285E+02  0.17467626960E+03  0.17873400968E+03  0.00000000000E+00 0. -1.
</event>
<event>
 6    1  0.2820496E-009  0.1228748E+03  0.7561462E-02  0.1238429E+00
         -2   -1    0    0    0  501 -0.00000000000E+00  0.00000000000E+00  0.48468699558E+02  0.48468699558E+02  0.00000000000E+00 0.  1.
          2   -1    0    0  501    0  0.00000000000E+00 -0.00000000000E+00 -0.47267488791E+03  0.47267488791E+03  0.00000000000E+00 0. -1.
          5    1    1    2  502    0 -0.20247196009E+02  0.21326196757E+02 -0.11793575880E+03  0.12161854800E+03  0.41800000000E+01 0.  1.
         -5    1    1    2    0  502 -0.66173735948E+02 -0.59195818593E+02 -0.29968921454E+02  0.93801476115E+02  0.41800000000E+01 0.  1.
        -11    1    1    2    0    0 -0.83591036526E+01  0.31029201108E+02 -0.41988774798E+02  0.52874787416E+02  0.00000000000E+00 0.  1.
         11    1    1    2    0    0  0.94780035609E+02  0.68404207286E+01 -0.23431273329E+03  0.25284877593E+03  0.00000000000E+00 0. -1.
</event>
<event>
 7    1  0.2820496E-009  0.2217605E+03  0.7561462E-02  0.1132577E+00
         -2   -1    0    0    0  501 -0.00000000000E+00  0.00000000000E+00  0.12875577576E+03  0.12875577576E+03  0.00000000000E+00 0.  1.
          2   -1    0    0  501    0  0.00000000000E+00 -0.00000000000E+00 -0.44082472375E+03  0.44082472375E+03  0.00000000000E+00 0. -1.
         25    2    1    2    0    0  0.10216879284E+02 -0.20925668169E+03 -0.14060908386E+03  0.28162409006E+03  0.12509384549E+03 0.  0.
          5    1    3    3  502    0 -0.28610457171E+02 -0.11716623710E+03 -0.13552154116E+03  0.18146637676E+03  0.41800000000E+01 0.  1.
         -5    1    3    3    0  502  0.38827336455E+02 -0.92090444597E+02 -0.50875427023E+01  0.10015771330E+03  0.41800000000E+01 0.  1.
        -11    1    1    2    0    0  0.20009968684E+02  0.17874734963E+03 -0.10336582272E+03  0.20745001122E+03  0.00000000000E+00 0.  1.
         11    1    1    2    0    0 -0.30226847968E+02  0.30509332062E+02 -0.68094041408E+02  0.80506398232E+02  0.00000000000E+00 0. -1.
</event>
<event>
 7    1  0.2820496E-009  0.2733854E+03  0.7561462E-02  0.1099358E+00
         -1   -1    0    0    0  501 -0.00000000000E+00  0.00000000000E+00  0.27504302622E+03  0.27504302622E+03  0.00000000000E+00 0.  1.
          1   -1    0    0  501    0  0.00000000000E+00 -0.00000000000E+00 -0.35722377254E+03  0.35722377254E+03  0.00000000000E+00 0. -1.
         25    2    1    2    0    0  0.18500226816E+03  0.18132281427E+03  0.97624293555E+02  0.30378598534E+03  0.12510643468E+03 0.  0.
          5    1    3    3  502    0  0.13220064302E+02 -0.18277368901E+02  0.16293065245E+02  0.28138384623E+02  0.41800000000E+01 0. -1.
         -5    1    3    3    0  502  0.17178220386E+03  0.19960018317E+03  0.81331228310E+02  0.27564760072E+03  0.41800000000E+01 0. -1.
        -11    1    1    2    0    0 -0.16820985398E+03 -0.15225315008E+03 -0.18715638298E+03  0.29411407374E+03  0.00000000000E+00 0. -1.
         11    1    1    2    0    0 -0.16792414183E+02 -0.29069664196E+02  0.73513431020E+01  0.34366739677E+02  0.00000000000E+00 0.  1.
</event>
<event>
 7    1  0.2820496E-009  0.1103879E+03  0.7561462E-02  0.1259853E+00
          2   -1    0    0  501    0  0.00000000000E+00  0.00000000000E+00  0.26144835675E+03  0.26144835675E+03  0.00000000000E+00 0. -1.
         -2   -1    0    0    0  501 -0.00000000000E+00 -0.00000000000E+00 -0.64159803378E+02  0.64159803378E+02  0.00000000000E+00 0.  1.
         25    2    1    2    0    0 -0.61837624232E+02 -0.33880737284E+02  0.11454842495E+03  0.18368645009E+03  0.12509026404E+03 0.  0.
          5    1    3    3  502    0 -0.92141441995E+02 -0.45803502327E+02  0.57719615203E+02  0.11805520970E+03  0.41800000000E+01 0.  1.
         -5    1    3    3    0  502  0.30303817763E+02  0.11922765043E+02  0.56828809749E+02  0.65631240387E+02  0.41800000000E+01 0.  1.
        -11    1    1    2    0    0  0.51804064857E+02  0.45963425951E+02  0.13037764745E+02  0.70471845232E+02  0.00000000000E+00 0.  1.
         11    1    1    2    0    0  0.10033559375E+02 -0.12082688666E+02  0.69702363673E+02  0.71449864805E+02  0.00000000000E+00 0. -1.
</event>
<event>
 7    1  0.2820496E-009  0.1202804E+03  0.7561462E-02  0.1242635E+00
          1   -1    0    0  501    0  0.00000000000E+00  0.00000000000E+00  0.28333323380E+03  0.28333323380E+03  0.00000000000E+00 0. -1.
         -1   -1    0    0    0  501 -0.00000000000E+00 -0.00000000000E+00 -0.59340809703E+02  0.59340809703E+02  0.00000000000E+00 0.  1.
         25    2    1    2    0    0 -0.68477453713E+02  0.16089133680E+02  0.10609212042E+03  0.17846669317E+03  0.12508717228E+03 0.  0.
          5    1    3    3  502    0 -0.52311255053E+02 -0.47617196224E+02  0.27702730719E+02  0.76084022441E+02  0.41800000000E+01 0. -1.
         -5    1    3    3    0  502 -0.16166198660E+02  0.63706329905E+02  0.78389389696E+02  0.10238267073E+03  0.41800000000E+01 0. -1.
        -11    1    1    2    0    0 -0.21571891673E+01  0.23007387484E+02  0.61573730962E+02  0.65767147487E+02  0.00000000000E+00 0. -1.
         11    1    1    2    0    0  0.70634642880E+02 -0.39096521164E+02  0.56326572721E+02  0.98440202846E+02  0.00000000000E+00 0.  1.
</event>
<event>
 7    1  0.2820496E-009  0.1110344E+03  0.7561462E-02  0.1258666E+00
          4   -1    0    0  501    0  0.00000000000E+00  0.00000000000E+00  0.18149674332E+02  0.18149674332E+02  0.00000000000E+00 0. -1.
         -4   -1    0    0    0  501 -0.00000000000E+00 -0.00000000000E+00 -0.71403846216E+03  0.71403846216E+03  0.00000000000E+00 0.  1.
         25    2    1    2    0    0  0.35229184982E+02  0.48559324224E+01 -0.39545537891E+03  0.41629122185E+03  0.12509496044E+03 0.  0.
          5    1    3    3  502    0  0.54357075764E+02  0.54251513651E+02 -0.23198175775E+03  0.24439911364E+03  0.41800000000E+01 0. -1.
         -5    1    3    3    0  502 -0.19127890782E+02 -0.49395581228E+02 -0.16347362115E+03  0.17189210821E+03  0.41800000000E+01 0. -1.
        -11    1    1    2    0    0 -0.21233811478E+02 -0.44865229519E+02 -0.21332209324E+03  0.21902072740E+03  0.00000000000E+00 0.  1.
         11    1    1    2    0    0 -0.13995373504E+02  0.40009297096E+02 -0.87111315685E+02  0.96876187239E+02  0.00000000000E+00 0. -1.
</event>
<event>
 7    1  0.2820496E-009  0.1690828E+03  0.7561462E-02  0.1178808E+00
          2   -1    0    0  501    0  0.00000000000E+00  0.00000000000E+00  0.10493254098E+04  0.10493254098E+04  0.00000000000E+00 0. -1.
         -2   -1    0    0    0  501 -0.00000000000E+00 -0.00000000000E+00 -0.34421743684E+02  0.34421743684E+02  0.00000000000E+00 0.  1.
         25    2    1    2    0    0 -0.14728303296E+03 -0.50811900076E+02  0.56015283795E+03  0.59472068477E+03  0.12508936826E+03 0.  0.
          5    1    3    3  502    0 -0.10330240457E+03 -0.66369397064E+02  0.22540769598E+03  0.25671459924E+03  0.41800000000E+01 0. -1.
         -5    1    3    3    0  502 -0.43980628382E+02  0.15557496988E+02  0.33474514197E+03  0.33800608553E+03  0.41800000000E+01 0. -1.
        -11    1    1    2    0    0  0.98891769194E+02  0.82131946959E+00  0.34656622919E+03  0.36040034378E+03  0.00000000000E+00 0. -1.
         11    1    1    2    0    0  0.48391263762E+02  0.49990580606E+02  0.10818459895E+03  0.12862612491E+03  0.00000000000E+00 0.  1.
</event>
<event>
 7    1  0.2820496E-009  0.1636998E+03  0.7561462E-02  0.1184582E+00
         -1   -1    0    0    0  501 -0.00000000000E+00  0.00000000000E+00  0.98073766089E+02  0.98073766089E+02  0.00000000000E+00 0.  1.
          1   -1    0    0  501    0  0.00000000000E+00 -0.00000000000E+00 -0.32140769835E+03  0.32140769835E+03  0.00000000000E+00 0. -1.
         25    2    1    2    0    0  0.42842033054E+02  0.11783893277E+03 -0.19187408744E+03  0.26112220229E+03  0.12509070797E+03 0.  0.
          5    1    3    3  502    0  0.83071754741E+02  0.10294069368E+03 -0.12839243082E+03  0.18439032389E+03  0.41800000000E+01 0.  1.
         -5    1    3    3    0  502 -0.40229721686E+02  0.14898239091E+02 -0.63481656625E+02  0.76731878400E+02  0.41800000000E+01 0.  1.
        -11    1    1    2    0    0 -0.51986304107E+02 -0.23295546438E+02 -0.27588059205E+02  0.63295807991E+02  0.00000000000E+00 0.  1.
         11    1    1    2    0    0  0.91442710529E+01 -0.94543386334E+02 -0.38717856084E+01  0.95063454157E+02  0.00000000000E+00 0. -1.
</event>
<event>
 7    1  0.2820496E-009  0.1004631E+03  0.7561462E-02  0.1279325E+00
          1   -1    0    0  501    0  0.00000000000E+00  0.00000000000E+00  0.14391676519E+03  0.14391676519E+03  0.00000000000E+00 0. -1.
         -1   -1    0    0    0  501 -0.00000000000E+00 -0.00000000000E+00 -0.11010289999E+03  0.11010289999E+03  0.00000000000E+00 0.  1.
         25    2    1    2    0    0  0.63704394302E+02 -0.19315699222E+02  0.17302751393E+02  0.14275311903E+03  0.12509085378E+03 0.  0.
          5    1    3    3  502    0 -0.29234037866E+02 -0.20228812111E+02  0.32661567252E+02  0.48457034420E+02  0.41800000000E+01 0.  1.
         -5    1    3    3    0  502  0.92938432169E+02  0.91311288895E+00 -0.15358815859E+02  0.94296084615E+02  0.41800000000E+01 0.  1.
        -11    1    1    2    0    0 -0.18507059284E+02 -0.70083464654E+01 -0.33494694245E+02  0.38904019150E+02  0.00000000000E+00 0.  1.
         11    1    1    2    0    0 -0.45197335018E+02  0.26324045687E+02  0.50005808054E+02  0.72362526996E+02  0.00000000000E+00 0. -1.
</event>
<event>
 7    1  0.2820496E-009  0.9327339E+02  0.7561462E-02  0.1295113E+00
         -3   -1    0    0    0  501 -0.00000000000E+00  0.00000000000E+00  0.48447682394E+02  0.48447682394E+02  0.00000000000E+00 0. -1.
          3   -1    0    0  501    0  0.00000000000E+00 -0.00000000000E+00 -0.31612879706E+03  0.31612879706E+03  0.00000000000E+00 0.  1.
         25    2    1    2    0    0 -0.80112933326E+01  0.26683782056E+02 -0.22771400566E+03  0.26129645941E+03  0.12508383702E+03 0.  0.
          5    1    3    3  502    0  0.67544385886E+01  0.60404897550E+02 -0.21281497908E+03  0.22136409331E+03  0.41800000000E+01 0. -1.
         -5    1    3    3    0  502 -0.14765731921E+02 -0.33721115494E+02 -0.14899026577E+02  0.39932366099E+02  0.41800000000E+01 0. -1.
        -11    1    1    2    0    0 -0.31692815217E+02  0.11279455771E+02 -0.34320199785E+02  0.48057640101E+02  0.00000000000E+00 0.  1.
         11    1    1    2    0    0  0.39704108549E+02 -0.37963237827E+02 -0.56469092209E+01  0.55222379935E+02  0.00000000000E+00 0. -1.
</event>
<event>
 7    1  0.2820496E-009  0.1060736E+03  0.7561462E-02  0.1268019E+00
          1   -1    0    0  501    0  0.00000000000E+00  0.00000000000E+00  0.19043947557E+03  0.19043947557E+03  0.00000000000E+00 0. -1.
         -1   -1    0    0    0  501 -0.00000000000E+00 -0.00000000000E+00 -0.97246645834E+02  0.97246645834E+02  0.00000000000E+00 0.  1.
         25    2    1    2    0    0 -0.32609138990E+00  0.30371765037E+02  0.13226677983E+03  0.18457878623E+03  0.12510905975E+03 0.  0.
          5    1    3    3  502    0 -0.24308102894E+02  0.68608683176E+02  0.11481396481E+03  0.13600644907E+03  0.41800000000E+01 0.  1.
         -5    1    3    3    0  502  0.23982011504E+02 -0.38236918139E+02  0.17452815021E+02  0.48572337155E+02  0.41800000000E+01 0.  1.
        -11    1    1    2    0    0  0.39239479087E+02  0.71142128099E+01 -0.25706101344E+02  0.47446310597E+02  0.00000000000E+00 0.  1.
         11    1    1    2    0    0 -0.38913387698E+02 -0.37485977847E+02 -0.13367848751E+02  0.55661024582E+02  0.00000000000E+00 0. -1.
</event>
<event>
 7    1  0.2820496E-009  0.1793172E+03  0.7561462E-02  0.1168465E+00
          2   -1    0    0  501    0  0.00000000000E+00  0.00000000000E+00  0.17104339566E+04  0.17104339566E+04  0.00000000000E+00 0. -1.
         -2   -1    0    0    0  501 -0.00000000000E+00 -0.00000000000E+00 -0.21519316327E+02  0.21519316327E+02  0.00000000000E+00 0.  1.
         25    2    1    2    0    0 -0.15574515211E+03 -0.27593067640E+02  0.93325428358E+03  0.95478806232E+03  0.12505501328E+03 0.  0.
          5    1    3    3  502    0 -0.14840648424E+03  0.21747669410E+02  0.64535385753E+03  0.66256812444E+03  0.41800000000E+01 0. -1.
         -5    1    3    3    0  502 -0.73386678701E+01 -0.49340737051E+02  0.28790042605E+03  0.29221993788E+03  0.41800000000E+01 0. -1.
        -11    1    1    2    0    0  0.22398862669E+02  0.78056563848E+01  0.26155321966E+02  0.35309179934E+02  0.00000000000E+00 0.  1.
         11    1    1    2    0    0  0.13334628944E+03  0.19787411256E+02  0.72950503477E+03  0.74185603072E+03  0.00000000000E+00 0. -1.
</event>
<event>
 7    1  0.2820496E-009  0.8769568E+02  0.7561462E-02  0.1308530E+00
         -1   -1    0    0    0  501 -0.00000000000E+00  0.00000000000E+00  0.26329660616E+02  0.26329660616E+02  0.00000000000E+00 0.  1.
          1   -1    0    0  501    0  0.00000000000E+00 -0.00000000000E+00 -0.61120576529E+03  0.61120576529E+03  0.00000000000E+00 0. -1.
         25    2    1    2    0    0  0.81212259999E+01 -0.67435758490E+02 -0.33840398642E+03  0.36712210891E+03  0.12509136258E+03 0.  0.
          5    1    3    3  502    0  0.21983309826E+02 -0.25617661005E+02 -0.31543322642E+03  0.31726191576E+03  0.41800000000E+01 0.  1.
         -5    1    3    3    0  502 -0.13862083826E+02 -0.41818097486E+02 -0.22970759999E+02  0.49860193143E+02  0.41800000000E+01 0.  1.
        -11    1    1    2    0    0 -0.38992747882E+02  0.39061060027E+02 -0.70608451540E+02  0.89620054824E+02  0.00000000000E+00 0.  1.
         11    1    1    2    0    0  0.30871521882E+02  0.28374698463E+02 -0.17586366672E+03  0.18079326217E+03  0.00000000000E+00 0. -1.
</event>
<event>
 7    1  0.2820496E-009  0.6826601E+02  0.7561462E-02  0.1366091E+00
          1   -1    0    0  501    0  0.00000000000E+00  0.00000000000E+00  0.49401649208E+03  0.49401649208E+03  0.00000000000E+00 0. -1.
         -1   -1    0    0    0  501 -0.00000000000E+00 -0.00000000000E+00 -0.26183288640E+02  0.26183288640E+02  0.00000000000E+00 0.  1.
         25    2    1    2    0    0  0.25508021059E+02 -0.12141574773E+01  0.32181267110E+03  0.34621138287E+03  0.12508714177E+03 0.  0.
          5    1    3    3  502    0  0.47768897966E+02 -0.24979937130E+02  0.54075709313E+02  0.76469076166E+02  0.41800000000E+01 0. -1.
         -5    1    3    3    0  502 -0.22260876908E+02  0.23765779652E+02  0.26773696178E+03  0.26974230671E+03  0.41800000000E+01 0. -1.
        -11    1    1    2    0    0  0.11970965937E+02  0.20512681364E+01 -0.86040252244E+01  0.14884252635E+02  0.00000000000E+00 0.  1.
         11    1    1    2    0    0 -0.37478986995E+02 -0.83711065913E+00  0.15462455757E+03  0.15910414521E+03  0.00000000000E+00 0. -1.
</event>
<event>
 7    1  0.2820496E-009  0.3001024E+03  0.7561462E-02  0.1085189E+00
          2   -1    0    0  501    0  0.00000000000E+00  0.00000000000E+00  0.16408457816E+04  0.16408457816E+04  0.00000000000E+00 0. -1.
         -2   -1    0    0    0  501 -0.00000000000E+00 -0.00000000000E+00 -0.66173002408E+02  0.66173002408E+02  0.00000000000E+00 0.  1.
         25    2    1    2    0    0 -0.27747429891E+03 -0.72629485272E+02  0.11100549252E+04  0.11533155037E+04  0.12509070820E+03 0.  0.
          5    1    3    3  502    0 -0.29030654878E+03 -0.67461083408E+02  0.10453003471E+04  0.10869678827E+04  0.41800000000E+01 0. -1.
         -5    1    3    3    0  502  0.12832249874E+02 -0.51684018632E+01  0.64754578118E+02  0.66347620921E+02  0.41800000000E+01 0. -1.
        -11    1    1    2    0    0  0.62323061790E+02  0.26039209856E+02  0.19058352287E+03  0.20219862431E+03  0.00000000000E+00 0. -1.
         11    1    1    2    0    0  0.21515123712E+03  0.46590275416E+02  0.27403433106E+03  0.35150465601E+03  0.00000000000E+00 0.  1.
</event>
<event>
 7    1  0.2820496E-009  0.8963446E+02  0.7561462E-02  0.1303739E+00
         -1   -1    0    0    0  501 -0.00000000000E+00  0.00000000000E+00  0.44951293901E+02  0.44951293901E+02  0.00000000000E+00 0.  1.
          1   -1    0    0  501    0  0.00000000000E+00 -0.00000000000E+00 -0.27897163294E+03  0.27897163294E+03  0.00000000000E+00 0. -1.
         25    2    1    2    0    0 -0.26493773287E+02  0.12012228669E+01 -0.10937412940E+03  0.16826732833E+03  0.12509128923E+03 0.  0.
          5    1    3    3  502    0  0.13753520050E+02 -0.43006757629E+02 -0.96995697952E+02  0.10707183727E+03  0.41800000000E+01 0. -1.
         -5    1    3    3    0  502 -0.40247293336E+02  0.44207980496E+02 -0.12378431450E+02  0.61195491056E+02  0.41800000000E+01 0. -1.
        -11    1    1    2    0    0  0.37179734315E+02  0.25599427894E+02 -0.24344650018E+02  0.51286697463E+02  0.00000000000E+00 0.  1.
         11    1    1    2    0    0 -0.10685961028E+02 -0.26800650761E+02 -0.10030155962E+03  0.10436890105E+03  0.00000000000E+00 0. -1.
</event>
<event>
 7    1  0.2820496E-009  0.2236078E+03  0.7561462E-02  0.1131222E+00
         -1   -1    0    0    0  501 -0.00000000000E+00  0.00000000000E+00  0.63685359514E+02  0.63685359514E+02  0.00000000000E+00 0.  1.
          1   -1    0    0  501    0  0.00000000000E+00 -0.00000000000E+00 -0.81035763782E+03  0.81035763782E+03  0.00000000000E+00 0. -1.
         25    2    1    2    0    0  0.13896864281E+03  0.13769145090E+03 -0.31834472571E+03  0.39403170446E+03  0.12508557229E+03 0.  0.
          5    1    3    3  502    0  0.12375451887E+03  0.16139706345E+03 -0.27235385492E+03  0.33993865288E+03  0.41800000000E+01 0.  1.
         -5    1    3    3    0  502  0.15214123935E+02 -0.23705612544E+02 -0.45990870784E+02  0.54093051575E+02  0.41800000000E+01 0.  1.
        -11    1    1    2    0    0 -0.14935651743E+03 -0.10928750423E+03 -0.38499952496E+03  0.42717181800E+03  0.00000000000E+00 0. -1.
         11    1    1    2    0    0  0.10387874619E+02 -0.28403946674E+02 -0.43328027644E+02  0.52839474877E+02  0.00000000000E+00 0.  1.
</event>
<event>
 7    1  0.2820496E-009  0.1324180E+03  0.7561462E-02  0.1223911E+00
         -1   -1    0    0    0  501 -0.00000000000E+00  0.00000000000E+00  0.18969796029E+03  0.18969796029E+03  0.00000000000E+00 0.  1.
          1   -1    0    0  501    0  0.00000000000E+00 -0.00000000000E+00 -0.12345360350E+03  0.12345360350E+03  0.00000000000E+00 0. -1.
         25    2    1    2    0    0 -0.26230723873E+02 -0.10096259891E+03  0.11270157580E+02  0.16327137006E+03  0.12509606938E+03 0.  0.
          5    1    3    3  502    0 -0.49822717700E+02 -0.61756550176E+02  0.57508333305E+02  0.98085959690E+02  0.41800000000E+01 0.  1.
         -5    1    3    3    0  502  0.23591993827E+02 -0.39206048738E+02 -0.46238175725E+02  0.65185410367E+02  0.41800000000E+01 0.  1.
        -11    1    1    2    0    0  0.46779851936E+01  0.11409553290E+03  0.44579175626E+02  0.12258457110E+03  0.00000000000E+00 0.  1.
         11    1    1    2    0    0  0.21552738679E+02 -0.13132933985E+02  0.10395023575E+02  0.27295622630E+02  0.00000000000E+00 0. -1.
</event>
<event>
 7    1  0.2820496E-009  0.9183176E+02  0.7561462E-02  0.1298475E+00
          1   -1    0    0  501    0  0.00000000000E+00  0.00000000000E+00  0.32401592037E+02  0.32401592037E+02  0.00000000000E+00 0. -1.
         -1   -1    0    0    0  501 -0.00000000000E+00 -0.00000000000E+00 -0.48981878174E+03  0.48981878174E+03  0.00000000000E+00 0.  1.
         25    2    1    2    0    0  0.57812566501E+02 -0.24385107148E+02 -0.23077883477E+03  0.26989528019E+03  0.12509062874E+03 0.  0.
          5    1    3    3  502    0  0.39546175738E+02  0.12446748896E+02 -0.69022356686E+01  0.42236652694E+02  0.41800000000E+01 0.  1.
         -5    1    3    3    0  502  0.18266390763E+02 -0.36831856043E+02 -0.22387659910E+03  0.22765862750E+03  0.41800000000E+01 0.  1.
        -11    1    1    2    0    0 -0.58712554312E+02  0.48734887143E+02 -0.20827944909E+03  0.22181655072E+03  0.00000000000E+00 0.  1.
         11    1    1    2    0    0  0.89998781064E+00 -0.24349779995E+02 -0.18358905844E+02  0.30508542864E+02  0.00000000000E+00 0. -1.
</event>
<event>
 7    1  0.2820496E-009  0.1472954E+03  0.7561462E-02  0.1203836E+00
          4   -1    0    0  501    0  0.00000000000E+00  0.00000000000E+00  0.63074867433E+03  0.63074867433E+03  0.00000000000E+00 0. -1.
         -4   -1    0    0    0  501 -0.00000000000E+00 -0.00000000000E+00 -0.60949699316E+02  0.60949699316E+02  0.00000000000E+00 0.  1.
         25    2    1    2    0    0  0.11760336185E+03  0.30670545138E+01  0.99687513817E+02  0.19857547688E+03  0.12511859200E+03 0.  0.
          5    1    3    3  502    0  0.12496078227E+03 -0.15025558327E+02  0.34751888708E+02  0.13063740152E+03  0.41800000000E+01 0.  1.
         -5    1    3    3    0  502 -0.73574204147E+01  0.18092612841E+02  0.64935625109E+02  0.67938075354E+02  0.41800000000E+01 0.  1.
        -11    1    1    2    0    0 -0.20309711402E+02 -0.39806031171E+02  0.13000689549E+03  0.13747289685E+03  0.00000000000E+00 0. -1.
         11    1    1    2    0    0 -0.97293650451E+02  0.36738976657E+02  0.34010456571E+03  0.35564999992E+03  0.00000000000E+00 0.  1.
</event>
<event>
 7    1  0.2820496E-009  0.1010587E+03  0.7561462E-02  0.1278085E+00
          3   -1    0    0  501    0  0.00000000000E+00  0.00000000000E+00  0.37335925130E+02  0.37335925130E+02  0.00000000000E+00 0. -1.
         -3   -1    0    0    0  501 -0.00000000000E+00 -0.00000000000E+00 -0.34266545393E+03  0.34266545393E+03  0.00000000000E+00 0.  1.
         25    2    1    2    0    0  0.26988722407E+02 -0.11302865248E+02 -0.18981920725E+03  0.22920420608E+03  0.12508833177E+03 0.  0.
          5    1    3    3  502    0 -0.37843365570E+02 -0.13757671986E+02 -0.14421964253E+03  0.14979376338E+03  0.41800000000E+01 0. -1.
         -5    1    3    3    0  502  0.64832087977E+02  0.24548067378E+01 -0.45599564728E+02  0.79410442707E+02  0.41800000000E+01 0. -1.
        -11    1    1    2    0    0 -0.61401025452E+02  0.97833076304E+01 -0.68379244399E+02  0.92420344618E+02  0.00000000000E+00 0.  1.
         11    1    1    2    0    0  0.34412303045E+02  0.15195576175E+01 -0.47131077151E+02  0.58376828362E+02  0.00000000000E+00 0. -1.
</event>
<event>
 7    1  0.2820496E-009  0.8536014E+02  0.7561462E-02  0.1314493E+00
          1   -1    0    0  501    0  0.00000000000E+00  0.00000000000E+00  0.67775082613E+03  0.67775082613E+03  0.00000000000E+00 0. -1.
         -1   -1    0    0    0  501 -0.00000000000E+00 -0.00000000000E+00 -0.49527744241E+02  0.49527744241E+02  0.00000000000E+00 0.  1.
         25    2    1    2    0    0 -0.19056306193E+02  0.18038722648E+02  0.59959992057E+03  0.61307196458E+03  0.12509448702E+03 0.  0.
          5    1    3    3  502    0  0.43199465414E+02 -0.20983097313E+02  0.33414647975E+03  0.33760602263E+03  0.41800000000E+01 0. -1.
         -5    1    3    3    0  502 -0.62255771607E+02  0.39021819961E+02  0.26545344081E+03  0.27546594194E+03  0.41800000000E+01 0. -1.
        -11    1    1    2    0    0  0.17053502954E+02 -0.31227016928E+02 -0.34577198856E+02  0.49613820957E+02  0.00000000000E+00 0.  1.
         11    1    1    2    0    0  0.20028032393E+01  0.13188294280E+02  0.63200360180E+02  0.64592784843E+02  0.00000000000E+00 0. -1.
</event>
<event>
 7    1  0.2820496E-009  0.2218766E+03  0.7561462E-02  0.1132492E+00
         -2   -1    0    0    0  501 -0.00000000000E+00  0.00000000000E+00  0.13657278786E+03  0.13657278786E+03  0.00000000000E+00 0.  1.
          2   -1    0    0  501    0  0.00000000000E+00 -0.00000000000E+00 -0.42781934218E+03  0.42781934218E+03  0.00000000000E+00 0. -1.
         25    2    1    2    0    0 -0.11706080483E+03 -0.18066267305E+03 -0.14530691599E+03  0.28827684431E+03  0.12508879114E+03 0.  0.
          5    1    3    3  502    0 -0.10736325854E+03 -0.16842512077E+03 -0.16757946561E+03  0.26075705223E+03  0.41800000000E+01 0.  1.
         -5    1    3    3    0  502 -0.96975462846E+01 -0.12237552277E+02  0.22272549619E+02  0.27519792082E+02  0.41800000000E+01 0.  1.
        -11    1    1    2    0    0  0.12576808098E+03  0.14905401013E+03 -0.14550959632E+03  0.24332642839E+03  0.00000000000E+00 0. -1.
         11    1    1    2    0    0 -0.87072761551E+01  0.31608662913E+02 -0.43004200975E+00  0.32788857335E+02  0.00000000000E+00 0.  1.
</event>
<event>
 7    1  0.2820496E-009  0.1469437E+03  0.7561462E-02  0.1204280E+00
          2   -1    0    0  501    0  0.00000000000E+00  0.00000000000E+00  0.60123148543E+03  0.60123148543E+03  0.00000000000E+00 0. -1.
         -2   -1    0    0    0  501 -0.00000000000E+00 -0.00000000000E+00 -0.37245914652E+02  0.37245914652E+02  0.00000000000E+00 0.  1.
         25    2    1    2    0    0 -0.23425803738E+02  0.98411694348E+02  0.26558366776E+03  0.31050928752E+03  0.12509077979E+03 0.  0.
          5    1    3    3  502    0  0.49853345805E+02  0.38782995828E+02  0.78147140080E+02  0.10056801060E+03  0.41800000000E+01 0.  1.
         -5    1    3    3    0  502 -0.73279149542E+02  0.59628698519E+02  0.18743652768E+03  0.20994127692E+03  0.41800000000E+01 0.  1.
        -11    1    1    2    0    0 -0.23750383890E+02 -0.83090536434E+02  0.19446079225E+03  0.21279830287E+03  0.00000000000E+00 0.  1.
         11    1    1    2    0    0  0.47176187627E+02 -0.15321157914E+02  0.10394111077E+03  0.11516980970E+03  0.00000000000E+00 0. -1.
</event>
<event>
 7    1  0.2820496E-009  0.1002650E+03  0.7561462E-02  0.1279740E+00
         -2   -1    0    0    0  501 -0.00000000000E+00  0.00000000000E+00  0.19568589257E+02  0.19568589257E+02  0.00000000000E+00 0.  1.
          2   -1    0    0  501    0  0.00000000000E+00 -0.00000000000E+00 -0.58024952992E+03  0.58024952992E+03  0.00000000000E+00 0. -1.
         25    2    1    2    0    0 -0.34775105106E+01  0.84308440557E+01 -0.30398993472E+03  0.32884694198E+03  0.12508900283E+03 0.  0.
          5    1    3    3  502    0  0.47033407896E+02  0.35059332053E+02 -0.91431201640E+02  0.10871262694E+03  0.41800000000E+01 0. -1.
         -5    1    3    3    0  502 -0.50510918407E+02 -0.26628487997E+02 -0.21255873308E+03  0.22013431505E+03  0.41800000000E+01 0. -1.
        -11    1    1    2    0    0 -0.40049583660E+02 -0.84847821731E+01 -0.93393135279E+02  0.10197175294E+03  0.00000000000E+00 0.  1.
         11    1    1    2    0    0  0.43527094170E+02  0.53938117414E-01 -0.16329787066E+03  0.16899942425E+03  0.00000000000E+00 0. -1.
</event>
<event>
 7    1  0.2820496E-009  0.1421604E+03  0.7561462E-02  0.1210451E+00
         -1   -1    0    0    0  501 -0.00000000000E+00  0.00000000000E+00  0.64637992144E+02  0.64637992144E+02  0.00000000000E+00 0.  1.
          1   -1    0    0  501    0  0.00000000000E+00 -0.00000000000E+00 -0.35974154078E+03  0.35974154078E+03  0.00000000000E+00 0. -1.
         25    2    1    2    0    0 -0.61247705576E+02  0.71258453282E+02 -0.10105357679E+03  0.18625207877E+03  0.12509581472E+03 0.  0.
          5    1    3    3  502    0 -0.64693866987E+02  0.99879018155E+02 -0.53622812156E+02  0.13059093796E+03  0.41800000000E+01 0.  1.
         -5    1    3    3    0  502  0.34461614112E+01 -0.28620564872E+02 -0.47430764636E+02  0.55661140808E+02  0.41800000000E+01 0.  1.
        -11    1    1    2    0    0  0.84872895409E+02 -0.73648725570E+02 -0.14337291467E+03  0.18216293754E+03  0.00000000000E+00 0.  1.
         11    1    1    2    0    0 -0.23625189833E+02  0.23902722875E+01 -0.50677057180E+02  0.55964516621E+02  0.00000000000E+00 0. -1.
</event>
<event>
 7    1  0.2820496E-009  0.1171845E+03  0.7561462E-02  0.1247815E+00
         -2   -1    0    0    0  501 -0.00000000000E+00  0.00000000000E+00  0.15465602402E+03  0.15465602402E+03  0.00000000000E+00 0. -1.
          2   -1    0    0  501    0  0.00000000000E+00 -0.00000000000E+00 -0.11671699914E+03  0.11671699914E+03  0.00000000000E+00 0.  1.
         25    2    1    2    0    0  0.72825283905E+02 -0.32386533782E+02  0.17028127734E+02  0.14929663912E+03  0.12508844780E+03 0.  0.
          5    1    3    3  502    0 -0.21184321362E+02 -0.81874121131E+01 -0.32789797266E+02  0.40105515748E+02  0.41800000000E+01 0.  1.
         -5    1    3    3    0  502  0.94009605267E+02 -0.24199121669E+02  0.49817925001E+02  0.10919112337E+03  0.41800000000E+01 0.  1.
        -11    1    1    2    0    0 -0.47476855630E+02  0.60076445802E+02  0.31914860967E+02  0.82956551949E+02  0.00000000000E+00 0.  1.
         11    1    1    2    0    0 -0.25348428275E+02 -0.27689912019E+02 -0.11003963821E+02  0.39119832099E+02  0.00000000000E+00 0. -1.
</event>
<event>
 7    1  0.2820496E-009  0.1007758E+03  0.7561462E-02  0.1278673E+00
          2   -1    0    0  501    0  0.00000000000E+00  0.00000000000E+00  0.10880473092E+03  0.10880473092E+03  0.00000000000E+00 0. -1.
         -2   -1    0    0    0  501 -0.00000000000E+00 -0.00000000000E+00 -0.12754370914E+03  0.12754370914E+03  0.00000000000E+00 0.  1.
         25    2    1    2    0    0 -0.26541966650E+02  0.70284517294E+01  0.26586098662E+02  0.13079838200E+03  0.12509005142E+03 0.  0.
          5    1    3    3  502    0 -0.44435580263E+02 -0.43369852453E+02  0.41885608106E+02  0.75015608119E+02  0.41800000000E+01 0.  1.
         -5    1    3    3    0  502  0.17893613612E+02  0.50398304183E+02 -0.15299509444E+02  0.55782773881E+02  0.41800000000E+01 0.  1.
        -11    1    1    2    0    0 -0.21075036256E+01  0.34861463635E+02 -0.42095722058E+02  0.54697468259E+02  0.00000000000E+00 0.  1.
         11    1    1    2    0    0  0.28649470276E+02 -0.41889915365E+02 -0.32293548234E+01  0.50852589796E+02  0.00000000000E+00 0. -1.
</event>
<event>
 7    1  0.2820496E-009  0.1135862E+03  0.7561462E-02  0.1254069E+00
          1   -1    0    0  501    0  0.00000000000E+00  0.00000000000E+00  0.59656887858E+02  0.59656887858E+02  0.00000000000E+00 0. -1.
         -1   -1    0    0    0  501 -0.00000000000E+00 -0.00000000000E+00 -0.26764446922E+03  0.26764446922E+03  0.00000000000E+00 0.  1.
         25    2    1    2    0    0 -0.51289759888E+02 -0.33661237230E+02 -0.90963413922E+02  0.16638891028E+03  0.12508880218E+03 0.  0.
          5    1    3    3  502    0  0.33530940011E+02  0.15022030668E+02 -0.74623802661E+01  0.37724592279E+02  0.41800000000E+01 0.  1.
         -5    1    3    3    0  502 -0.84820699899E+02 -0.48683267898E+02 -0.83501033656E+02  0.12866431800E+03  0.41800000000E+01 0.  1.
        -11    1    1    2    0    0  0.39505506981E+01  0.43729148606E+02 -0.12381555757E+02  0.45619603370E+02  0.00000000000E+00 0. -1.
         11    1    1    2    0    0  0.47339209190E+02 -0.10067911376E+02 -0.10464261169E+03  0.11529284343E+03  0.00000000000E+00 0.  1.
</event>
<event>
 7    1  0.2820496E-009  0.1024342E+03  0.7561462E-02  0.1275259E+00
          2   -1    0    0  501    0  0.00000000000E+00  0.00000000000E+00  0.79229635500E+02  0.79229635500E+02  0.00000000000E+00 0. -1.
         -2   -1    0    0    0  501 -0.00000000000E+00 -0.00000000000E+00 -0.18328253186E+03  0.18328253186E+03  0.00000000000E+00 0.  1.
         25    2    1    2    0    0 -0.42045067894E+02  0.17607170438E+02 -0.29039016995E+02  0.13626593197E+03  0.12508932618E+03 0.  0.
          5    1    3    3  502    0  0.25845610843E+02 -0.18365713080E+02 -0.47381102486E+02  0.57164117150E+02  0.41800000000E+01 0. -1.
         -5    1    3    3    0  502 -0.67890678738E+02  0.35972883518E+02  0.18342085490E+02  0.79101814822E+02  0.41800000000E+01 0. -1.
        -11    1    1    2    0    0  0.42476490901E+02  0.27649702563E+02 -0.60045697787E+02  0.78576358746E+02  0.00000000000E+00 0.  1.
         11    1    1    2    0    0 -0.43142300670E+00 -0.45256873001E+02 -0.14968181582E+02  0.47669876647E+02  0.00000000000E+00 0. -1.
</event>
<event>
 7    1  0.2820496E-009  0.8828154E+02  0.7561462E-02  0.1307067E+00
         -2   -1    0    0    0  501 -0.00000000000E+00  0.00000000000E+00  0.34514869647E+02  0.34514869647E+02  0.00000000000E+00 0.  1.
          2   -1    0    0  501    0  0.00000000000E+00 -0.00000000000E+00 -0.44692331188E+03  0.44692331188E+03  0.00000000000E+00 0. -1.
         25    2    1    2    0    0  0.45112649990E+02 -0.31029961887E+02 -0.18362647919E+03  0.22883295738E+03  0.12509128187E+03 0.  0.
          5    1    3    3  502    0  0.88358137912E+01 -0.34255025421E+02 -0.18851349199E+03  0.19184964799E+03  0.41800000000E+01 0. -1.
         -5    1    3    3    0  502  0.36276836199E+02  0.32250635348E+01  0.48870127981E+01  0.36983309391E+02  0.41800000000E+01 0. -1.
        -11    1    1    2    0    0 -0.67005940358E+02  0.42717289683E+02 -0.14652212781E+03  0.16668322297E+03  0.00000000000E+00 0. -1.
         11    1    1    2    0    0  0.21893290368E+02 -0.11687327796E+02 -0.82259835231E+02  0.85922001178E+02  0.00000000000E+00 0.  1.
</event>
<event>
 7    1  0.2820496E-009  0.9732044E+02  0.7561462E-02  0.1286034E+00
          4   -1    0    0  501    0  0.00000000000E+00  0.00000000000E+00  0.48668477789E+03  0.48668477789E+03  0.00000000000E+00 0. -1.
         -4   -1    0    0    0  501 -0.00000000000E+00 -0.00000000000E+00 -0.39112168361E+02  0.39112168361E+02  0.00000000000E+00 0.  1.
         25    2    1    2    0    0 -0.46029191601E+02  0.71052439879E+02  0.23293994299E+03  0.27762480605E+03  0.12508948878E+03 0.  0.
          5    1    3    3  502    0 -0.18209375833E+01  0.20218376039E+02 -0.11729986431E+02  0.23815195254E+02  0.41800000000E+01 0. -1.
         -5    1    3    3    0  502 -0.44208254018E+02  0.50834063840E+02  0.24466992942E+03  0.25380961080E+03  0.41800000000E+01 0. -1.
        -11    1    1    2    0    0 -0.15991725038E+02 -0.22738378702E+02  0.11010625448E+02  0.29899883084E+02  0.00000000000E+00 0.  1.
         11    1    1    2    0    0  0.62020916639E+02 -0.48314061177E+02  0.20362204109E+03  0.21827225711E+03  0.00000000000E+00 0. -1.
</event>
<event>
 7    1  0.2820496E-009  0.6123108E+02  0.7561462E-02  0.1392737E+00
         -1   -1    0    0    0  501 -0.00000000000E+00  0.00000000000E+00  0.75280749189E+02  0.75280749189E+02  0.00000000000E+00 0.  1.
          1   -1    0    0  501    0  0.00000000000E+00 -0.00000000000E+00 -0.16599041976E+03  0.16599041976E+03  0.00000000000E+00 0. -1.
         25    2    1    2    0    0  0.25836723772E+02 -0.72192786435E+01 -0.48283594375E+02  0.13674437171E+03  0.12509221970E+03 0.  0.
          5    1    3    3  502    0 -0.87583421905E+01  0.16810013656E+02  0.36860662477E+02  0.41658924078E+02  0.41800000000E+01 0. -1.
         -5    1    3    3    0  502  0.34595065963E+02 -0.24029292299E+02 -0.85144256852E+02  0.95085447637E+02  0.41800000000E+01 0. -1.
        -11    1    1    2    0    0  0.35804468869E-01 -0.21825965276E+02 -0.58500008026E+02  0.62438970053E+02  0.00000000000E+00 0. -1.
         11    1    1    2    0    0 -0.25872528241E+02  0.29045243919E+02  0.16073931834E+02  0.42087827178E+02  0.00000000000E+00 0.  1.
</event>
<event>
 7    1  0.2838288E-009  0.1224012E+03  0.7561462E-02  0.1239188E+00
         -1   -1    0    0    0  501 -0.00000000000E+00  0.00000000000E+00  0.37244079943E+02  0.37244079943E+02  0.00000000000E+00 0.  1.
          1   -1    0    0  501    0  0.00000000000E+00 -0.00000000000E+00 -0.61997695389E+03  0.61997695389E+03  0.00000000000E+00 0. -1.
         25    2    1    2    0    0 -0.33241614585E+02 -0.99958499780E+02 -0.29204890084E+03  0.33471645817E+03  0.12508333330E+03 0.  0.
          5    1    3    3  502    0  0.79165859577E+01 -0.37126368587E+02 -0.56548546458E+01  0.38606856370E+02  0.41800000000E+01 0.  1.
         -5    1    3    3    0  502 -0.41158200543E+02 -0.62832131192E+02 -0.28639404620E+03  0.29610960180E+03  0.41800000000E+01 0.  1.
        -11    1    1    2    0    0  0.42389139479E+02  0.13564861432E+02 -0.51693090527E+02  0.68213050215E+02  0.00000000000E+00 0.  1.
         11    1    1    2    0    0 -0.91475248934E+01  0.86393638347E+02 -0.23899088258E+03  0.25429152545E+03  0.00000000000E+00 0. -1.
</event>
<event>
 7    1  0.2820496E-009  0.1427642E+03  0.7561462E-02  0.1209657E+00
         -2   -1    0    0    0  501 -0.00000000000E+00  0.00000000000E+00  0.24044560173E+03  0.24044560173E+03  0.00000000000E+00 0. -1.
          2   -1    0    0  501    0  0.00000000000E+00 -0.00000000000E+00 -0.10737794908E+03  0.10737794908E+03  0.00000000000E+00 0.  1.
         25    2    1    2    0    0 -0.40556128268E+01 -0.11230769666E+03  0.28969858014E+02  0.17063482750E+03  0.12509006739E+03 0.  0.
          5    1    3    3  502    0 -0.41987118538E+02 -0.90590745752E+02  0.60279007986E+02  0.11670746567E+03  0.41800000000E+01 0. -1.
         -5    1    3    3    0  502  0.37931505711E+02 -0.21716950905E+02 -0.31309149972E+02  0.53927361831E+02  0.41800000000E+01 0. -1.
        -11    1    1    2    0    0 -0.41016398822E+02  0.59346980143E+02  0.39378858080E+02  0.82189436597E+02  0.00000000000E+00 0.  1.
         11    1    1    2    0    0  0.45072011649E+02  0.52960716515E+02  0.64718936557E+02  0.94999286718E+02  0.00000000000E+00 0. -1.
</event>
<event>
 7    1  0.2820496E-009  0.1228536E+03  0.7561462E-02  0.1238462E+00
         -2   -1    0    0    0  501 -0.00000000000E+00  0.00000000000E+00  0.87833340164E+02  0.87833340164E+02  0.00000000000E+00 0. -1.
          2   -1    0    0  501    0  0.00000000000E+00 -0.00000000000E+00 -0.17818075481E+03  0.17818075481E+03  0.00000000000E+00 0.  1.
         25    2    1    2    0    0  0.48132654211E+02  0.35111761922E+02 -0.32265718662E+02  0.14227423406E+03  0.12510512719E+03 0.  0.
          5    1    3    3  502    0  0.79135402879E+02  0.57884928478E+02 -0.12822514854E+02  0.98969521677E+02  0.41800000000E+01 0. -1.
         -5    1    3    3    0  502 -0.31002748668E+02 -0.22773166557E+02 -0.19443203809E+02  0.43304712381E+02  0.41800000000E+01 0. -1.
        -11    1    1    2    0    0 -0.74051614082E+02 -0.13810552045E+02 -0.35317369573E+02  0.83196691577E+02  0.00000000000E+00 0.  1.
         11    1    1    2    0    0  0.25918959871E+02 -0.21301209877E+02 -0.22764326409E+02  0.40543169336E+02  0.00000000000E+00 0. -1.
</event>
<event>
 7    1  0.2820496E-009  0.1636046E+03  0.7561462E-02  0.1184686E+00
          1   -1    0    0  501    0  0.00000000000E+00  0.00000000000E+00  0.15840564574E+04  0.15840564574E+04  0.00000000000E+00 0. -1.
         -1   -1    0    0    0  501 -0.00000000000E+00 -0.00000000000E+00 -0.18044835144E+02  0.18044835144E+02  0.00000000000E+00 0.  1.
         25    2    1    2    0    0 -0.12665704839E+03  0.13145696911E+02  0.81470071371E+03  0.83402619615E+03  0.12509047007E+03 0.  0.
          5    1    3    3  502    0 -0.67491206538E+02 -0.47623856864E+02  0.54593607455E+03  0.55216552283E+03  0.41800000000E+01 0. -1.
         -5    1    3    3    0  502 -0.59165841847E+02  0.60769553775E+02  0.26876463916E+03  0.28186067333E+03  0.41800000000E+01 0. -1.
        -11    1    1    2    0    0  0.12672447705E+03 -0.39878410095E+02  0.62168853153E+03  0.63572479180E+03  0.00000000000E+00 0. -1.
         11    1    1    2    0    0 -0.67428663898E-01  0.26732713184E+02  0.12962237701E+03  0.13235030458E+03  0.00000000000E+00 0.  1.
</event>
<event>
 7    1  0.2820496E-009  0.2694545E+03  0.7561462E-02  0.1101592E+00
          1   -1    0    0  501    0  0.00000000000E+00  0.00000000000E+00  0.53702004592E+03  0.53702004592E+03  0.00000000000E+00 0. -1.
         -1   -1    0    0    0  501 -0.00000000000E+00 -0.00000000000E+00 -0.14469763277E+03  0.14469763277E+03  0.00000000000E+00 0.  1.
         25    2    1    2    0    0 -0.22927095500E+03  0.92231198435E+02  0.11827783362E+03  0.30117875911E+03  0.12508890534E+03 0.  0.
          5    1    3    3  502    0 -0.20263408092E+03  0.26561899393E+02  0.10154989041E+03  0.22824538964E+03  0.41800000000E+01 0.  1.
         -5    1    3    3    0  502 -0.26636874081E+02  0.65669299043E+02  0.16727943212E+02  0.72933369466E+02  0.41800000000E+01 0.  1.
        -11    1    1    2    0    0  0.12230427894E+03 -0.51673822486E-01  0.13909007566E+03  0.18521443914E+03  0.00000000000E+00 0.  1.
         11    1    1    2    0    0  0.10696667606E+03 -0.92179524613E+02  0.13495450386E+03  0.19532448044E+03  0.00000000000E+00 0. -1.
</event>
<event>
 7    1  0.2820496E-009  0.1510005E+03  0.7561462E-02  0.1199249E+00
          2   -1    0    0  501    0  0.00000000000E+00  0.00000000000E+00  0.76764641195E+02  0.76764641195E+02  0.00000000000E+00 0. -1.
         -2   -1    0    0    0  501 -0.00000000000E+00 -0.00000000000E+00 -0.39756791652E+03  0.39756791652E+03  0.00000000000E+00 0.  1.
         25    2    1    2    0    0  0.68402113360E+02  0.11600270812E+03 -0.20827404423E+03  0.27777981808E+03  0.12509225567E+03 0.  0.
          5    1    3    3  502    0  0.75367942991E+02  0.34569433565E+02 -0.43330900057E+02  0.93650477134E+02  0.41800000000E+01 0.  1.
         -5    1    3    3    0  502 -0.69658296310E+01  0.81433274554E+02 -0.16494314418E+03  0.18412934095E+03  0.41800000000E+01 0.  1.
        -11    1    1    2    0    0 -0.70046025353E+01 -0.33919343263E+02 -0.82910670246E+02  0.89854134823E+02  0.00000000000E+00 0.  1.
         11    1    1    2    0    0 -0.61397510825E+02 -0.82083364857E+02 -0.29618560842E+02  0.10669860481E+03  0.00000000000E+00 0. -1.
</event>
<event>
 7    1  0.2820496E-009  0.1111213E+03  0.7561462E-02  0.1258507E+00
         -2   -1    0    0    0  501 -0.00000000000E+00  0.00000000000E+00  0.12915875763E+03  0.12915875763E+03  0.00000000000E+00 0. -1.
          2   -1    0    0  501    0  0.00000000000E+00 -0.00000000000E+00 -0.17122823775E+03  0.17122823775E+03  0.00000000000E+00 0.  1.
         25    2    1    2    0    0 -0.36657851399E+02 -0.53887087220E+02 -0.99610984453E+02  0.17267392693E+03  0.12508525325E+03 0.  0.
          5    1    3    3  502    0 -0.61701063403E+02 -0.55750695507E+02 -0.11570959477E+03  0.14255295156E+03  0.41800000000E+01 0.  1.
         -5    1    3    3    0  502  0.25043212005E+02  0.18636082873E+01  0.16098610320E+02  0.30120975376E+02  0.41800000000E+01 0.  1.
        -11    1    1    2    0    0  0.17513701854E+02  0.79578185781E+02  0.46541860508E+02  0.93837957056E+02  0.00000000000E+00 0. -1.
         11    1    1    2    0    0  0.19144149545E+02 -0.25691098562E+02  0.10999643826E+02  0.33875111386E+02  0.00000000000E+00 0.  1.
</event>
<event>
 7    1  0.2820496E-009  0.2397766E+03  0.7561462E-02  0.1119942E+00
         -2   -1    0    0    0  501 -0.00000000000E+00  0.00000000000E+00  0.83983179144E+03  0.83983179144E+03  0.00000000000E+00 0.  1.
          2   -1    0    0  501    0  0.00000000000E+00 -0.00000000000E+00 -0.21077574618E+03  0.21077574618E+03  0.00000000000E+00 0. -1.
         25    2    1    2    0    0 -0.22260593621E+03  0.79347550475E+01 -0.10648288904E+03  0.27677194877E+03  0.12509093808E+03 0.  0.
          5    1    3    3  502    0 -0.79453879541E+02  0.62910028018E+02 -0.51991904251E+02  0.11397903802E+03  0.41800000000E+01 0. -1.
         -5    1    3    3    0  502 -0.14315205667E+03 -0.54975272970E+02 -0.54490984791E+02  0.16279291075E+03  0.41800000000E+01 0. -1.
        -11    1    1    2    0    0  0.14956961231E+03 -0.19285205493E+02  0.34739202733E+03  0.37871388769E+03  0.00000000000E+00 0.  1.
         11    1    1    2    0    0  0.73036323904E+02  0.11350450446E+02  0.38814690697E+03  0.39512170116E+03  0.00000000000E+00 0. -1.
</event>
<event>
 7    1  0.2820496E-009  0.1984157E+03  0.7561462E-02  0.1151083E+00
          1   -1    0    0  501    0  0.00000000000E+00  0.00000000000E+00  0.18680307136E+03  0.18680307136E+03  0.00000000000E+00 0. -1.
         -1   -1    0    0    0  501 -0.00000000000E+00 -0.00000000000E+00 -0.26854356339E+03  0.26854356339E+03  0.00000000000E+00 0.  1.
         25    2    1    2    0    0  0.13274697151E+03 -0.11138021985E+03 -0.13471937575E+03  0.25263469004E+03  0.12509062551E+03 0.  0.
          5    1    3    3  502    0 -0.23221512382E+01  0.17473339104E+02  0.57171307060E+01  0.18996524664E+02  0.41800000000E+01 0. -1.
         -5    1    3    3    0  502  0.13506912275E+03 -0.12885355896E+03 -0.14043650646E+03  0.23363816538E+03  0.41800000000E+01 0. -1.
        -11    1    1    2    0    0 -0.13769962210E+03  0.78013680860E+02  0.27959885149E+02  0.16071426665E+03  0.00000000000E+00 0.  1.
         11    1    1    2    0    0  0.49526505851E+01  0.33366538993E+02  0.25018998575E+02  0.41997678054E+02  0.00000000000E+00 0. -1.
</event>
<event>
 7    1  0.2820496E-009  0.9494360E+02  0.7561462E-02  0.1291303E+00
         -1   -1    0    0    0  501 -0.00000000000E+00  0.00000000000E+00  0.54853331549E+03  0.54853331549E+03  0.00000000000E+00 0.  1.
          1   -1    0    0  501    0  0.00000000000E+00 -0.00000000000E+00 -0.30906673593E+02  0.30906673593E+02  0.00000000000E+00 0. -1.
         25    2    1    2    0    0  0.70252908855E+02 -0.16388386285E+02  0.28492235937E+03  0.31942863952E+03  0.12509937837E+03 0.  0.
          5    1    3    3  502    0  0.27719284828E+02  0.15286253642E+02  0.24860573810E+01  0.32026257712E+02  0.41800000000E+01 0. -1.
         -5    1    3    3    0  502  0.42533624027E+02 -0.31674639926E+02  0.28243630199E+03  0.28740238181E+03  0.41800000000E+01 0. -1.
        -11    1    1    2    0    0 -0.59287317496E+02  0.44797713348E+02  0.10441509763E+03  0.12815745687E+03  0.00000000000E+00 0. -1.
         11    1    1    2    0    0 -0.10965591359E+02 -0.28409327063E+02  0.12828918490E+03  0.13185389270E+03  0.00000000000E+00 0.  1.
</event>
<event>
 7    1  0.2820496E-009  0.1206343E+03  0.7561462E-02  0.1242054E+00
          1   -1    0    0  501    0  0.00000000000E+00  0.00000000000E+00  0.12478534368E+03  0.12478534368E+03  0.00000000000E+00 0. -1.
         -1   -1    0    0    0  501 -0.00000000000E+00 -0.00000000000E+00 -0.14668195157E+03  0.14668195157E+03  0.00000000000E+00 0.  1.
         25    2    1    2    0    0 -0.31284878486E+02  0.68639730520E+02 -0.41958984865E+02  0.15198121775E+03  0.12509027904E+03 0.  0.
          5    1    3    3  502    0  0.11507799384E+02  0.92515134963E+02 -0.11242456558E+02  0.93996515219E+02  0.41800000000E+01 0. -1.
         -5    1    3    3    0  502 -0.42792677870E+02 -0.23875404443E+02 -0.30716528307E+02  0.57984702533E+02  0.41800000000E+01 0. -1.
        -11    1    1    2    0    0  0.42048667277E+02 -0.15923868791E+02  0.41862370715E+02  0.61433851409E+02  0.00000000000E+00 0. -1.
         11    1    1    2    0    0 -0.10763788791E+02 -0.52715861729E+02 -0.21799993742E+02  0.58052226091E+02  0.00000000000E+00 0.  1.
</event>
<event>
 7    1  0.2820496E-009  0.1138161E+03  0.7561462E-02  0.1253662E+00
         -3   -1    0    0    0  501 -0.00000000000E+00  0.00000000000E+00  0.10720160566E+03  0.10720160566E+03  0.00000000000E+00 0.  1.
          3   -1    0    0  501    0  0.00000000000E+00 -0.00000000000E+00 -0.13968366646E+03  0.13968366646E+03  0.00000000000E+00 0. -1.
         25    2    1    2    0    0  0.53671738627E+02 -0.10194468526E+01 -0.32023414908E+02  0.13984649295E+03  0.12509935128E+03 0.  0.
          5    1    3    3  502    0 -0.32281055981E+02  0.12040719537E+02  0.18373162399E+02  0.39269466495E+02  0.41800000000E+01 0.  1.
         -5    1    3    3    0  502  0.85952794608E+02 -0.13060166390E+02 -0.50396577307E+02  0.10057702646E+03  0.41800000000E+01 0.  1.
        -11    1    1    2    0    0  0.61104193940E+00 -0.38648934951E+02 -0.77140551255E+01  0.39415989035E+02  0.00000000000E+00 0. -1.
         11    1    1    2    0    0 -0.54282780566E+02  0.39668381804E+02  0.72554092344E+01  0.67622790123E+02  0.00000000000E+00 0.  1.
</event>
<event>
 7    1  0.2820496E-009  0.1355105E+03  0.7561462E-02  0.1219501E+00
          1   -1    0    0  501    0  0.00000000000E+00  0.00000000000E+00  0.18987744435E+03  0.18987744435E+03  0.00000000000E+00 0. -1.
         -1   -1    0    0    0  501 -0.00000000000E+00 -0.00000000000E+00 -0.11724532736E+03  0.11724532736E+03  0.00000000000E+00 0.  1.
         25    2    1    2    0    0  0.51104745667E+02  0.76617112850E+02  0.85898685267E+02  0.17750398184E+03  0.12508877818E+03 0.  0.
          5    1    3    3  502    0 -0.39657266872E+02  0.85485403337E+01  0.13976074808E+02  0.43111244759E+02  0.41800000000E+01 0. -1.
         -5    1    3    3    0  502  0.90762012539E+02  0.68068572516E+02  0.71922610460E+02  0.13439273708E+03  0.41800000000E+01 0. -1.
        -11    1    1    2    0    0 -0.34084939766E+02 -0.89235235035E+02 -0.32603535147E+02  0.10093414088E+03  0.00000000000E+00 0.  1.
         11    1    1    2    0    0 -0.17019805901E+02  0.12618122186E+02  0.19336966871E+02  0.28684648999E+02  0.00000000000E+00 0. -1.
</event>
<event>
 7    1  0.3138584E-009  0.9975622E+02  0.7561462E-02  0.1280809E+00
         -1   -1    0    0    0  501 -0.00000000000E+00  0.00000000000E+00  0.30528265041E+02  0.30528265041E+02  0.00000000000E+00 0.  1.
          1   -1    0    0  501    0  0.00000000000E+00 -0.00000000000E+00 -0.48983874302E+03  0.48983874302E+03  0.00000000000E+00 0. -1.
         25    2    1    2    0    0 -0.32246183292E+02  0.71931537746E+01 -0.35815705161E+03  0.38080965425E+03  0.12509181172E+03 0.  0.
          5    1    3    3  502    0  0.15974590708E+02 -0.46540070867E+02 -0.85615632981E+02  0.98836606353E+02  0.41800000000E+01 0. -1.
         -5    1    3    3    0  502 -0.48220774001E+02  0.53733224641E+02 -0.27254141863E+03  0.28197304790E+03  0.41800000000E+01 0. -1.
        -11    1    1    2    0    0 -0.14329578223E+02 -0.24285822375E+02 -0.15014982919E+01  0.28238138706E+02  0.00000000000E+00 0.  1.
         11    1    1    2    0    0  0.46575761515E+02  0.17092668600E+02 -0.99651928075E+02  0.11131921510E+03  0.00000000000E+00 0. -1.
</event>
<event>
 7    1  0.2820496E-009  0.7707157E+02  0.7561462E-02  0.1337573E+00
         -1   -1    0    0    0  501 -0.00000000000E+00  0.00000000000E+00  0.56155752027E+02  0.56155752027E+02  0.00000000000E+00 0.  1.
          1   -1    0    0  501    0  0.00000000000E+00 -0.00000000000E+00 -0.25125882039E+03  0.25125882039E+03  0.00000000000E+00 0. -1.
         25    2    1    2    0    0 -0.80624374651E+01 -0.48126121822E+02 -0.11172104457E+03  0.17467254041E+03  0.12509107911E+03 0.  0.
          5    1    3    3  502    0 -0.53111434017E+01 -0.60935656549E+01  0.27600786708E+02  0.29062271307E+02  0.41800000000E+01 0.  1.
         -5    1    3    3    0  502 -0.27512940634E+01 -0.42032556168E+02 -0.13932183128E+03  0.14561026910E+03  0.41800000000E+01 0.  1.
        -11    1    1    2    0    0 -0.38978241301E+02  0.38323293686E+02 -0.37384803952E+02  0.66223875607E+02  0.00000000000E+00 0. -1.
         11    1    1    2    0    0  0.47040678766E+02  0.98028281363E+01 -0.45997219841E+02  0.66518156404E+02  0.00000000000E+00 0.  1.
</event>
<event>
 7    1  0.2820496E-009  0.2571628E+03  0.7561462E-02  0.1108860E+00
         -1   -1    0    0    0  501 -0.00000000000E+00  0.00000000000E+00  0.68700089681E+02  0.68700089681E+02  0.00000000000E+00 0.  1.
          1   -1    0    0  501    0  0.00000000000E+00 -0.00000000000E+00 -0.11531997659E+04  0.11531997659E+04  0.00000000000E+00 0. -1.
         25    2    1    2    0    0  0.25239589820E+03 -0.29942669711E+02 -0.46655895760E+03  0.54582456397E+03  0.12508773247E+03 0.  0.
          5    1    3    3  502    0  0.77411843704E+02 -0.31666144398E+02 -0.26968287109E+03  0.28238566112E+03  0.41800000000E+01 0. -1.
         -5    1    3    3    0  502  0.17498405450E+03  0.17234746872E+01 -0.19687608651E+03  0.26343890285E+03  0.41800000000E+01 0. -1.
        -11    1    1    2    0    0 -0.49627302602E+02  0.16613916246E+02 -0.48078347785E+02  0.71066299343E+02  0.00000000000E+00 0.  1.
         11    1    1    2    0    0 -0.20276859560E+03  0.13328753465E+02 -0.56986237080E+03  0.60500899223E+03  0.00000000000E+00 0. -1.
</event>
<event>
 7    1  0.2820496E-009  0.1978710E+03  0.7561462E-02  0.1151548E+00
          1   -1    0    0  501    0  0.00000000000E+00  0.00000000000E+00  0.70702580850E+03  0.70702580850E+03  0.00000000000E+00 0. -1.
         -1   -1    0    0    0  501 -0.00000000000E+00 -0.00000000000E+00 -0.57278492424E+02  0.57278492424E+02  0.00000000000E+00 0.  1.
         25    2    1    2    0    0  0.13897225994E+03 -0.95898403115E+02  0.30386561789E+03  0.36944590152E+03  0.12508464199E+03 0.  0.
          5    1    3    3  502    0  0.46115149439E+02 -0.10478066859E+03  0.19362728973E+03  0.22497687714E+03  0.41800000000E+01 0. -1.
         -5    1    3    3    0  502  0.92857110503E+02  0.88822654761E+01  0.11023832816E+03  0.14446902438E+03  0.41800000000E+01 0. -1.
        -11    1    1    2    0    0 -0.65879148820E+02 -0.16705873430E+01  0.91374098036E+02  0.11265912703E+03  0.00000000000E+00 0. -1.
         11    1    1    2    0    0 -0.73093111122E+02  0.97568990458E+02  0.25450760015E+03  0.28219927237E+03  0.00000000000E+00 0.  1.
</event>
<event>
 7    1  0.2820496E-009  0.1012336E+03  0.7561462E-02  0.1277723E+00
          2   -1    0    0  501    0  0.00000000000E+00  0.00000000000E+00  0.40385847625E+03  0.40385847625E+03  0.00000000000E+00 0. -1.
         -2   -1    0    0    0  501 -0.00000000000E+00 -0.00000000000E+00 -0.45194538747E+02  0.45194538747E+02  0.00000000000E+00 0.  1.
         25    2    1    2    0    0 -0.38078544052E+02  0.44658266390E+01  0.32602668846E+03  0.35130012355E+03  0.12509378918E+03 0.  0.
          5    1    3    3  502    0 -0.82833759184E+02  0.48873387232E+01  0.17491546204E+03  0.19364454292E+03  0.41800000000E+01 0. -1.
         -5    1    3    3    0  502  0.44755215133E+02 -0.42151208427E+00  0.15111122642E+03  0.15765558063E+03  0.41800000000E+01 0. -1.
        -11    1    1    2    0    0  0.52030101506E+02 -0.17940219169E+02 -0.51518168407E+01  0.55276795704E+02  0.00000000000E+00 0.  1.
         11    1    1    2    0    0 -0.13951557455E+02  0.13474392530E+02  0.37789065883E+02  0.42476095746E+02  0.00000000000E+00 0. -1.
</event>
<event>
 7    1  0.2820496E-009  0.2894625E+03  0.7561462E-02  0.1090630E+00
          2   -1    0    0  501    0  0.00000000000E+00  0.00000000000E+00  0.67200329540E+03  0.67200329540E+03  0.00000000000E+00 0. -1.
         -2   -1    0    0    0  501 -0.00000000000E+00 -0.00000000000E+00 -0.16379299078E+03  0.16379299078E+03  0.00000000000E+00 0.  1.
         25    2    1    2    0    0 -0.18159039260E+03 -0.20646747458E+03  0.69467974159E+02  0.30996249291E+03  0.12508820421E+03 0.  0.
          5    1    3    3  502    0 -0.74055229773E+02 -0.17446620240E+03  0.49402042954E+02  0.19590984427E+03  0.41800000000E+01 0. -1.
         -5    1    3    3    0  502 -0.10753516283E+03 -0.32001272187E+02  0.20065931205E+02  0.11405264864E+03  0.41800000000E+01 0. -1.
        -11    1    1    2    0    0  0.52534142996E+02  0.84512823901E+02  0.88578686103E+02  0.13322326079E+03  0.00000000000E+00 0.  1.
         11    1    1    2    0    0  0.12905624960E+03  0.12195465068E+03  0.35016364436E+03  0.39261053248E+03  0.00000000000E+00 0. -1.
</event>
<event>
 7    1  0.2820496E-009  0.1610694E+03  0.7561462E-02  0.1187495E+00
         -2   -1    0    0    0  501 -0.00000000000E+00  0.00000000000E+00  0.38684384420E+02  0.38684384420E+02  0.00000000000E+00 0.  1.
          2   -1    0    0  501    0  0.00000000000E+00 -0.00000000000E+00 -0.76139987010E+03  0.76139987010E+03  0.00000000000E+00 0. -1.
         25    2    1    2    0    0  0.80699918641E+02  0.97480836315E+02 -0.46433195972E+03  0.49725914940E+03  0.12508997770E+03 0.  0.
          5    1    3    3  502    0 -0.74713234175E+01  0.72399154311E+02 -0.30308078020E+03  0.31172566456E+03  0.41800000000E+01 0.  1.
         -5    1    3    3    0  502  0.88171242058E+02  0.25081682004E+02 -0.16125117952E+03  0.18553348483E+03  0.41800000000E+01 0.  1.
        -11    1    1    2    0    0 -0.10218488684E+03 -0.80788979051E+02 -0.22197077107E+03  0.25737061496E+03  0.00000000000E+00 0. -1.
         11    1    1    2    0    0  0.21484968202E+02 -0.16691857264E+02 -0.36412754887E+02  0.45454490163E+02  0.00000000000E+00 0.  1.
</event>
<event>
 7    1  0.2820496E-009  0.1022027E+03  0.7561462E-02  0.1275731E+00
         -1   -1    0    0    0  501 -0.00000000000E+00  0.00000000000E+00  0.46384865268E+02  0.46384865268E+02  0.00000000000E+00 0.  1.
          1   -1    0    0  501    0  0.00000000000E+00 -0.00000000000E+00 -0.36677911670E+03  0.36677911670E+03  0.00000000000E+00 0. -1.
         25    2    1    2    0    0 -0.19342674933E+02 -0.41183927689E+02 -0.76074672317E+02  0.15331158287E+03  0.12508729233E+03 0.  0.
          5    1    3    3  502    0 -0.63143075255E+02 -0.79886925840E+00 -0.97044517581E+01  0.64026048829E+02  0.41800000000E+01 0. -1.
         -5    1    3    3    0  502  0.43800400322E+02 -0.40385058430E+02 -0.66370220559E+02  0.89285534046E+02  0.41800000000E+01 0. -1.
        -11    1    1    2    0    0 -0.21375851847E+02 -0.26824871361E+01 -0.11948100981E+03  0.12140772003E+03  0.00000000000E+00 0. -1.
         11    1    1    2    0    0  0.40718526780E+02  0.43866414825E+02 -0.12483856931E+03  0.13844467906E+03  0.00000000000E+00 0.  1.
</event>
<event>
 7    1  0.2820496E-009  0.8505076E+02  0.7561462E-02  0.1315300E+00
         -4   -1    0    0    0  501 -0.00000000000E+00  0.00000000000E+00  0.40792063745E+02  0.40792063745E+02  0.00000000000E+00 0.  1.
          4   -1    0    0  501    0  0.00000000000E+00 -0.00000000000E+00 -0.29953909284E+03  0.29953909284E+03  0.00000000000E+00 0. -1.
         25    2    1    2    0    0  0.12617537794E+02 -0.17895574148E+02 -0.12946141655E+03  0.18134932678E+03  0.12509143102E+03 0.  0.
          5    1    3    3  502    0  0.55913919448E+02  0.21736529707E+02 -0.97043408489E+02  0.11416540038E+03  0.41800000000E+01 0.  1.
         -5    1    3    3    0  502 -0.43296381654E+02 -0.39632103855E+02 -0.32418008062E+02  0.67183926404E+02  0.41800000000E+01 0.  1.
        -11    1    1    2    0    0  0.12309537167E+02 -0.83885464911E+01  0.80618351815E+01  0.16937697718E+02  0.00000000000E+00 0.  1.
         11    1    1    2    0    0 -0.24927074960E+02  0.26284120639E+02 -0.13734744772E+03  0.14204413209E+03  0.00000000000E+00 0. -1.
</event>
<event>
 7    1  0.3706467E-009  0.2032473E+03  0.7561462E-02  0.1147028E+00
          2   -1    0    0  501    0  0.00000000000E+00  0.00000000000E+00  0.10986463834E+04  0.10986463834E+04  0.00000000000E+00 0. -1.
         -2   -1    0    0    0  501 -0.00000000000E+00 -0.00000000000E+00 -0.38810379482E+02  0.38810379482E+02  0.00000000000E+00 0.  1.
         25    2    1    2    0    0  0.15829619269E+03 -0.69273903015E+02  0.46972987484E+03  0.51589761345E+03  0.12509050316E+03 0.  0.
          5    1    3    3  502    0  0.14282349547E+03 -0.69149843840E+00  0.31517696845E+03  0.34605349712E+03  0.41800000000E+01 0.  1.
         -5    1    3    3    0  502  0.15472697227E+02 -0.68582404576E+02  0.15455290639E+03  0.16984411633E+03  0.41800000000E+01 0.  1.
        -11    1    1    2    0    0 -0.10914230966E+03  0.11200914193E+01  0.28816898474E+03  0.30814714363E+03  0.00000000000E+00 0. -1.
         11    1    1    2    0    0 -0.49153883035E+02  0.68153811595E+02  0.30193714438E+03  0.31341200585E+03  0.00000000000E+00 0.  1.
</event>
<event>
 7    1  0.2820496E-009  0.1845764E+03  0.7561462E-02  0.1163446E+00
          1   -1    0    0  501    0  0.00000000000E+00  0.00000000000E+00  0.45200155052E+02  0.45200155052E+02  0.00000000000E+00 0. -1.
         -1   -1    0    0    0  501 -0.00000000000E+00 -0.00000000000E+00 -0.12126189116E+04  0.12126189116E+04  0.00000000000E+00 0.  1.
         25    2    1    2    0    0  0.17005609655E+03  0.29850244629E+02 -0.29650165831E+03  0.36519830440E+03  0.12508579086E+03 0.  0.
          5    1    3    3  502    0  0.41476204861E+02  0.25215739780E+02 -0.81237107037E+01  0.49392065941E+02  0.41800000000E+01 0.  1.
         -5    1    3    3    0  502  0.12857989168E+03  0.46345048497E+01 -0.28837794761E+03  0.31580623846E+03  0.41800000000E+01 0.  1.
        -11    1    1    2    0    0 -0.90210167545E+02 -0.57762013974E+02 -0.57311440153E+03  0.58303897110E+03  0.00000000000E+00 0.  1.
         11    1    1    2    0    0 -0.79845929001E+02  0.27911769345E+02 -0.29780269673E+03  0.30958179117E+03  0.00000000000E+00 0. -1.
</event>
<event>
 7    1  0.2820496E-009  0.1305102E+03  0.7561462E-02  0.1226701E+00
         -2   -1    0    0    0  501 -0.00000000000E+00  0.00000000000E+00  0.15954184197E+02  0.15954184197E+02  0.00000000000E+00 0.  1.
          2   -1    0    0  501    0  0.00000000000E+00 -0.00000000000E+00 -0.11172229479E+04  0.11172229479E+04  0.00000000000E+00 0. -1.
         25    2    1    2    0    0 -0.57414539253E+02 -0.50913441843E+02 -0.65781819615E+03  0.67398998931E+03  0.12509643734E+03 0.  0.
          5    1    3    3  502    0 -0.44545226733E+02  0.34118691504E+02 -0.18394433045E+03  0.19235735348E+03  0.41800000000E+01 0.  1.
         -5    1    3    3    0  502 -0.12869312521E+02 -0.85032133347E+02 -0.47387386570E+03  0.48163263583E+03  0.41800000000E+01 0.  1.
        -11    1    1    2    0    0  0.66618237219E+02 -0.29994325508E+00 -0.27019606144E+03  0.27828760503E+03  0.00000000000E+00 0. -1.
         11    1    1    2    0    0 -0.92036979660E+01  0.51213385098E+02 -0.17325450611E+03  0.18089953775E+03  0.00000000000E+00 0.  1.
</event>
<event>
 7    1  0.2820496E-009  0.8338389E+02  0.7561462E-02  0.1319714E+00
         -1   -1    0    0    0  501 -0.00000000000E+00  0.00000000000E+00  0.14349706982E+02  0.14349706982E+02  0.00000000000E+00 0.  1.
          1   -1    0    0  501    0  0.00000000000E+00 -0.00000000000E+00 -0.10248487583E+04  0.10248487583E+04  0.00000000000E+00 0. -1.
         25    2    1    2    0    0  0.18334033971E+02 -0.47395801674E+02 -0.66427238836E+03  0.67785483991E+03  0.12508748633E+03 0.  0.
          5    1    3    3  502    0  0.11811183228E+02 -0.52565734286E+02 -0.10135708949E+03  0.11486249370E+03  0.41800000000E+01 0.  1.
         -5    1    3    3    0  502  0.65228507430E+01  0.51699326119E+01 -0.56291529887E+03  0.56299234621E+03  0.41800000000E+01 0.  1.
        -11    1    1    2    0    0 -0.55115075141E+02  0.27386607661E+02 -0.20815106347E+03  0.21705889295E+03  0.00000000000E+00 0.  1.
         11    1    1    2    0    0  0.36781041170E+02  0.20009194012E+02 -0.13807559953E+03  0.14428473246E+03  0.00000000000E+00 0. -1.
</event>
<event>
 7    1  0.2820496E-009  0.1347311E+03  0.7561462E-02  0.1220600E+00
          2   -1    0    0  501    0  0.00000000000E+00  0.00000000000E+00  0.99510254407E+03  0.99510254407E+03  0.00000000000E+00 0. -1.
         -2   -1    0    0    0  501 -0.00000000000E+00 -0.00000000000E+00 -0.21557049927E+02  0.21557049927E+02  0.00000000000E+00 0.  1.
         25    2    1    2    0    0 -0.88228494154E+02  0.33721229223E+01  0.59350056997E+03  0.61293424894E+03  0.12509927487E+03 0.  0.
          5    1    3    3  502    0 -0.12157088477E+02 -0.55222593918E+02  0.23926484163E+03  0.24589116804E+03  0.41800000000E+01 0. -1.
         -5    1    3    3    0  502 -0.76071405677E+02  0.58594716840E+02  0.35423572834E+03  0.36704308090E+03  0.41800000000E+01 0. -1.
        -11    1    1    2    0    0  0.84237216211E+01  0.29247361056E+02  0.28270500604E+02  0.41540202444E+02  0.00000000000E+00 0.  1.
         11    1    1    2    0    0  0.79804772533E+02 -0.32619483978E+02  0.35177442357E+03  0.36218514261E+03  0.00000000000E+00 0. -1.
</event>
<event>
 7    1  0.2820496E-009  0.2769534E+03  0.7561462E-02  0.1097365E+00
         -2   -1    0    0    0  501 -0.00000000000E+00  0.00000000000E+00  0.96196218532E+02  0.96196218532E+02  0.00000000000E+00 0. -1.
          2   -1    0    0  501    0  0.00000000000E+00 -0.00000000000E+00 -0.10368021311E+04  0.10368021311E+04  0.00000000000E+00 0.  1.
         25    2    1    2    0    0  0.26565705239E+03  0.48566196921E+02 -0.26720894040E+03  0.39997737830E+03  0.12509572478E+03 0.  0.
          5    1    3    3  502    0  0.17291821231E+02  0.17778934705E+02  0.94745777356E+01  0.26876339483E+02  0.41800000000E+01 0.  1.
         -5    1    3    3    0  502  0.24836523116E+03  0.30787262216E+02 -0.27668351813E+03  0.37310103882E+03  0.41800000000E+01 0.  1.
        -11    1    1    2    0    0 -0.12451147980E+03  0.11538160922E+02 -0.40511279059E+03  0.42397241757E+03  0.00000000000E+00 0.  1.
         11    1    1    2    0    0 -0.14114557259E+03 -0.60104357843E+02 -0.26828418156E+03  0.30904855374E+03  0.00000000000E+00 0. -1.
</event>
<event>
 7    1  0.2820496E-009  0.1060443E+03  0.7561462E-02  0.1268076E+00
          1   -1    0    0  501    0  0.00000000000E+00  0.00000000000E+00  0.36646524300E+02  0.36646524300E+02  0.00000000000E+00 0. -1.
         -1   -1    0    0    0  501 -0.00000000000E+00 -0.00000000000E+00 -0.33313018465E+03  0.33313018465E+03  0.00000000000E+00 0.  1.
         25    2    1    2    0    0  0.81387421726E+01  0.20479920773E+02 -0.18778229250E+03  0.22670402433E+03  0.12508740540E+03 0.  0.
          5    1    3    3  502    0 -0.20640863660E+02 -0.44538787928E+02 -0.43178790626E+02  0.65510527724E+02  0.41800000000E+01 0. -1.
         -5    1    3    3    0  502  0.28779605832E+02  0.65018708701E+02 -0.14460350187E+03  0.16119349660E+03  0.41800000000E+01 0. -1.
        -11    1    1    2    0    0 -0.39250149957E+02  0.17095828248E+02 -0.38444452465E+02  0.57539704035E+02  0.00000000000E+00 0.  1.
         11    1    1    2    0    0  0.31111407785E+02 -0.37575749021E+02 -0.70256915386E+02  0.85532980588E+02  0.00000000000E+00 0. -1.
</event>
<event>
 7    1  0.2820496E-009  0.1140473E+03  0.7561462E-02  0.1253253E+00
         -1   -1    0    0    0  501 -0.00000000000E+00  0.00000000000E+00  0.71990355795E+02  0.71990355795E+02  0.00000000000E+00 0.  1.
          1   -1    0    0  501    0  0.00000000000E+00 -0.00000000000E+00 -0.28499047995E+03  0.28499047995E+03  0.00000000000E+00 0. -1.
         25    2    1    2    0    0  0.40462204424E+02  0.40304269964E+02 -0.20585240412E+03  0.24755515880E+03  0.12508685064E+03 0.  0.
          5    1    3    3  502    0 -0.24465802830E+01 -0.33378970167E+02 -0.12678867347E+03  0.13119825275E+03  0.41800000000E+01 0.  1.
         -5    1    3    3    0  502  0.42908784707E+02  0.73683240131E+02 -0.79063730653E+02  0.11635690605E+03  0.41800000000E+01 0.  1.
        -11    1    1    2    0    0  0.65759619742E+01 -0.58273627244E+02 -0.58681728315E+00  0.58646425830E+02  0.00000000000E+00 0. -1.
         11    1    1    2    0    0 -0.47038166399E+02  0.17969357281E+02 -0.65609027547E+01  0.50779251119E+02  0.00000000000E+00 0.  1.
</event>
<event>
 7    1  0.2820496E-009  0.1164048E+03  0.7561462E-02  0.1249149E+00
          1   -1    0    0  501    0  0.00000000000E+00  0.00000000000E+00  0.54576955747E+03  0.54576955747E+03  0.00000000000E+00 0.  1.
         -1   -1    0    0    0  501 -0.00000000000E+00 -0.00000000000E+00 -0.39270137526E+02  0.39270137526E+02  0.00000000000E+00 0. -1.
         25    2    1    2    0    0  0.13041416933E+02 -0.81865955372E+02  0.37950623018E+03  0.40809739694E+03  0.12508554449E+03 0.  0.
          5    1    3    3  502    0  0.47599427335E+02 -0.44007537433E+02  0.33129639880E+03  0.33760501343E+03  0.41800000000E+01 0. -1.
         -5    1    3    3    0  502 -0.34558010402E+02 -0.37858417939E+02  0.48209831381E+02  0.70492383515E+02  0.41800000000E+01 0. -1.
        -11    1    1    2    0    0 -0.45252469961E+02  0.26710363085E+02  0.86828676215E+02  0.10149112546E+03  0.00000000000E+00 0. -1.
         11    1    1    2    0    0  0.32211053028E+02  0.55155592287E+02  0.40164513555E+02  0.75451172601E+02  0.00000000000E+00 0.  1.
</event>
<event>
 7    1  0.2820496E-009  0.1227587E+03  0.7561462E-02  0.1238614E+00
          2   -1    0    0  501    0  0.00000000000E+00  0.00000000000E+00  0.65342008798E+03  0.65342008798E+03  0.00000000000E+00 0. -1.
         -2   -1    0    0    0  501 -0.00000000000E+00 -0.00000000000E+00 -0.34527176536E+02  0.34527176536E+02  0.00000000000E+00 0.  1.
         25    2    1    2    0    0  0.88273347364E+02 -0.49445322577E+02  0.28107606100E+03  0.32386995084E+03  0.12510383371E+03 0.  0.
          5    1    3    3  502    0  0.15827181570E+02 -0.38144946608E+02  0.23166415951E+03  0.23535354646E+03  0.41800000000E+01 0.  1.
         -5    1    3    3    0  502  0.72446165795E+02 -0.11300375968E+02  0.49411901482E+02  0.88516404375E+02  0.41800000000E+01 0.  1.
        -11    1    1    2    0    0 -0.53229565545E+02  0.71516907873E+02  0.27272702924E+03  0.28692871456E+03  0.00000000000E+00 0. -1.
         11    1    1    2    0    0 -0.35043781819E+02 -0.22071585297E+02  0.65089821209E+02  0.77148599123E+02  0.00000000000E+00 0.  1.
</event>
<event>
 7    1  0.2820496E-009  0.1015778E+03  0.7561462E-02  0.1277013E+00
          2   -1    0    0  501    0  0.00000000000E+00  0.00000000000E+00  0.98111398563E+02  0.98111398563E+02  0.00000000000E+00 0. -1.
         -2   -1    0    0    0  501 -0.00000000000E+00 -0.00000000000E+00 -0.13781901866E+03  0.13781901866E+03  0.00000000000E+00 0.  1.
         25    2    1    2    0    0  0.36238384392E+02 -0.11905941440E+02 -0.39097712511E+02  0.13649522922E+03  0.12508934620E+03 0.  0.
          5    1    3    3  502    0  0.24422735455E+02  0.45022499623E+02  0.18431481295E+02  0.54595671826E+02  0.41800000000E+01 0. -1.
         -5    1    3    3    0  502  0.11815648937E+02 -0.56928441064E+02 -0.57529193805E+02  0.81899557396E+02  0.41800000000E+01 0. -1.
        -11    1    1    2    0    0 -0.18004686789E+02 -0.37071289377E+02  0.16575784333E+02  0.44420781946E+02  0.00000000000E+00 0.  1.
         11    1    1    2    0    0 -0.18233697602E+02  0.48977230818E+02 -0.17185691920E+02  0.55014406055E+02  0.00000000000E+00 0. -1.
</event>
<event>
 7    1  0.2820496E-009  0.1502630E+03  0.7561462E-02  0.1200150E+00
          1   -1    0    0  501    0  0.00000000000E+00  0.00000000000E+00  0.18644245765E+03  0.18644245765E+03  0.00000000000E+00 0. -1.
         -1   -1    0    0    0  501 -0.00000000000E+00 -0.00000000000E+00 -0.15352774424E+03  0.15352774424E+03  0.00000000000E+00 0.  1.
         25    2    1    2    0    0 -0.52400815987E+02  0.99033750495E+02 -0.45606969550E+02  0.17402040131E+03  0.12509826197E+03 0.  0.
          5    1    3    3  502    0  0.33301048938E+02  0.48732863126E+02 -0.45362508809E+02  0.74559247677E+02  0.41800000000E+01 0.  1.
         -5    1    3    3    0  502 -0.85701864925E+02  0.50300887369E+02 -0.24446074113E+00  0.99461153637E+02  0.41800000000E+01 0.  1.
        -11    1    1    2    0    0  0.47986077464E+02 -0.55509221407E+01  0.46461934767E+02  0.67023784952E+02  0.00000000000E+00 0.  1.
         11    1    1    2    0    0  0.44147385232E+01 -0.93482828354E+02  0.32059748197E+02  0.98926015627E+02  0.00000000000E+00 0. -1.
</event>
<event>
 7    1  0.2820496E-009  0.1220526E+03  0.7561462E-02  0.1239749E+00
         -2   -1    0    0    0  501 -0.00000000000E+00  0.00000000000E+00  0.31498233028E+03  0.31498233028E+03  0.00000000000E+00 0.  1.
          2   -1    0    0  501    0  0.00000000000E+00 -0.00000000000E+00 -0.16376516575E+03  0.16376516575E+03  0.00000000000E+00 0. -1.
         25    2    1    2    0    0  0.12004938609E+02 -0.84890720159E+02 -0.11103533921E+03  0.18795559602E+03  0.12509159286E+03 0.  0.
          5    1    3    3  502    0 -0.35472520250E+02 -0.51569838080E+02 -0.11357341827E+03  0.12974645132E+03  0.41800000000E+01 0. -1.
         -5    1    3    3    0  502  0.47477458859E+02 -0.33320882079E+02  0.25380790577E+01  0.58209144707E+02  0.41800000000E+01 0. -1.
        -11    1    1    2    0    0 -0.50618149953E+02  0.45541475854E+02  0.17259848131E+03  0.18554368455E+03  0.00000000000E+00 0. -1.
         11    1    1    2    0    0  0.38613211344E+02  0.39349244304E+02  0.89654022432E+02  0.10524821545E+03  0.00000000000E+00 0.  1.
</event>
<event>
 7    1  0.2820496E-009  0.1134351E+03  0.7561462E-02  0.1254338E+00
          2   -1    0    0  501    0  0.00000000000E+00  0.00000000000E+00  0.12440275559E+03  0.12440275559E+03  0.00000000000E+00 0. -1.
         -2   -1    0    0    0  501 -0.00000000000E+00 -0.00000000000E+00 -0.18487960833E+03  0.18487960833E+03  0.00000000000E+00 0.  1.
         25    2    1    2    0    0  0.17950581785E+02 -0.42972766104E+02 -0.13009400534E+03  0.18638630906E+03  0.12508606623E+03 0.  0.
          5    1    3    3  502    0  0.17028361587E+02  0.40356673778E+02 -0.73162801274E+02  0.85375020393E+02  0.41800000000E+01 0.  1.
         -5    1    3    3    0  502  0.92222019803E+00 -0.83329439881E+02 -0.56931204071E+02  0.10101128867E+03  0.41800000000E+01 0.  1.
        -11    1    1    2    0    0  0.37987123386E+01  0.66950143062E+02  0.35538799756E+02  0.75893070563E+02  0.00000000000E+00 0.  1.
         11    1    1    2    0    0 -0.21749294124E+02 -0.23977376958E+02  0.34078352851E+02  0.47002984306E+02  0.00000000000E+00 0. -1.
</event>
<event>
 7    1  0.2820496E-009  0.1386903E+03  0.7561462E-02  0.1215102E+00
         -2   -1    0    0    0  501 -0.00000000000E+00  0.00000000000E+00  0.94277188535E+02  0.94277188535E+02  0.00000000000E+00 0.  1.
          2   -1    0    0  501    0  0.00000000000E+00 -0.00000000000E+00 -0.25353909349E+03  0.25353909349E+03  0.00000000000E+00 0. -1.
         25    2    1    2    0    0 -0.95630088558E+02  0.51506967389E+02 -0.60974950280E+02  0.17653093031E+03  0.12508854171E+03 0.  0.
          5    1    3    3  502    0 -0.25540675308E+02 -0.25674451295E+02  0.22559668195E+02  0.42870905910E+02  0.41800000000E+01 0. -1.
         -5    1    3    3    0  502 -0.70089413250E+02  0.77181418684E+02 -0.83534618475E+02  0.13366002440E+03  0.41800000000E+01 0. -1.
        -11    1    1    2    0    0  0.92133265281E+02 -0.71290880225E+02 -0.96211263731E+02  0.15108784016E+03  0.00000000000E+00 0. -1.
         11    1    1    2    0    0  0.34968232778E+01  0.19783912836E+02 -0.20756909437E+01  0.20197511555E+02  0.00000000000E+00 0.  1.
</event>
<event>
 7    1  0.2820496E-009  0.1484010E+03  0.7561462E-02  0.1202452E+00
          2   -1    0    0  501    0  0.00000000000E+00  0.00000000000E+00  0.31616206757E+03  0.31616206757E+03  0.00000000000E+00 0. -1.
         -2   -1    0    0    0  501 -0.00000000000E+00 -0.00000000000E+00 -0.12739449327E+03  0.12739449327E+03  0.00000000000E+00 0.  1.
         25    2    1    2    0    0  0.13237990086E+03 -0.57145427222E+02  0.22330411277E+01  0.19089813421E+03  0.12508826151E+03 0.  0.
          5    1    3    3  502    0  0.67747605596E+02 -0.44165253180E+02  0.61865623162E+02  0.10190748442E+03  0.41800000000E+01 0.  1.
         -5    1    3    3    0  502  0.64632295264E+02 -0.12980174041E+02 -0.59632582034E+02  0.88990649785E+02  0.41800000000E+01 0.  1.
        -11    1    1    2    0    0 -0.10431533382E+02  0.19542782791E+02  0.89887948280E+02  0.92577429722E+02  0.00000000000E+00 0. -1.
         11    1    1    2    0    0 -0.12194836748E+03  0.37602644430E+02  0.96646584889E+02  0.16008099690E+03  0.00000000000E+00 0.  1.
</event>
<event>
 7    1  0.2820496E-009  0.9728502E+02  0.7561462E-02  0.1286111E+00
         -1   -1    0    0    0  501 -0.00000000000E+00  0.00000000000E+00  0.20055736903E+03  0.20055736903E+03  0.00000000000E+00 0.  1.
          1   -1    0    0  501    0  0.00000000000E+00 -0.00000000000E+00 -0.57880795791E+02  0.57880795791E+02  0.00000000000E+00 0. -1.
         25    2    1    2    0    0  0.10244680873E+02  0.14630304074E+02  0.86748128480E+02  0.15327078949E+03  0.12509075838E+03 0.  0.
          5    1    3    3  502    0 -0.38157738754E+02 -0.38226629070E+02  0.31358912138E+02  0.62595063442E+02  0.41800000000E+01 0. -1.
         -5    1    3    3    0  502  0.48402419627E+02  0.52856933144E+02  0.55389216342E+02  0.90675726047E+02  0.41800000000E+01 0. -1.
        -11    1    1    2    0    0  0.24955485424E+02 -0.21262093723E+02  0.60742988526E+02  0.69025817904E+02  0.00000000000E+00 0.  1.
         11    1    1    2    0    0 -0.35200166297E+02  0.66317896495E+01 -0.48145437711E+01  0.36141557423E+02  0.00000000000E+00 0. -1.
</event>
<event>
 7    1  0.2820496E-009  0.7940051E+02  0.7561462E-02  0.1330761E+00
          1   -1    0    0  501    0  0.00000000000E+00  0.00000000000E+00  0.40142120308E+03  0.40142120308E+03  0.00000000000E+00 0. -1.
         -1   -1    0    0    0  501 -0.00000000000E+00 -0.00000000000E+00 -0.35572509194E+02  0.35572509194E+02  0.00000000000E+00 0.  1.
         25    2    1    2    0    0  0.92332986426E+01 -0.50324566288E+00  0.29612991695E+03  0.32160089315E+03  0.12509476288E+03 0.  0.
          5    1    3    3  502    0 -0.32466582536E+02  0.16048668762E+02  0.19537202140E+02  0.41361980345E+02  0.41800000000E+01 0.  1.
         -5    1    3    3    0  502  0.41699881179E+02 -0.16551914425E+02  0.27659271481E+03  0.28023891280E+03  0.41800000000E+01 0.  1.
        -11    1    1    2    0    0 -0.43057935903E+02  0.41837016855E+01  0.67011182815E+01  0.43776639778E+02  0.00000000000E+00 0.  1.
         11    1    1    2    0    0  0.33824637261E+02 -0.36804560226E+01  0.63017658653E+02  0.71616179349E+02  0.00000000000E+00 0. -1.
</event>
<event>
 7    1  0.2820496E-009  0.1510942E+03  0.7561462E-02  0.1199135E+00
          3   -1    0    0  501    0  0.00000000000E+00  0.00000000000E+00  0.60063161132E+03  0.60063161132E+03  0.00000000000E+00 0. -1.
         -3   -1    0    0    0  501 -0.00000000000E+00 -0.00000000000E+00 -0.96392551012E+02  0.96392551012E+02  0.00000000000E+00 0.  1.
         25    2    1    2    0    0 -0.35635867628E+02  0.12198912828E+03  0.92236616106E+01  0.17857893372E+03  0.12511633448E+03 0.  0.
          5    1    3    3  502    0 -0.37212450253E+02  0.14359459350E+03  0.26262429721E+02  0.15070289098E+03  0.41800000000E+01 0. -1.
         -5    1    3    3    0  502  0.15765826241E+01 -0.21605465217E+02 -0.17038768110E+02  0.27876042738E+02  0.41800000000E+01 0. -1.
        -11    1    1    2    0    0  0.13580280616E+02 -0.82906477775E+01  0.79260659553E+01  0.17775865203E+02  0.00000000000E+00 0.  1.
         11    1    1    2    0    0  0.22055587012E+02 -0.11369848050E+03  0.48708933275E+03  0.50066936342E+03  0.00000000000E+00 0. -1.
</event>
<event>
 7    1  0.2820496E-009  0.1200622E+03  0.7561462E-02  0.1242994E+00
         -4   -1    0    0    0  501 -0.00000000000E+00  0.00000000000E+00  0.64491921634E+02  0.64491921634E+02  0.00000000000E+00 0.  1.
          4   -1    0    0  501    0  0.00000000000E+00 -0.00000000000E+00 -0.33604143504E+03  0.33604143504E+03  0.00000000000E+00 0. -1.
         25    2    1    2    0    0 -0.52869844110E+02  0.49372249307E+02 -0.72268099100E+02  0.16155133341E+03  0.12507324158E+03 0.  0.
          5    1    3    3  502    0 -0.81195923519E+02  0.34485836122E+02 -0.88844831058E+02  0.12527141452E+03  0.41800000000E+01 0.  1.
         -5    1    3    3    0  502  0.28326079410E+02  0.14886413185E+02  0.16576731958E+02  0.36279918890E+02  0.41800000000E+01 0.  1.
        -11    1    1    2    0    0 -0.27534982858E+02 -0.59995585529E+01 -0.12045999095E+02  0.30647611294E+02  0.00000000000E+00 0.  1.
         11    1    1    2    0    0  0.80404826968E+02 -0.43372690754E+02 -0.18723541521E+03  0.20833441197E+03  0.00000000000E+00 0. -1.
</event>
<event>
 7    1  0.2820496E-009  0.9415105E+02  0.7561462E-02  0.1293100E+00
         -1   -1    0    0    0  501 -0.00000000000E+00  0.00000000000E+00  0.39435406361E+03  0.39435406361E+03  0.00000000000E+00 0.  1.
          1   -1    0    0  501    0  0.00000000000E+00 -0.00000000000E+00 -0.58051479923E+02  0.58051479923E+02  0.00000000000E+00 0. -1.
         25    2    1    2    0    0  0.55091935878E+02  0.10495656958E+02  0.30949368072E+03  0.33848236841E+03  0.12505476843E+03 0.  0.
          5    1    3    3  502    0  0.52905565946E+02 -0.48997054542E+02  0.12264213278E+03  0.14233156851E+03  0.41800000000E+01 0. -1.
         -5    1    3    3    0  502  0.21863699321E+01  0.59492711500E+02  0.18685154794E+03  0.19615079990E+03  0.41800000000E+01 0. -1.
        -11    1    1    2    0    0 -0.24942660817E+02 -0.77481449591E+01 -0.35837481678E+02  0.44345182060E+02  0.00000000000E+00 0. -1.
         11    1    1    2    0    0 -0.30149275061E+02 -0.27475119989E+01  0.62646384651E+02  0.69577993064E+02  0.00000000000E+00 0.  1.
</event>
<event>
 7    1  0.2820496E-009  0.1616947E+03  0.7561462E-02  0.1186797E+00
         -1   -1    0    0    0  501 -0.00000000000E+00  0.00000000000E+00  0.23827274930E+02  0.23827274930E+02  0.00000000000E+00 0.  1.
          1   -1    0    0  501    0  0.00000000000E+00 -0.00000000000E+00 -0.22574416718E+04  0.22574416718E+04  0.00000000000E+00 0. -1.
         25    2    1    2    0    0 -0.12909734221E+03 -0.80545628704E+02 -0.18308345091E+04  0.18414003558E+04  0.12508616442E+03 0.  0.
          5    1    3    3  502    0 -0.81154211808E+02 -0.54969418460E+02 -0.16401217710E+04  0.16430534194E+04  0.41800000000E+01 0. -1.
         -5    1    3    3    0  502 -0.47943130400E+02 -0.25576210243E+02 -0.19071273815E+03  0.19834693639E+03  0.41800000000E+01 0. -1.
        -11    1    1    2    0    0 -0.88795677182E+00  0.32023996147E+02 -0.38652526894E+02  0.50203014170E+02  0.00000000000E+00 0. -1.
         11    1    1    2    0    0  0.12998529898E+03  0.48521632557E+02 -0.36412736082E+03  0.38966557672E+03  0.00000000000E+00 0.  1.
</event>
<event>
 7    1  0.2820496E-009  0.8628031E+02  0.7561462E-02  0.1312118E+00
         -1   -1    0    0    0  501 -0.00000000000E+00  0.00000000000E+00  0.22525622290E+03  0.22525622290E+03  0.00000000000E+00 0.  1.
          1   -1    0    0  501    0  0.00000000000E+00 -0.00000000000E+00 -0.51534949743E+02  0.51534949743E+02  0.00000000000E+00 0. -1.
         25    2    1    2    0    0 -0.89377742653E+01 -0.19287283550E+02  0.38750601614E+02  0.13267655991E+03  0.12509827060E+03 0.  0.
          5    1    3    3  502    0  0.43444500928E+02 -0.48618528620E+02  0.10418796004E+02  0.66160484401E+02  0.41800000000E+01 0.  1.
         -5    1    3    3    0  502 -0.52382275193E+02  0.29331245070E+02  0.28331805610E+02  0.66516075507E+02  0.41800000000E+01 0.  1.
        -11    1    1    2    0    0 -0.16985938095E+02  0.76697894999E+01  0.81085330385E+02  0.83199630814E+02  0.00000000000E+00 0.  1.
         11    1    1    2    0    0  0.25923712360E+02  0.11617494050E+02  0.53885341153E+02  0.60914981915E+02  0.00000000000E+00 0. -1.
</event>
<event>
 7    1  0.2820496E-009  0.1376184E+03  0.7561462E-02  0.1216570E+00
          1   -1    0    0  501    0  0.00000000000E+00  0.00000000000E+00  0.16192274019E+03  0.16192274019E+03  0.00000000000E+00 0. -1.
         -1   -1    0    0    0  501 -0.00000000000E+00 -0.00000000000E+00 -0.19953080602E+03  0.19953080602E+03  0.00000000000E+00 0.  1.
         25    2    1    2    0    0 -0.68597041939E+02 -0.67186250165E+02  0.81199636740E+02  0.17737043854E+03  0.12508934841E+03 0.  0.
          5    1    3    3  502    0 -0.25221887804E+02 -0.84956624342E+02  0.63385043309E+01  0.88946167321E+02  0.41800000000E+01 0.  1.
         -5    1    3    3    0  502 -0.43375154135E+02  0.17770374177E+02  0.74861132410E+02  0.88424271217E+02  0.41800000000E+01 0.  1.
        -11    1    1    2    0    0  0.94797709776E+02  0.60354038514E+02 -0.10450085591E+03  0.15345893467E+03  0.00000000000E+00 0. -1.
         11    1    1    2    0    0 -0.26200667837E+02  0.68322116514E+01 -0.14306846654E+02  0.30624173006E+02  0.00000000000E+00 0.  1.
</event>
<event>
 7    1  0.2820496E-009  0.8626544E+02  0.7561462E-02  0.1312156E+00
         -2   -1    0    0    0  501 -0.00000000000E+00  0.00000000000E+00  0.41361005140E+03  0.41361005140E+03  0.00000000000E+00 0.  1.
          2   -1    0    0  501    0  0.00000000000E+00 -0.00000000000E+00 -0.57986280946E+02  0.57986280946E+02  0.00000000000E+00 0. -1.
         25    2    1    2    0    0 -0.52995103857E+02 -0.22453245830E+02  0.33668996578E+03  0.36375982924E+03  0.12509376896E+03 0.  0.
          5    1    3    3  502    0 -0.42514066638E+01 -0.22671809986E+02  0.30403998452E+03  0.30494240442E+03  0.41800000000E+01 0.  1.
         -5    1    3    3    0  502 -0.48743697193E+02  0.21856415620E+00  0.32649981259E+02  0.58817424821E+02  0.41800000000E+01 0.  1.
        -11    1    1    2    0    0  0.74428001377E+02  0.92718352180E+01  0.29433457771E+02  0.80571848394E+02  0.00000000000E+00 0.  1.
         11    1    1    2    0    0 -0.21432897520E+02  0.13181410612E+02 -0.10499653090E+02  0.27264654717E+02  0.00000000000E+00 0. -1.
</event>
<event>
 7    1  0.2820496E-009  0.1082898E+03  0.7561462E-02  0.1263770E+00
          1   -1    0    0  501    0  0.00000000000E+00  0.00000000000E+00  0.54010040757E+03  0.54010040757E+03  0.00000000000E+00 0. -1.
         -1   -1    0    0    0  501 -0.00000000000E+00 -0.00000000000E+00 -0.24966208721E+02  0.24966208721E+02  0.00000000000E+00 0.  1.
         25    2    1    2    0    0  0.47339845581E+00 -0.16938080144E+02  0.38225936712E+03  0.40256287015E+03  0.12509003961E+03 0.  0.
          5    1    3    3  502    0  0.13941394471E+02 -0.69527208158E+02  0.19435879760E+03  0.20693286293E+03  0.41800000000E+01 0.  1.
         -5    1    3    3    0  502 -0.13467996015E+02  0.52589128014E+02  0.18790056951E+03  0.19563000722E+03  0.41800000000E+01 0.  1.
        -11    1    1    2    0    0 -0.70635082138E+01  0.53491359376E+02  0.59883058127E+02  0.80605206574E+02  0.00000000000E+00 0.  1.
         11    1    1    2    0    0  0.65901097580E+01 -0.36553279232E+02  0.72991773607E+02  0.81898539569E+02  0.00000000000E+00 0. -1.
</event>
<event>
 7    1  0.2820496E-009  0.1247121E+03  0.7561462E-02  0.1235520E+00
         -1   -1    0    0    0  501 -0.00000000000E+00  0.00000000000E+00  0.62115914272E+02  0.62115914272E+02  0.00000000000E+00 0.  1.
          1   -1    0    0  501    0  0.00000000000E+00 -0.00000000000E+00 -0.30933430314E+03  0.30933430314E+03  0.00000000000E+00 0. -1.
         25    2    1    2    0    0  0.18622613369E+02 -0.58023262175E+02 -0.20016968667E+03  0.24378019619E+03  0.12508948760E+03 0.  0.
          5    1    3    3  502    0  0.10213762536E+02 -0.95808945168E+02 -0.16597789435E+03  0.19196304002E+03  0.41800000000E+01 0.  1.
         -5    1    3    3    0  502  0.84088508330E+01  0.37785682993E+02 -0.34191792322E+02  0.51817156172E+02  0.41800000000E+01 0.  1.
        -11    1    1    2    0    0 -0.52272589310E+02  0.67346641737E+01 -0.42552013878E+01  0.52876138603E+02  0.00000000000E+00 0.  1.
         11    1    1    2    0    0  0.33649975941E+02  0.51288598001E+02 -0.42793500804E+02  0.74793882616E+02  0.00000000000E+00 0. -1.
</event>
<event>
 6    1  0.2820496E-009  0.1223803E+03  0.7561462E-02  0.1239221E+00
         -2   -1    0    0    0  501 -0.00000000000E+00  0.00000000000E+00  0.27974339723E+02  0.27974339723E+02  0.00000000000E+00 0.  1.
          2   -1    0    0  501    0  0.00000000000E+00 -0.00000000000E+00 -0.65408023098E+03  0.65408023098E+03  0.00000000000E+00 0. -1.
          5    1    1    2  502    0 -0.70631643486E+02 -0.75585867721E+02 -0.31545123297E+03  0.33200753793E+03  0.41800000000E+01 0.  1.
         -5    1    1    2    0  502  0.26851445890E+02  0.10202479782E+02 -0.22201289883E+02  0.36543951791E+02  0.41800000000E+01 0.  1.
        -11    1    1    2    0    0 -0.23683761439E+02  0.15721816091E+02 -0.14169882785E+03  0.14452215703E+03  0.00000000000E+00 0. -1.
         11    1    1    2    0    0  0.67463959035E+02  0.49661571849E+02 -0.14675454055E+03  0.16898092395E+03  0.00000000000E+00 0.  1.
</event>
<event>
 7    1  0.2820496E-009  0.1129644E+03  0.7561462E-02  0.1255177E+00
          1   -1    0    0  501    0  0.00000000000E+00  0.00000000000E+00  0.13512698134E+03  0.13512698134E+03  0.00000000000E+00 0. -1.
         -1   -1    0    0    0  501 -0.00000000000E+00 -0.00000000000E+00 -0.12855443977E+03  0.12855443977E+03  0.00000000000E+00 0.  1.
         25    2    1    2    0    0  0.34491710762E+02 -0.62780184776E+02 -0.17483250590E+02  0.14520208097E+03  0.12508777141E+03 0.  0.
          5    1    3    3  502    0  0.14719906956E+02  0.35652934921E+02  0.11770786769E+02  0.40544188862E+02  0.41800000000E+01 0.  1.
         -5    1    3    3    0  502  0.19771803806E+02 -0.98433119697E+02 -0.29254037360E+02  0.10465789211E+03  0.41800000000E+01 0.  1.
        -11    1    1    2    0    0 -0.45251762034E+02  0.36135254386E+02 -0.23840207144E+02  0.62624548329E+02  0.00000000000E+00 0.  1.
         11    1    1    2    0    0  0.10760051272E+02  0.26644930391E+02  0.47895999309E+02  0.55854791815E+02  0.00000000000E+00 0. -1.
</event>
<event>
 7    1  0.2820496E-009  0.1437715E+03  0.7561462E-02  0.1208342E+00
         -1   -1    0    0    0  501 -0.00000000000E+00  0.00000000000E+00  0.11132817397E+03  0.11132817397E+03  0.00000000000E+00 0.  1.
          1   -1    0    0  501    0  0.00000000000E+00 -0.00000000000E+00 -0.19838215130E+03  0.19838215130E+03  0.00000000000E+00 0. -1.
         25    2    1    2    0    0  0.94212770803E+02  0.35310826361E+02 -0.35864606033E+02  0.16448726302E+03  0.12508752571E+03 0.  0.
          5    1    3    3  502    0  0.11384573504E+03  0.57159664330E+02 -0.15268193131E+02  0.12836926709E+03  0.41800000000E+01 0. -1.
         -5    1    3    3    0  502 -0.19632964234E+02 -0.21848837970E+02 -0.20596412902E+02  0.36117995926E+02  0.41800000000E+01 0. -1.
        -11    1    1    2    0    0 -0.52837479857E+01 -0.40967162468E+02 -0.36074416882E+02  0.54841498401E+02  0.00000000000E+00 0. -1.
         11    1    1    2    0    0 -0.88929022818E+02  0.56563361077E+01 -0.15114954411E+02  0.90381563852E+02  0.00000000000E+00 0.  1.
</event>
<event>
 7    1  0.2820496E-009  0.9638461E+02  0.7561462E-02  0.1288088E+00
          2   -1    0    0  501    0  0.00000000000E+00  0.00000000000E+00  0.20287107458E+03  0.20287107458E+03  0.00000000000E+00 0. -1.
         -2   -1    0    0    0  501 -0.00000000000E+00 -0.00000000000E+00 -0.82517842664E+02  0.82517842664E+02  0.00000000000E+00 0.  1.
         25    2    1    2    0    0 -0.48809964100E+02 -0.27565674090E+02  0.19585595284E+02  0.13846620789E+03  0.12508803380E+03 0.  0.
          5    1    3    3  502    0  0.12264398275E+02  0.41171445032E+02 -0.42896349427E+01  0.43374839701E+02  0.41800000000E+01 0.  1.
         -5    1    3    3    0  502 -0.61074362376E+02 -0.68737119122E+02  0.23875230226E+02  0.95091368184E+02  0.41800000000E+01 0.  1.
        -11    1    1    2    0    0  0.15500906615E+02  0.21195906262E+01 -0.16290216171E+02  0.22586321374E+02  0.00000000000E+00 0.  1.
         11    1    1    2    0    0  0.33309057485E+02  0.25446083464E+02  0.11705785280E+03  0.12433638798E+03  0.00000000000E+00 0. -1.
</event>
<event>
 7    1  0.2820496E-009  0.1822530E+03  0.7561462E-02  0.1165640E+00
         -2   -1    0    0    0  501 -0.00000000000E+00  0.00000000000E+00  0.36241313248E+02  0.36241313248E+02  0.00000000000E+00 0.  1.
          2   -1    0    0  501    0  0.00000000000E+00 -0.00000000000E+00 -0.10245968722E+04  0.10245968722E+04  0.00000000000E+00 0. -1.
         25    2    1    2    0    0  0.71775423830E+02 -0.12846832860E+03 -0.68996480063E+03  0.71648315776E+03  0.12506344918E+03 0.  0.
          5    1    3    3  502    0  0.14279883071E+02  0.24952322383E+02 -0.11534566649E+03  0.11894800810E+03  0.41800000000E+01 0. -1.
         -5    1    3    3    0  502  0.57495540759E+02 -0.15342065098E+03 -0.57461913414E+03  0.59753514966E+03  0.41800000000E+01 0. -1.
        -11    1    1    2    0    0  0.36248110253E+01  0.83889877635E+02 -0.15657377891E+03  0.17766822751E+03  0.00000000000E+00 0. -1.
         11    1    1    2    0    0 -0.75400234856E+02  0.44578450960E+02 -0.14181697943E+03  0.16668680020E+03  0.00000000000E+00 0.  1.
</event>
<event>
 7    1  0.2820496E-009  0.1210001E+03  0.7561462E-02  0.1241456E+00
          4   -1    0    0  501    0  0.00000000000E+00  0.00000000000E+00  0.64459927311E+03  0.64459927311E+03  0.00000000000E+00 0. -1.
         -4   -1    0    0    0  501 -0.00000000000E+00 -0.00000000000E+00 -0.30221866340E+02  0.30221866340E+02  0.00000000000E+00 0.  1.
         25    2    1    2    0    0  0.28273255457E+02 -0.68619629801E+02  0.45153152357E+03  0.47437961454E+03  0.12508905366E+03 0.  0.
          5    1    3    3  502    0 -0.37153891511E+02 -0.67747270399E+02  0.28745422231E+03  0.29768692720E+03  0.41800000000E+01 0.  1.
         -5    1    3    3    0  502  0.65427146968E+02 -0.87235940202E+00  0.16407730126E+03  0.17669268735E+03  0.41800000000E+01 0.  1.
        -11    1    1    2    0    0  0.23180756148E+01 -0.12315072603E+02 -0.34376309705E+01  0.12994298537E+02  0.00000000000E+00 0.  1.
         11    1    1    2    0    0 -0.30591331072E+02  0.80934702404E+02  0.16628351417E+03  0.18744722637E+03  0.00000000000E+00 0. -1.
</event>
<event>
 7    1  0.2820496E-009  0.4244588E+03  0.7561462E-02  0.1035625E+00
          1   -1    0    0  501    0  0.00000000000E+00  0.00000000000E+00  0.65987138663E+03  0.65987138663E+03  0.00000000000E+00 0. -1.
         -1   -1    0    0    0  501 -0.00000000000E+00 -0.00000000000E+00 -0.29923770537E+03  0.29923770537E+03  0.00000000000E+00 0.  1.
         25    2    1    2    0    0 -0.41144809949E+03  0.83730949597E+02  0.78763620080E+02  0.44514276848E+03  0.12509183021E+03 0.  0.
          5    1    3    3  502    0 -0.18302937408E+03  0.44957713947E+02  0.98283191383E+02  0.21259822654E+03  0.41800000000E+01 0. -1.
         -5    1    3    3    0  502 -0.22841872541E+03  0.38773235650E+02 -0.19519571303E+02  0.23254454194E+03  0.41800000000E+01 0. -1.
        -11    1    1    2    0    0  0.27725362992E+03 -0.97224030251E+02  0.17582912978E+03  0.34240030701E+03  0.00000000000E+00 0. -1.
         11    1    1    2    0    0  0.13419446957E+03  0.13493080654E+02  0.10604093140E+03  0.17156601651E+03  0.00000000000E+00 0.  1.
</event>
<event>
 7    1  0.2820496E-009  0.1312683E+03  0.7561462E-02  0.1225586E+00
         -4   -1    0    0    0  501 -0.00000000000E+00  0.00000000000E+00  0.15390744897E+03  0.15390744897E+03  0.00000000000E+00 0. -1.
          4   -1    0    0  501    0  0.00000000000E+00 -0.00000000000E+00 -0.16041216084E+03  0.16041216084E+03  0.00000000000E+00 0.  1.
         25    2    1    2    0    0 -0.40490844694E+02  0.10355297692E+03  0.18837075988E+02  0.16842171307E+03  0.12509320713E+03 0.  0.
          5    1    3    3  502    0  0.10995749314E+02  0.77253228663E+02 -0.38304195146E+02  0.87026729271E+02  0.41800000000E+01 0.  1.
         -5    1    3    3    0  502 -0.51486594008E+02  0.26299748253E+02  0.57141271134E+02  0.81394983798E+02  0.41800000000E+01 0.  1.
        -11    1    1    2    0    0 -0.16001870452E+02 -0.24525478731E+02 -0.37955519848E+02  0.47939341380E+02  0.00000000000E+00 0.  1.
         11    1    1    2    0    0  0.56492715146E+02 -0.79027498184E+02  0.12613731983E+02  0.97958555361E+02  0.00000000000E+00 0. -1.
</event>
<event>
 6    1  0.2820496E-009  0.2106669E+03  0.7561462E-02  0.1141039E+00
         -1   -1    0    0    0  501 -0.00000000000E+00  0.00000000000E+00  0.22539109219E+03  0.22539109219E+03  0.00000000000E+00 0.  1.
          1   -1    0    0  501    0  0.00000000000E+00 -0.00000000000E+00 -0.26870342406E+03  0.26870342406E+03  0.00000000000E+00 0. -1.
          5    1    1    2  502    0 -0.35821329853E+02 -0.13718682901E+03 -0.32845237549E+02  0.14560108432E+03  0.41800000000E+01 0.  1.
         -5    1    1    2    0  502 -0.44431768585E+01 -0.69029279100E+02  0.75804462217E+02  0.10270624171E+03  0.41800000000E+01 0.  1.
        -11    1    1    2    0    0  0.30001624816E+02  0.16553392094E+03 -0.10660420965E+03  0.19916333495E+03  0.00000000000E+00 0. -1.
         11    1    1    2    0    0  0.10262881895E+02  0.40682187169E+02  0.20332653111E+02  0.46623855270E+02  0.00000000000E+00 0.  1.
</event>
<event>
 7    1  0.2820496E-009  0.1054891E+03  0.7561462E-02  0.1269159E+00
         -1   -1    0    0    0  501 -0.00000000000E+00  0.00000000000E+00  0.20296680595E+02  0.20296680595E+02  0.00000000000E+00 0.  1.
          1   -1    0    0  501    0  0.00000000000E+00 -0.00000000000E+00 -0.89437875348E+03  0.89437875348E+03  0.00000000000E+00 0. -1.
         25    2    1    2    0    0 -0.60730045242E+02  0.49945076378E+02 -0.46751722673E+03  0.49030916697E+03  0.12509225746E+03 0.  0.
          5    1    3    3  502    0 -0.38981120824E+02  0.54336701854E+02 -0.90437376188E+02  0.11255397088E+03  0.41800000000E+01 0.  1.
         -5    1    3    3    0  502 -0.21748924417E+02 -0.43916254761E+01 -0.37707985054E+03  0.37775519609E+03  0.41800000000E+01 0.  1.
        -11    1    1    2    0    0 -0.17548160178E+02 -0.38467828061E+02 -0.15412243779E+03  0.15981688757E+03  0.00000000000E+00 0. -1.
         11    1    1    2    0    0  0.78278205420E+02 -0.11477248317E+02 -0.25244240837E+03  0.26454937954E+03  0.00000000000E+00 0.  1.
</event>
<event>
 7    1  0.2820496E-009  0.3688507E+03  0.7561462E-02  0.1055133E+00
          1   -1    0    0  501    0  0.00000000000E+00  0.00000000000E+00  0.70698623550E+03  0.70698623550E+03  0.00000000000E+00 0. -1.
         -1   -1    0    0    0  501 -0.00000000000E+00 -0.00000000000E+00 -0.21769563821E+03  0.21769563821E+03  0.00000000000E+00 0.  1.
         25    2    1    2    0    0  0.24678327540E+03  0.27288874854E+03  0.34404861372E+03  0.51902392197E+03  0.12508448695E+03 0.  0.
          5    1    3    3  502    0  0.35900847299E+02  0.60184317477E+02  0.10965074357E+02  0.71054402837E+02  0.41800000000E+01 0. -1.
         -5    1    3    3    0  502  0.21088242810E+03  0.21270443106E+03  0.33308353936E+03  0.44796951913E+03  0.41800000000E+01 0. -1.
        -11    1    1    2    0    0 -0.18968792981E+03 -0.21203475175E+03  0.69275174977E+02  0.29281273287E+03  0.00000000000E+00 0. -1.
         11    1    1    2    0    0 -0.57095345584E+02 -0.60853996793E+02  0.75966808592E+02  0.11284521886E+03  0.00000000000E+00 0.  1.
</event>
<event>
 7    1  0.2820496E-009  0.2012474E+03  0.7561462E-02  0.1148691E+00
         -3   -1    0    0    0  501 -0.00000000000E+00  0.00000000000E+00  0.29139973270E+03  0.29139973270E+03  0.00000000000E+00 0.  1.
          3   -1    0    0  501    0  0.00000000000E+00 -0.00000000000E+00 -0.16256823410E+03  0.16256823410E+03  0.00000000000E+00 0. -1.
         25    2    1    2    0    0  0.95043164085E+02 -0.16145586664E+03  0.43124175005E+02  0.22936657421E+03  0.12509248972E+03 0.  0.
          5    1    3    3  502    0  0.98206166425E+02 -0.76599969173E+02 -0.16244488107E+02  0.12567164436E+03  0.41800000000E+01 0.  1.
         -5    1    3    3    0  502 -0.31630023400E+01 -0.84855897466E+02  0.59368663112E+02  0.10369492986E+03  0.41800000000E+01 0.  1.
        -11    1    1    2    0    0 -0.54557240531E+02  0.48974967586E+02  0.74512681372E+02  0.10453315086E+03  0.00000000000E+00 0.  1.
         11    1    1    2    0    0 -0.40485923554E+02  0.11248089905E+03  0.11194642223E+02  0.12006824173E+03  0.00000000000E+00 0. -1.
</event>
<event>
 7    1  0.2820496E-009  0.1082001E+03  0.7561462E-02  0.1263940E+00
         -2   -1    0    0    0  501 -0.00000000000E+00  0.00000000000E+00  0.10722221551E+03  0.10722221551E+03  0.00000000000E+00 0. -1.
          2   -1    0    0  501    0  0.00000000000E+00 -0.00000000000E+00 -0.18568547237E+03  0.18568547237E+03  0.00000000000E+00 0.  1.
         25    2    1    2    0    0  0.53923256513E+02 -0.18417427913E+02  0.29411733175E+02  0.14056789644E+03  0.12508942488E+03 0.  0.
          5    1    3    3  502    0  0.62924143810E+02 -0.62190195332E+02  0.32774996115E+01  0.88630032569E+02  0.41800000000E+01 0. -1.
         -5    1    3    3    0  502 -0.90008872967E+01  0.43772767418E+02  0.26134233564E+02  0.51937863871E+02  0.41800000000E+01 0. -1.
        -11    1    1    2    0    0  0.74642241179E+01  0.20198745575E+02 -0.83556847402E+02  0.86287025168E+02  0.00000000000E+00 0.  1.
         11    1    1    2    0    0 -0.61387480631E+02 -0.17813176616E+01 -0.24318142628E+02  0.66052766268E+02  0.00000000000E+00 0. -1.
</event>
<event>
 7    1  0.2820496E-009  0.9665469E+02  0.7561462E-02  0.1287492E+00
          1   -1    0    0  501    0  0.00000000000E+00  0.00000000000E+00  0.25510741598E+03  0.25510741598E+03  0.00000000000E+00 0. -1.
         -1   -1    0    0    0  501 -0.00000000000E+00 -0.00000000000E+00 -0.83048212734E+02  0.83048212734E+02  0.00000000000E+00 0.  1.
         25    2    1    2    0    0  0.38795884803E+02  0.23941540031E+02 -0.51295481810E+01  0.13323702220E+03  0.12508986291E+03 0.  0.
          5    1    3    3  502    0 -0.24130765101E+02  0.26341297291E+02 -0.45741189753E+02  0.58188371753E+02  0.41800000000E+01 0. -1.
         -5    1    3    3    0  502  0.62926649904E+02 -0.23997572603E+01  0.40611641572E+02  0.75048650449E+02  0.41800000000E+01 0. -1.
        -11    1    1    2    0    0 -0.58474510638E+02 -0.38273784675E+02  0.16145702076E+03  0.17593328435E+03  0.00000000000E+00 0. -1.
         11    1    1    2    0    0  0.19678625835E+02  0.14332244645E+02  0.15731730666E+02  0.28985322166E+02  0.00000000000E+00 0.  1.
</event>
<event>
 7    1  0.2820496E-009  0.1761728E+03  0.7561462E-02  0.1171559E+00
          1   -1    0    0  501    0  0.00000000000E+00  0.00000000000E+00  0.78327510652E+02  0.78327510652E+02  0.00000000000E+00 0. -1.
         -1   -1    0    0    0  501 -0.00000000000E+00 -0.00000000000E+00 -0.43968021686E+03  0.43968021686E+03  0.00000000000E+00 0.  1.
         25    2    1    2    0    0  0.14510817741E+03 -0.41511280259E+02 -0.22331000331E+03  0.29714469735E+03  0.12509214221E+03 0.  0.
          5    1    3    3  502    0  0.15163779074E+03 -0.58249437034E+02 -0.22615607765E+03  0.27847991014E+03  0.41800000000E+01 0.  1.
         -5    1    3    3    0  502 -0.65296133212E+01  0.16738156775E+02  0.28460743397E+01  0.18664787207E+02  0.41800000000E+01 0.  1.
        -11    1    1    2    0    0 -0.24040199238E+02  0.44191125808E+02 -0.29995631415E+02  0.58570681092E+02  0.00000000000E+00 0. -1.
         11    1    1    2    0    0 -0.12106797818E+03 -0.26798455489E+01 -0.10804707149E+03  0.16229234908E+03  0.00000000000E+00 0.  1.
</event>
<event>
 7    1  0.2820496E-009  0.1185650E+03  0.7561462E-02  0.1245483E+00
          2   -1    0    0  501    0  0.00000000000E+00  0.00000000000E+00  0.18306580162E+04  0.18306580162E+04  0.00000000000E+00 0. -1.
         -2   -1    0    0    0  501 -0.00000000000E+00 -0.00000000000E+00 -0.14295661702E+02  0.14295661702E+02  0.00000000000E+00 0.  1.
         25    2    1    2    0    0 -0.91886468147E+02 -0.32506045870E+02  0.13603336471E+04  0.13695455546E+04  0.12509048190E+03 0.  0.
          5    1    3    3  502    0 -0.62986586966E+02  0.24895035833E+02  0.31480441081E+03  0.32203472237E+03  0.41800000000E+01 0. -1.
         -5    1    3    3    0  502 -0.28899881182E+02 -0.57401081704E+02  0.10455292363E+04  0.10475108323E+04  0.41800000000E+01 0. -1.
        -11    1    1    2    0    0  0.82073044225E+02  0.13081644742E+02  0.44147011145E+03  0.44922485831E+03  0.00000000000E+00 0. -1.
         11    1    1    2    0    0  0.98134239225E+01  0.19424401128E+02  0.14558595895E+02  0.26183264936E+02  0.00000000000E+00 0.  1.
</event>
<event>
 7    1  0.2820496E-009  0.7677985E+02  0.7561462E-02  0.1338446E+00
         -2   -1    0    0    0  501 -0.00000000000E+00  0.00000000000E+00  0.49499254751E+03  0.49499254751E+03  0.00000000000E+00 0.  1.
          2   -1    0    0  501    0  0.00000000000E+00 -0.00000000000E+00 -0.25152093123E+02  0.25152093123E+02  0.00000000000E+00 0. -1.
         25    2    1    2    0    0 -0.12634549641E+02 -0.15487691375E+02  0.29925882830E+03  0.32496053039E+03  0.12507597518E+03 0.  0.
          5    1    3    3  502    0 -0.19137283090E+02  0.42480343863E+02  0.48151221263E+02  0.67132910915E+02  0.41800000000E+01 0. -1.
         -5    1    3    3    0  502  0.65027334484E+01 -0.57968035238E+02  0.25110760704E+03  0.25782761948E+03  0.41800000000E+01 0. -1.
        -11    1    1    2    0    0  0.25775953784E+02  0.21764736019E+02  0.17632919812E+03  0.17952740636E+03  0.00000000000E+00 0.  1.
         11    1    1    2    0    0 -0.13141404143E+02 -0.62770446445E+01 -0.57475720252E+01  0.15656703883E+02  0.00000000000E+00 0. -1.
</event>
<event>
 7    1  0.2820496E-009  0.1162743E+03  0.7561462E-02  0.1249373E+00
         -2   -1    0    0    0  501 -0.00000000000E+00  0.00000000000E+00  0.25652567893E+02  0.25652567893E+02  0.00000000000E+00 0. -1.
          2   -1    0    0  501    0  0.00000000000E+00 -0.00000000000E+00 -0.65912805225E+03  0.65912805225E+03  0.00000000000E+00 0.  1.
         25    2    1    2    0    0 -0.60127942805E+02  0.22582060240E+02 -0.42746702256E+03  0.45000211421E+03  0.12509407849E+03 0.  0.
          5    1    3    3  502    0  0.31127413243E+02  0.99950851680E+01 -0.22653921367E+03  0.22892423488E+03  0.41800000000E+01 0.  1.
         -5    1    3    3    0  502 -0.91255356048E+02  0.12586975072E+02 -0.20092780889E+03  0.22107787934E+03  0.41800000000E+01 0.  1.
        -11    1    1    2    0    0  0.34458107758E+02  0.32021084848E+02 -0.12654031452E+03  0.13500060097E+03  0.00000000000E+00 0.  1.
         11    1    1    2    0    0  0.25669835047E+02 -0.54603145088E+02 -0.79468147282E+02  0.99777904955E+02  0.00000000000E+00 0. -1.
</event>
<event>
 7    1  0.2820496E-009  0.1857713E+03  0.7561462E-02  0.1162332E+00
          1   -1    0    0  501    0  0.00000000000E+00  0.00000000000E+00  0.19970598141E+04  0.19970598141E+04  0.00000000000E+00 0. -1.
         -1   -1    0    0    0  501 -0.00000000000E+00 -0.00000000000E+00 -0.31565477197E+02  0.31565477197E+02  0.00000000000E+00 0.  1.
         25    2    1    2    0    0 -0.99603376360E+02 -0.13884903135E+03  0.16109664694E+04  0.16248263093E+04  0.12509070223E+03 0.  0.
          5    1    3    3  502    0 -0.10350771936E+03 -0.80980950825E+02  0.71604768346E+03  0.72802027427E+03  0.41800000000E+01 0. -1.
         -5    1    3    3    0  502  0.39043430050E+01 -0.57868080522E+02  0.89491878593E+03  0.89680603502E+03  0.41800000000E+01 0. -1.
        -11    1    1    2    0    0  0.73256469883E+02  0.48658712225E+02  0.24032896929E+03  0.25591442737E+03  0.00000000000E+00 0.  1.
         11    1    1    2    0    0  0.26346906477E+02  0.90190319122E+02  0.11419889822E+03  0.14788455463E+03  0.00000000000E+00 0. -1.
</event>
<event>
 7    1  0.2820496E-009  0.1656155E+03  0.7561462E-02  0.1182499E+00
          1   -1    0    0  501    0  0.00000000000E+00  0.00000000000E+00  0.95821417299E+03  0.95821417299E+03  0.00000000000E+00 0. -1.
         -1   -1    0    0    0  501 -0.00000000000E+00 -0.00000000000E+00 -0.60048317813E+02  0.60048317813E+02  0.00000000000E+00 0.  1.
         25    2    1    2    0    0 -0.72489790733E+02  0.13847532382E+03  0.77260406556E+03  0.79811916365E+03  0.12508785791E+03 0.  0.
          5    1    3    3  502    0 -0.42402968621E+02  0.11754225025E+02  0.41798529571E+03  0.42031577818E+03  0.41800000000E+01 0. -1.
         -5    1    3    3    0  502 -0.30086822112E+02  0.12672109879E+03  0.35461876985E+03  0.37780338547E+03  0.41800000000E+01 0. -1.
        -11    1    1    2    0    0  0.66416339979E+02 -0.11851574661E+03  0.13975770958E+03  0.19490851648E+03  0.00000000000E+00 0. -1.
         11    1    1    2    0    0  0.60734507544E+01 -0.19959577210E+02 -0.14195919957E+02  0.25234810676E+02  0.00000000000E+00 0.  1.
</event>
<event>
 7    1  0.2820496E-009  0.1109407E+03  0.7561462E-02  0.1258838E+00
          3   -1    0    0  501    0  0.00000000000E+00  0.00000000000E+00  0.34418524640E+03  0.34418524640E+03  0.00000000000E+00 0. -1.
         -3   -1    0    0    0  501 -0.00000000000E+00 -0.00000000000E+00 -0.59992265727E+02  0.59992265727E+02  0.00000000000E+00 0.  1.
         25    2    1    2    0    0  0.53563812729E+02  0.70705493328E+02  0.12940251469E+03  0.20063848282E+03  0.12506974519E+03 0.  0.
          5    1    3    3  502    0 -0.48943928103E+01 -0.21280609944E+02  0.76022164590E+02  0.79206447651E+02  0.41800000000E+01 0. -1.
         -5    1    3    3    0  502  0.58458205539E+02  0.91986103272E+02  0.53380350095E+02  0.12143203517E+03  0.41800000000E+01 0. -1.
        -11    1    1    2    0    0 -0.22435568415E+02 -0.44710098484E+02  0.72742401362E+01  0.50549601444E+02  0.00000000000E+00 0.  1.
         11    1    1    2    0    0 -0.31128244314E+02 -0.25995394843E+02  0.14751622585E+03  0.15298942786E+03  0.00000000000E+00 0. -1.
</event>
<event>
 7    1  0.2820496E-009  0.8167472E+02  0.7561462E-02  0.1324365E+00
          4   -1    0    0  501    0  0.00000000000E+00  0.00000000000E+00  0.70107903194E+02  0.70107903194E+02  0.00000000000E+00 0. -1.
         -4   -1    0    0    0  501 -0.00000000000E+00 -0.00000000000E+00 -0.23347958416E+03  0.23347958416E+03  0.00000000000E+00 0.  1.
         25    2    1    2    0    0 -0.64696429542E+01  0.41851778417E+02 -0.28476424841E+02  0.13510160214E+03  0.12509239982E+03 0.  0.
          5    1    3    3  502    0 -0.49942174778E+02  0.21660667012E+02 -0.57192921870E+02  0.79069008018E+02  0.41800000000E+01 0.  1.
         -5    1    3    3    0  502  0.43472531824E+02  0.20191111405E+02  0.28716497029E+02  0.56032594126E+02  0.41800000000E+01 0.  1.
        -11    1    1    2    0    0  0.24950753216E+02 -0.19711962286E+02 -0.13119157412E+01  0.31824874958E+02  0.00000000000E+00 0. -1.
         11    1    1    2    0    0 -0.18481110262E+02 -0.22139816131E+02 -0.13358334039E+03  0.13666101025E+03  0.00000000000E+00 0.  1.
</event>
<event>
 7    1  0.2820496E-009  0.1322474E+03  0.7561462E-02  0.1224159E+00
         -1   -1    0    0    0  501 -0.00000000000E+00  0.00000000000E+00  0.39284852224E+02  0.39284852224E+02  0.00000000000E+00 0.  1.
          1   -1    0    0  501    0  0.00000000000E+00 -0.00000000000E+00 -0.48332066083E+03  0.48332066083E+03  0.00000000000E+00 0. -1.
         25    2    1    2    0    0  0.63978826196E+02  0.51936020367E+02 -0.21100802730E+03  0.25877598298E+03  0.12509988558E+03 0.  0.
          5    1    3    3  502    0  0.80881561751E+02  0.80240378614E+02 -0.14135151906E+03  0.18159865014E+03  0.41800000000E+01 0. -1.
         -5    1    3    3    0  502 -0.16902735555E+02 -0.28304358248E+02 -0.69656508238E+02  0.77177332844E+02  0.41800000000E+01 0. -1.
        -11    1    1    2    0    0 -0.22993919665E+02 -0.69097415112E+02 -0.18278660842E+03  0.19675903368E+03  0.00000000000E+00 0. -1.
         11    1    1    2    0    0 -0.40984906531E+02  0.17161394746E+02 -0.50241172883E+02  0.67070496387E+02  0.00000000000E+00 0.  1.
</event>
<event>
 7    1  0.2820496E-009  0.1362883E+03  0.7561462E-02  0.1218412E+00
         -1   -1    0    0    0  501 -0.00000000000E+00  0.00000000000E+00  0.52628590699E+03  0.52628590699E+03  0.00000000000E+00 0.  1.
          1   -1    0    0  501    0  0.00000000000E+00 -0.00000000000E+00 -0.52804266904E+02  0.52804266904E+02  0.00000000000E+00 0. -1.
         25    2    1    2    0    0  0.30096683342E+02  0.11968585743E+03  0.20042948706E+03  0.26655189737E+03  0.12508964742E+03 0.  0.
          5    1    3    3  502    0 -0.18628796806E+02  0.41834691098E+02 -0.62820679994E-01  0.45985321529E+02  0.41800000000E+01 0.  1.
         -5    1    3    3    0  502  0.48725480148E+02  0.77851166334E+02  0.20049230774E+03  0.22056657584E+03  0.41800000000E+01 0.  1.
        -11    1    1    2    0    0 -0.25857957082E+02 -0.15022605857E+02  0.13822447866E+02  0.32944995010E+02  0.00000000000E+00 0. -1.
         11    1    1    2    0    0 -0.42387262604E+01 -0.10466325157E+03  0.25922970517E+03  0.27959328152E+03  0.00000000000E+00 0.  1.
</event>
<event>
 7    1  0.2820496E-009  0.1004379E+03  0.7561462E-02  0.1279378E+00
         -1   -1    0    0    0  501 -0.00000000000E+00  0.00000000000E+00  0.27944015579E+02  0.27944015579E+02  0.00000000000E+00 0.  1.
          1   -1    0    0  501    0  0.00000000000E+00 -0.00000000000E+00 -0.43848433525E+03  0.43848433525E+03  0.00000000000E+00 0. -1.
         25    2    1    2    0    0 -0.23003113693E+02  0.15345364997E+01 -0.23331525037E+03  0.26573598282E+03  0.12509239973E+03 0.  0.
          5    1    3    3  502    0 -0.65788095129E+02 -0.12527781998E+02 -0.72962291789E+02  0.99126117677E+02  0.41800000000E+01 0.  1.
         -5    1    3    3    0  502  0.42784981436E+02  0.14062318497E+02 -0.16035295858E+03  0.16660986514E+03  0.41800000000E+01 0.  1.
        -11    1    1    2    0    0  0.42065842498E+02  0.30020150192E+02 -0.13546456034E+03  0.14498755682E+03  0.00000000000E+00 0.  1.
         11    1    1    2    0    0 -0.19062728804E+02 -0.31554686692E+02 -0.41760508965E+02  0.55704811199E+02  0.00000000000E+00 0. -1.
</event>
<event>
 7    1  0.2820496E-009  0.1029223E+03  0.7561462E-02  0.1274268E+00
          2   -1    0    0  501    0  0.00000000000E+00  0.00000000000E+00  0.10887537034E+03  0.10887537034E+03  0.00000000000E+00 0. -1.
         -2   -1    0    0    0  501 -0.00000000000E+00 -0.00000000000E+00 -0.11600519013E+03  0.11600519013E+03  0.00000000000E+00 0.  1.
         25    2    1    2    0    0  0.86632498419E+01 -0.18769464800E+02 -0.18855128481E+02  0.12817675752E+03  0.12508565302E+03 0.  0.
          5    1    3    3  502    0 -0.54133924866E+02 -0.15333137570E+02  0.12487568137E+02  0.57784069492E+02  0.41800000000E+01 0.  1.
         -5    1    3    3    0  502  0.62797174708E+02 -0.34363272301E+01 -0.31342696618E+02  0.70392688025E+02  0.41800000000E+01 0.  1.
        -11    1    1    2    0    0  0.33866324123E+02 -0.96869802137E+01  0.25764301011E+02  0.43641318746E+02  0.00000000000E+00 0. -1.
         11    1    1    2    0    0 -0.42529573965E+02  0.28456445013E+02 -0.14038992328E+02  0.53062484205E+02  0.00000000000E+00 0.  1.
</event>
<event>
 7    1  0.2820496E-009  0.9846827E+02  0.7561462E-02  0.1283550E+00
         -2   -1    0    0    0  501 -0.00000000000E+00  0.00000000000E+00  0.10236264215E+02  0.10236264215E+02  0.00000000000E+00 0.  1.
          2   -1    0    0  501    0  0.00000000000E+00 -0.00000000000E+00 -0.15372923697E+04  0.15372923697E+04  0.00000000000E+00 0. -1.
         25    2    1    2    0    0  0.49304934404E+02 -0.37518113256E+02 -0.10161819738E+04  0.10257251666E+04  0.12509087951E+03 0.  0.
          5    1    3    3  502    0 -0.12349518263E+02 -0.25903589941E+02 -0.52360380164E+02  0.59854727333E+02  0.41800000000E+01 0. -1.
         -5    1    3    3    0  502  0.61654452667E+02 -0.11614523314E+02 -0.96382159366E+03  0.96587043929E+03  0.41800000000E+01 0. -1.
        -11    1    1    2    0    0  0.83468864850E+01  0.46031283724E+02 -0.18957240601E+03  0.19525943439E+03  0.00000000000E+00 0. -1.
         11    1    1    2    0    0 -0.57651820889E+02 -0.85131704685E+01 -0.32130172561E+03  0.32654403287E+03  0.00000000000E+00 0.  1.
</event>
<event>
 7    1  0.2820496E-009  0.3237151E+03  0.7561462E-02  0.1073952E+00
          1   -1    0    0  501    0  0.00000000000E+00  0.00000000000E+00  0.64748971496E+03  0.64748971496E+03  0.00000000000E+00 0. -1.
         -1   -1    0    0    0  501 -0.00000000000E+00 -0.00000000000E+00 -0.20501904462E+03  0.20501904462E+03  0.00000000000E+00 0.  1.
         25    2    1    2    0    0 -0.27605340334E+03 -0.13784696486E+03  0.37508423212E+02  0.33505876086E+03  0.12510085611E+03 0.  0.
          5    1    3    3  502    0  0.11201189230E+02  0.38153025616E+01 -0.56525210658E-01  0.12549851350E+02  0.41800000000E+01 0.  1.
         -5    1    3    3    0  502 -0.28725459257E+03 -0.14166226742E+03  0.37564948422E+02  0.32250890951E+03  0.41800000000E+01 0.  1.
        -11    1    1    2    0    0  0.18753918852E+03  0.60604585687E+02  0.30531531670E+03  0.36340240183E+03  0.00000000000E+00 0. -1.
         11    1    1    2    0    0  0.88514214822E+02  0.77242379174E+02  0.99646930425E+02  0.15404759690E+03  0.00000000000E+00 0.  1.
</event>
<event>
 7    1  0.2820496E-009  0.1005915E+03  0.7561462E-02  0.1279057E+00
          4   -1    0    0  501    0  0.00000000000E+00  0.00000000000E+00  0.15875160155E+03  0.15875160155E+03  0.00000000000E+00 0. -1.
         -4   -1    0    0    0  501 -0.00000000000E+00 -0.00000000000E+00 -0.10056980804E+03  0.10056980804E+03  0.00000000000E+00 0.  1.
         25    2    1    2    0    0  0.40547413621E+02 -0.96776865957E+01 -0.18197332186E+02  0.13310164603E+03  0.12508858824E+03 0.  0.
          5    1    3    3  502    0  0.16352175391E+02 -0.65286895571E+02 -0.25033045189E+02  0.71929813880E+02  0.41800000000E+01 0. -1.
         -5    1    3    3    0  502  0.24195238230E+02  0.55609208976E+02  0.68357130033E+01  0.61171832147E+02  0.41800000000E+01 0. -1.
        -11    1    1    2    0    0 -0.25846241523E+02  0.35102748902E+02 -0.84455293368E+00  0.43599821685E+02  0.00000000000E+00 0.  1.
         11    1    1    2    0    0 -0.14701172098E+02 -0.25425062306E+02  0.77223678631E+02  0.82619941877E+02  0.00000000000E+00 0. -1.
</event>
<event>
 7    1  0.2820496E-009  0.1042523E+03  0.7561462E-02  0.1271600E+00
         -2   -1    0    0    0  501 -0.00000000000E+00  0.00000000000E+00  0.36054585248E+02  0.36054585248E+02  0.00000000000E+00 0.  1.
          2   -1    0    0  501    0  0.00000000000E+00 -0.00000000000E+00 -0.50795558688E+03  0.50795558688E+03  0.00000000000E+00 0. -1.
         25    2    1    2    0    0  0.69645864498E+02 -0.23967096481E+02 -0.19319359835E+03  0.24165268259E+03  0.12508910586E+03 0.  0.
          5    1    3    3  502    0  0.77810503759E+02 -0.13602066384E+02 -0.20730680937E+03  0.22188527738E+03  0.41800000000E+01 0.  1.
         -5    1    3    3    0  502 -0.81646392615E+01 -0.10365030097E+02  0.14113211027E+02  0.19767405208E+02  0.41800000000E+01 0.  1.
        -11    1    1    2    0    0 -0.57667269601E+02 -0.26664460343E+02 -0.12757199731E+03  0.14251709345E+03  0.00000000000E+00 0.  1.
         11    1    1    2    0    0 -0.11978594897E+02  0.50631556824E+02 -0.15113540598E+03  0.15984039609E+03  0.00000000000E+00 0. -1.
</event>
<event>
 7    1  0.2820496E-009  0.1333102E+03  0.7561462E-02  0.1222625E+00
          4   -1    0    0  501    0  0.00000000000E+00  0.00000000000E+00  0.73871115545E+03  0.73871115545E+03  0.00000000000E+00 0. -1.
         -4   -1    0    0    0  501 -0.00000000000E+00 -0.00000000000E+00 -0.31506961020E+02  0.31506961020E+02  0.00000000000E+00 0.  1.
         25    2    1    2    0    0 -0.33781007156E+02  0.85630227890E+02  0.24355927980E+03  0.28886442783E+03  0.12509133670E+03 0.  0.
          5    1    3    3  502    0  0.32939744726E+02  0.11940161545E+01  0.15516785827E+02  0.36670089986E+02  0.41800000000E+01 0. -1.
         -5    1    3    3    0  502 -0.66720751882E+02  0.84436211736E+02  0.22804249397E+03  0.25219433785E+03  0.41800000000E+01 0. -1.
        -11    1    1    2    0    0  0.62892638293E+02 -0.57477973678E+02  0.36303932854E+03  0.37290314490E+03  0.00000000000E+00 0. -1.
         11    1    1    2    0    0 -0.29111631137E+02 -0.28152254212E+02  0.10060558609E+03  0.10845054374E+03  0.00000000000E+00 0.  1.
</event>
<event>
 7    1  0.2820496E-009  0.7896079E+02  0.7561462E-02  0.1332027E+00
         -4   -1    0    0    0  501 -0.00000000000E+00  0.00000000000E+00  0.12994864469E+03  0.12994864469E+03  0.00000000000E+00 0.  1.
          4   -1    0    0  501    0  0.00000000000E+00 -0.00000000000E+00 -0.98447917461E+02  0.98447917461E+02  0.00000000000E+00 0. -1.
         25    2    1    2    0    0  0.16899459616E+02 -0.24144057664E+02  0.31144493871E+02  0.13223389992E+03  0.12508915834E+03 0.  0.
          5    1    3    3  502    0 -0.19973855075E+02 -0.51348668415E+02  0.57056442087E+02  0.79426384899E+02  0.41800000000E+01 0. -1.
         -5    1    3    3    0  502  0.36873314690E+02  0.27204610751E+02 -0.25911948216E+02  0.52807515021E+02  0.41800000000E+01 0. -1.
        -11    1    1    2    0    0  0.16209291707E+02  0.15517059169E+02 -0.38393348508E+02  0.44469871515E+02  0.00000000000E+00 0. -1.
         11    1    1    2    0    0 -0.33108751323E+02  0.86269984952E+01  0.38749581867E+02  0.51692790716E+02  0.00000000000E+00 0.  1.
</event>
<event>
 7    1  0.2820496E-009  0.1217539E+03  0.7561462E-02  0.1240231E+00
         -1   -1    0    0    0  501 -0.00000000000E+00  0.00000000000E+00  0.12865460872E+03  0.12865460872E+03  0.00000000000E+00 0.  1.
          1   -1    0    0  501    0  0.00000000000E+00 -0.00000000000E+00 -0.19396475760E+03  0.19396475760E+03  0.00000000000E+00 0. -1.
         25    2    1    2    0    0  0.26775337130E+02 -0.10352812168E+03 -0.73835013982E+02  0.18037293123E+03  0.12509114427E+03 0.  0.
          5    1    3    3  502    0  0.40165310545E+02 -0.27227831358E+02 -0.88879070177E+02  0.10134874685E+03  0.41800000000E+01 0. -1.
         -5    1    3    3    0  502 -0.13389973415E+02 -0.76300290324E+02  0.15044056195E+02  0.79024184389E+02  0.41800000000E+01 0. -1.
        -11    1    1    2    0    0 -0.40124439480E+02  0.88204578988E+02  0.39956806483E+02  0.10481681536E+03  0.00000000000E+00 0.  1.
         11    1    1    2    0    0  0.13349102350E+02  0.15323542693E+02 -0.31431941381E+02  0.37429619731E+02  0.00000000000E+00 0. -1.
</event>
<event>
 7    1  0.2820496E-009  0.1470876E+03  0.7561462E-02  0.1204098E+00
         -2   -1    0    0    0  501 -0.00000000000E+00  0.00000000000E+00  0.97708522914E+02  0.97708522914E+02  0.00000000000E+00 0.  1.
          2   -1    0    0  501    0  0.00000000000E+00 -0.00000000000E+00 -0.29708962978E+03  0.29708962978E+03  0.00000000000E+00 0. -1.
         25    2    1    2    0    0  0.11395303225E+03 -0.58725668980E+01 -0.18583861980E+03  0.25140359243E+03  0.12509193849E+03 0.  0.
          5    1    3    3  502    0  0.58088566238E+02  0.50776918486E+02 -0.44521059226E+02  0.89174963376E+02  0.41800000000E+01 0.  1.
         -5    1    3    3    0  502  0.55864466015E+02 -0.56649485384E+02 -0.14131756057E+03  0.16222862905E+03  0.41800000000E+01 0.  1.
        -11    1    1    2    0    0 -0.77777857073E+02 -0.32685695077E+02 -0.27458064404E+02  0.88722573308E+02  0.00000000000E+00 0.  1.
         11    1    1    2    0    0 -0.36175175179E+02  0.38558261975E+02  0.13915577334E+02  0.54671986962E+02  0.00000000000E+00 0. -1.
</event>
<event>
 7    1  0.2820496E-009  0.5832658E+02  0.7561462E-02  0.1404992E+00
          1   -1    0    0  501    0  0.00000000000E+00  0.00000000000E+00  0.59194596341E+03  0.59194596341E+03  0.00000000000E+00 0. -1.
         -1   -1    0    0    0  501 -0.00000000000E+00 -0.00000000000E+00 -0.22365713169E+02  0.22365713169E+02  0.00000000000E+00 0.  1.
         25    2    1    2    0    0  0.29352993035E+01 -0.30461712174E+02  0.39220748909E+03  0.41280884071E+03  0.12509153679E+03 0.  0.
          5    1    3    3  502    0  0.15693255239E+02 -0.44669940783E+01  0.38116574072E+03  0.38153771320E+03  0.41800000000E+01 0.  1.
         -5    1    3    3    0  502 -0.12757955935E+02 -0.25994718096E+02  0.11041748372E+02  0.31271127508E+02  0.41800000000E+01 0.  1.
        -11    1    1    2    0    0  0.17187086372E+02  0.43366318449E+02  0.17030057434E+03  0.17657383479E+03  0.00000000000E+00 0. -1.
         11    1    1    2    0    0 -0.20122385675E+02 -0.12904606275E+02  0.70721868127E+01  0.24929001077E+02  0.00000000000E+00 0.  1.
</event>
<event>
 7    1  0.2820496E-009  0.1559462E+03  0.7561462E-02  0.1193351E+00
         -1   -1    0    0    0  501 -0.00000000000E+00  0.00000000000E+00  0.21015371693E+02  0.21015371693E+02  0.00000000000E+00 0.  1.
          1   -1    0    0  501    0  0.00000000000E+00 -0.00000000000E+00 -0.14606293926E+04  0.14606293926E+04  0.00000000000E+00 0. -1.
         25    2    1    2    0    0 -0.18722979302E+01 -0.13566478977E+03 -0.86482879425E+03  0.88429878823E+03  0.12508822011E+03 0.  0.
          5    1    3    3  502    0 -0.30384107626E+02 -0.13342171392E+03 -0.50237631890E+03  0.52069567497E+03  0.41800000000E+01 0.  1.
         -5    1    3    3    0  502  0.28511809696E+02 -0.22430758503E+01 -0.36245247536E+03  0.36360311326E+03  0.41800000000E+01 0.  1.
        -11    1    1    2    0    0 -0.22014145965E+02  0.10464900259E+03 -0.51427805807E+03  0.52527893293E+03  0.00000000000E+00 0. -1.
         11    1    1    2    0    0  0.23886443895E+02  0.31015787181E+02 -0.60507168574E+02  0.72067043129E+02  0.00000000000E+00 0.  1.
</event>
<event>
 7    1  0.2820496E-009  0.7640482E+02  0.7561462E-02  0.1339575E+00
          2   -1    0    0  501    0  0.00000000000E+00  0.00000000000E+00  0.25322430918E+03  0.25322430918E+03  0.00000000000E+00 0. -1.
         -2   -1    0    0    0  501 -0.00000000000E+00 -0.00000000000E+00 -0.53503761824E+02  0.53503761824E+02  0.00000000000E+00 0.  1.
         25    2    1    2    0    0  0.34310234175E+02 -0.19182992157E+02  0.13345018139E+03  0.18709158871E+03  0.12509649194E+03 0.  0.
          5    1    3    3  502    0  0.12812724694E+02  0.38599832340E+02  0.95633707148E+00  0.40896209499E+02  0.41800000000E+01 0.  1.
         -5    1    3    3    0  502  0.21497509481E+02 -0.57782824496E+02  0.13249384432E+03  0.14619537921E+03  0.41800000000E+01 0.  1.
        -11    1    1    2    0    0  0.12635320999E+01  0.14145915262E+02 -0.20947554043E+02  0.25308169676E+02  0.00000000000E+00 0.  1.
         11    1    1    2    0    0 -0.35573766275E+02  0.50370768941E+01  0.87217920002E+02  0.94328312611E+02  0.00000000000E+00 0. -1.
</event>
<event>
 7    1  0.2820496E-009  0.1104973E+03  0.7561462E-02  0.1259652E+00
         -2   -1    0    0    0  501 -0.00000000000E+00  0.00000000000E+00  0.26524779897E+02  0.26524779897E+02  0.00000000000E+00 0. -1.
          2   -1    0    0  501    0  0.00000000000E+00 -0.00000000000E+00 -0.52256628044E+03  0.52256628044E+03  0.00000000000E+00 0.  1.
         25    2    1    2    0    0 -0.60943882039E+01  0.22142842931E+01 -0.35639024024E+03  0.37776254380E+03  0.12509393087E+03 0.  0.
          5    1    3    3  502    0  0.29526402306E+02  0.53973999664E+02 -0.19520980473E+03  0.20471771133E+03  0.41800000000E+01 0.  1.
         -5    1    3    3    0  502 -0.35620790510E+02 -0.51759715371E+02 -0.16118043551E+03  0.17304483247E+03  0.41800000000E+01 0.  1.
        -11    1    1    2    0    0 -0.37439763129E+02 -0.27096073996E+02 -0.46627866540E+02  0.65651283515E+02  0.00000000000E+00 0.  1.
         11    1    1    2    0    0  0.43534151333E+02  0.24881789703E+02 -0.93023393772E+02  0.10567723303E+03  0.00000000000E+00 0. -1.
</event>
<event>
 7    1  0.2820496E-009  0.1249980E+03  0.7561462E-02  0.1235072E+00
          1   -1    0    0  501    0  0.00000000000E+00  0.00000000000E+00  0.69247556389E+02  0.69247556389E+02  0.00000000000E+00 0. -1.
         -1   -1    0    0    0  501 -0.00000000000E+00 -0.00000000000E+00 -0.31279541325E+03  0.31279541325E+03  0.00000000000E+00 0.  1.
         25    2    1    2    0    0  0.74102728756E+02 -0.24098629678E+02 -0.51740135209E+02  0.15619299429E+03  0.12508897439E+03 0.  0.
          5    1    3    3  502    0 -0.24217825465E+02  0.25186398882E+02 -0.15386220876E+01  0.35223536404E+02  0.41800000000E+01 0. -1.
         -5    1    3    3    0  502  0.98320554221E+02 -0.49285028560E+02 -0.50201513121E+02  0.12096945789E+03  0.41800000000E+01 0. -1.
        -11    1    1    2    0    0 -0.70166690473E+02  0.45078440249E+02 -0.93668594234E+02  0.12541625004E+03  0.00000000000E+00 0. -1.
         11    1    1    2    0    0 -0.39360382832E+01 -0.20979810571E+02 -0.98139127414E+02  0.10043372530E+03  0.00000000000E+00 0.  1.
</event>
<event>
 7    1  0.2820496E-009  0.1488732E+03  0.7561462E-02  0.1201864E+00
         -2   -1    0    0    0  501 -0.00000000000E+00  0.00000000000E+00  0.11937220228E+03  0.11937220228E+03  0.00000000000E+00 0.  1.
          2   -1    0    0  501    0  0.00000000000E+00 -0.00000000000E+00 -0.24426165308E+03  0.24426165308E+03  0.00000000000E+00 0. -1.
         25    2    1    2    0    0 -0.90446897352E+02 -0.73240272322E+02 -0.20410521925E+01  0.17087094563E+03  0.12509170810E+03 0.  0.
          5    1    3    3  502    0 -0.10124811314E+03 -0.49696583640E+01 -0.48037075492E+01  0.10156980814E+03  0.41800000000E+01 0. -1.
         -5    1    3    3    0  502  0.10801215788E+02 -0.68270613958E+02  0.27626553567E+01  0.69301137489E+02  0.41800000000E+01 0. -1.
        -11    1    1    2    0    0  0.23884038996E+02  0.51920227191E+02 -0.71557570538E+01  0.57596546505E+02  0.00000000000E+00 0. -1.
         11    1    1    2    0    0  0.66562858356E+02  0.21320045131E+02 -0.11569264156E+03  0.13516636322E+03  0.00000000000E+00 0.  1.
</event>
<event>
 7    1  0.2820496E-009  0.1239014E+03  0.7561462E-02  0.1236796E+00
         -2   -1    0    0    0  501 -0.00000000000E+00  0.00000000000E+00  0.29696573910E+02  0.29696573910E+02  0.00000000000E+00 0. -1.
          2   -1    0    0  501    0  0.00000000000E+00 -0.00000000000E+00 -0.81273780354E+03  0.81273780354E+03  0.00000000000E+00 0.  1.
         25    2    1    2    0    0  0.10447070578E+03  0.18008928577E+02 -0.49049160354E+03  0.51717195744E+03  0.12508545296E+03 0.  0.
          5    1    3    3  502    0  0.66506241782E+02  0.54863110189E+01 -0.78038926783E+02  0.10276539446E+03  0.41800000000E+01 0.  1.
         -5    1    3    3    0  502  0.37964463996E+02  0.12522617558E+02 -0.41245267676E+03  0.41440656298E+03  0.41800000000E+01 0.  1.
        -11    1    1    2    0    0 -0.40767347559E+02 -0.53935776451E+02 -0.11775175050E+03  0.13578114506E+03  0.00000000000E+00 0.  1.
         11    1    1    2    0    0 -0.63703358219E+02  0.35926847874E+02 -0.17479787559E+03  0.18948127496E+03  0.00000000000E+00 0. -1.
</event>
<event>
 7    1  0.2820496E-009  0.1836897E+03  0.7561462E-02  0.1164279E+00
         -2   -1    0    0    0  501 -0.00000000000E+00  0.00000000000E+00  0.51707815834E+02  0.51707815834E+02  0.00000000000E+00 0.  1.
          2   -1    0    0  501    0  0.00000000000E+00 -0.00000000000E+00 -0.10112674006E+04  0.10112674006E+04  0.00000000000E+00 0. -1.
         25    2    1    2    0    0 -0.15982616602E+03 -0.55905644527E+01 -0.77934324426E+03  0.80535651892E+03  0.12509025719E+03 0.  0.
          5    1    3    3  502    0 -0.14524400703E+03 -0.38264783791E+02 -0.72323871985E+03  0.73868243078E+03  0.41800000000E+01 0. -1.
         -5    1    3    3    0  502 -0.14582158992E+02  0.32674219338E+02 -0.56104524406E+02  0.66674088138E+02  0.41800000000E+01 0. -1.
        -11    1    1    2    0    0  0.79290142351E+02  0.45284696704E+02 -0.11397559298E+03  0.14604131684E+03  0.00000000000E+00 0. -1.
         11    1    1    2    0    0  0.80536023668E+02 -0.39694132251E+02 -0.66240747522E+02  0.11157738066E+03  0.00000000000E+00 0.  1.
</event>
<event>
 7    1  0.2820496E-009  0.1148767E+03  0.7561462E-02  0.1251796E+00
         -1   -1    0    0    0  501 -0.00000000000E+00  0.00000000000E+00  0.27599221571E+03  0.27599221571E+03  0.00000000000E+00 0.  1.
          1   -1    0    0  501    0  0.00000000000E+00 -0.00000000000E+00 -0.62898852129E+02  0.62898852129E+02  0.00000000000E+00 0. -1.
         25    2    1    2    0    0  0.68513405784E+02 -0.25715329388E+02  0.11675868382E+03  0.18610543217E+03  0.12508907505E+03 0.  0.
          5    1    3    3  502    0 -0.34262589459E+02 -0.19614618497E+02  0.47711732659E+02  0.62068833794E+02  0.41800000000E+01 0. -1.
         -5    1    3    3    0  502  0.10277599524E+03 -0.61007108910E+01  0.69046951160E+02  0.12403659837E+03  0.41800000000E+01 0. -1.
        -11    1    1    2    0    0 -0.41264019101E+02 -0.96384058177E+01  0.99388447952E+02  0.10804481350E+03  0.00000000000E+00 0.  1.
         11    1    1    2    0    0 -0.27249386683E+02  0.35353735206E+02 -0.30537681947E+01  0.44740822162E+02  0.00000000000E+00 0. -1.
</event>
<event>
 7    1  0.3234156E-009  0.6902912E+02  0.7561462E-02  0.1363426E+00
         -1   -1    0    0    0  501 -0.00000000000E+00  0.00000000000E+00  0.12376957856E+03  0.12376957856E+03  0.00000000000E+00 0.  1.
          1   -1    0    0  501    0  0.00000000000E+00 -0.00000000000E+00 -0.14582455416E+03  0.14582455416E+03  0.00000000000E+00 0. -1.
         25    2    1    2    0    0 -0.65026999548E+02 -0.27827707708E+01  0.32343666515E+02  0.14467047692E+03  0.12508868712E+03 0.  0.
          5    1    3    3  502    0 -0.54931337392E+02  0.33923357326E+01 -0.41948173234E+02  0.69325907185E+02  0.41800000000E+01 0. -1.
         -5    1    3    3    0  502 -0.10095662156E+02 -0.61751065035E+01  0.74291839749E+02  0.75344569732E+02  0.41800000000E+01 0. -1.
        -11    1    1    2    0    0  0.60053648227E+01  0.91542053793E+01  0.24120484459E+02  0.26488896793E+02  0.00000000000E+00 0.  1.
         11    1    1    2    0    0  0.59021634725E+02 -0.63714346084E+01 -0.78519126574E+02  0.98434759016E+02  0.00000000000E+00 0. -1.
</event>
<event>
 7    1  0.2820496E-009  0.2439570E+03  0.7561462E-02  0.1117184E+00
          2   -1    0    0  501    0  0.00000000000E+00  0.00000000000E+00  0.73996642587E+03  0.73996642587E+03  0.00000000000E+00 0. -1.
         -2   -1    0    0    0  501 -0.00000000000E+00 -0.00000000000E+00 -0.10792117785E+03  0.10792117785E+03  0.00000000000E+00 0.  1.
         25    2    1    2    0    0  0.21908143414E+03 -0.30056897091E+02  0.11692993957E+03  0.27967800292E+03  0.12508829962E+03 0.  0.
          5    1    3    3  502    0  0.18675419397E+03 -0.71476038381E+02  0.80472521202E+02  0.21559047312E+03  0.41800000000E+01 0. -1.
         -5    1    3    3    0  502  0.32327240161E+02  0.41419141290E+02  0.36457418371E+02  0.64087529800E+02  0.41800000000E+01 0. -1.
        -11    1    1    2    0    0 -0.93577476889E+02  0.53104194463E+02  0.29185875380E+03  0.31106001321E+03  0.00000000000E+00 0.  1.
         11    1    1    2    0    0 -0.12550395725E+03 -0.23047297372E+02  0.22325655465E+03  0.25714958759E+03  0.00000000000E+00 0. -1.
</event>
<event>
 7    1  0.2820496E-009  0.1519469E+03  0.7561462E-02  0.1198101E+00
          4   -1    0    0  501    0  0.00000000000E+00  0.00000000000E+00  0.52013331248E+02  0.52013331248E+02  0.00000000000E+00 0. -1.
         -4   -1    0    0    0  501 -0.00000000000E+00 -0.00000000000E+00 -0.68083067059E+03  0.68083067059E+03  0.00000000000E+00 0.  1.
         25    2    1    2    0    0 -0.10938168516E+03 -0.87183233638E+02 -0.20990999344E+03  0.28155829148E+03  0.12509035484E+03 0.  0.
          5    1    3    3  502    0 -0.62308772105E+02 -0.35732592785E+02 -0.19802921561E+03  0.21069466985E+03  0.41800000000E+01 0.  1.
         -5    1    3    3    0  502 -0.47072913056E+02 -0.51450640853E+02 -0.11880777832E+02  0.70863621624E+02  0.41800000000E+01 0.  1.
        -11    1    1    2    0    0  0.55949805488E+02 -0.43268304410E+01 -0.93374967955E+02  0.10894029024E+03  0.00000000000E+00 0.  1.
         11    1    1    2    0    0  0.53431879673E+02  0.91510064079E+02 -0.32553237795E+03  0.34234542013E+03  0.00000000000E+00 0. -1.
</event>
<event>
 7    1  0.2820496E-009  0.7212632E+02  0.7561462E-02  0.1353008E+00
         -2   -1    0    0    0  501 -0.00000000000E+00  0.00000000000E+00  0.12003424384E+03  0.12003424384E+03  0.00000000000E+00 0.  1.
          2   -1    0    0  501    0  0.00000000000E+00 -0.00000000000E+00 -0.12335801160E+03  0.12335801160E+03  0.00000000000E+00 0. -1.
         25    2    1    2    0    0  0.22402823046E+02 -0.48338990546E+02 -0.25816794987E+02  0.13839220488E+03  0.12508937197E+03 0.  0.
          5    1    3    3  502    0 -0.11413838576E+02 -0.32295917189E+00 -0.65998993270E+02  0.67109757311E+02  0.41800000000E+01 0.  1.
         -5    1    3    3    0  502  0.33816661622E+02 -0.48016031374E+02  0.40182198283E+02  0.71282447566E+02  0.41800000000E+01 0.  1.
        -11    1    1    2    0    0 -0.34613041053E+02  0.15023278691E+02 -0.25333552573E+02  0.45448326697E+02  0.00000000000E+00 0. -1.
         11    1    1    2    0    0  0.12210218007E+02  0.33315711855E+02  0.47826579803E+02  0.59551723869E+02  0.00000000000E+00 0.  1.
</event>
<event>
 7    1  0.2820496E-009  0.1078926E+03  0.7561462E-02  0.1264523E+00
         -1   -1    0    0    0  501 -0.00000000000E+00  0.00000000000E+00  0.18922085985E+03  0.18922085985E+03  0.00000000000E+00 0.  1.
          1   -1    0    0  501    0  0.00000000000E+00 -0.00000000000E+00 -0.67649874373E+02  0.67649874373E+02  0.00000000000E+00 0. -1.
         25    2    1    2    0    0  0.22508982749E+02  0.15628156402E+02  0.60029776840E+02  0.14142941110E+03  0.12509120928E+03 0.  0.
          5    1    3    3  502    0  0.73708075994E+02  0.27003074270E+01  0.25298975271E+02  0.78087660207E+02  0.41800000000E+01 0.  1.
         -5    1    3    3    0  502 -0.51199093245E+02  0.12927848975E+02  0.34730801569E+02  0.63341750890E+02  0.41800000000E+01 0.  1.
        -11    1    1    2    0    0  0.32056120427E+02  0.43075156726E+00  0.57809442371E+00  0.32064226123E+02  0.00000000000E+00 0.  1.
         11    1    1    2    0    0 -0.54565103176E+02 -0.16058907969E+02  0.60963114211E+02  0.83377096999E+02  0.00000000000E+00 0. -1.
</event>
<event>
 7    1  0.2820496E-009  0.1529302E+03  0.7561462E-02  0.1196918E+00
         -4   -1    0    0    0  501 -0.00000000000E+00  0.00000000000E+00  0.60747077195E+02  0.60747077195E+02  0.00000000000E+00 0. -1.
          4   -1    0    0  501    0  0.00000000000E+00 -0.00000000000E+00 -0.40073032357E+03  0.40073032357E+03  0.00000000000E+00 0.  1.
         25    2    1    2    0    0 -0.98857674164E+02 -0.47263542907E+02 -0.21834407530E+03  0.27446037655E+03  0.12509069050E+03 0.  0.
          5    1    3    3  502    0 -0.79668717411E+01 -0.69570318377E+02 -0.11725619743E+03  0.13663816626E+03  0.41800000000E+01 0. -1.
         -5    1    3    3    0  502 -0.90890802422E+02  0.22306775470E+02 -0.10108787787E+03  0.13782221029E+03  0.41800000000E+01 0. -1.
        -11    1    1    2    0    0  0.93338787786E+02 -0.11066438449E+01 -0.78291608485E+02  0.12183156375E+03  0.00000000000E+00 0.  1.
         11    1    1    2    0    0  0.55188863774E+01  0.48370186752E+02 -0.43347562594E+02  0.65185460465E+02  0.00000000000E+00 0. -1.
</event>
<event>
 7    1  0.2820496E-009  0.1216921E+03  0.7561462E-02  0.1240331E+00
          1   -1    0    0  501    0  0.00000000000E+00  0.00000000000E+00  0.24573898549E+03  0.24573898549E+03  0.00000000000E+00 0. -1.
         -1   -1    0    0    0  501 -0.00000000000E+00 -0.00000000000E+00 -0.71620586049E+02  0.71620586049E+02  0.00000000000E+00 0.  1.
         25    2    1    2    0    0 -0.58788446126E+02 -0.37681713478E+02  0.67336934702E+02  0.15829919439E+03  0.12509348201E+03 0.  0.
          5    1    3    3  502    0  0.32367825920E+02  0.15891880502E+02  0.26201997485E+02  0.44768795973E+02  0.41800000000E+01 0. -1.
         -5    1    3    3    0  502 -0.91156272046E+02 -0.53573593979E+02  0.41134937217E+02  0.11353039842E+03  0.41800000000E+01 0. -1.
        -11    1    1    2    0    0  0.56598504259E+02  0.57878604700E+02  0.11189826790E+03  0.13811062930E+03  0.00000000000E+00 0.  1.
         11    1    1    2    0    0  0.21899418665E+01 -0.20196891223E+02 -0.51168031577E+01  0.20949747851E+02  0.00000000000E+00 0. -1.
</event>
<event>
 7    1  0.2820496E-009  0.1185380E+03  0.7561462E-02  0.1245529E+00
         -1   -1    0    0    0  501 -0.00000000000E+00  0.00000000000E+00  0.21338891897E+03  0.21338891897E+03  0.00000000000E+00 0.  1.
          1   -1    0    0  501    0  0.00000000000E+00 -0.00000000000E+00 -0.93700232665E+02  0.93700232665E+02  0.00000000000E+00 0. -1.
         25    2    1    2    0    0  0.88025257154E+02 -0.19609235498E+02  0.53371216757E+02  0.16317763957E+03  0.12508192221E+03 0.  0.
          5    1    3    3  502    0  0.98945233981E+02 -0.10309143619E+01 -0.66562822549E+01  0.99262281887E+02  0.41800000000E+01 0.  1.
         -5    1    3    3    0  502 -0.10919976827E+02 -0.18578321136E+02  0.60027499012E+02  0.63915357684E+02  0.41800000000E+01 0.  1.
        -11    1    1    2    0    0  0.12883936873E+02  0.61707296640E+01  0.34362924746E+02  0.37214034061E+02  0.00000000000E+00 0.  1.
         11    1    1    2    0    0 -0.10090919403E+03  0.13438505834E+02  0.31954544797E+02  0.10669747800E+03  0.00000000000E+00 0. -1.
</event>
<event>
 7    1  0.2820496E-009  0.8647793E+02  0.7561462E-02  0.1311612E+00
         -1   -1    0    0    0  501 -0.00000000000E+00  0.00000000000E+00  0.19286089964E+02  0.19286089964E+02  0.00000000000E+00 0.  1.
          1   -1    0    0  501    0  0.00000000000E+00 -0.00000000000E+00 -0.15099242794E+04  0.15099242794E+04  0.00000000000E+00 0. -1.
         25    2    1    2    0    0 -0.29287396102E+02 -0.50347466139E+02 -0.13175086295E+04  0.13247156317E+04  0.12509954853E+03 0.  0.
          5    1    3    3  502    0 -0.29991439508E+02 -0.74180271603E+02 -0.12569079182E+04  0.12594590849E+04  0.41800000000E+01 0. -1.
         -5    1    3    3    0  502  0.70404340601E+00  0.23832805464E+02 -0.60600711281E+02  0.65256546807E+02  0.41800000000E+01 0. -1.
        -11    1    1    2    0    0 -0.41299368712E+00  0.35352915459E+02 -0.82676573121E+01  0.36309135940E+02  0.00000000000E+00 0.  1.
         11    1    1    2    0    0  0.29700389789E+02  0.14994550679E+02 -0.16486190257E+03  0.16818560171E+03  0.00000000000E+00 0. -1.
</event>
<event>
 7    1  0.2820496E-009  0.1149896E+03  0.7561462E-02  0.1251599E+00
          2   -1    0    0  501    0  0.00000000000E+00  0.00000000000E+00  0.11175062360E+04  0.11175062360E+04  0.00000000000E+00 0. -1.
         -2   -1    0    0    0  501 -0.00000000000E+00 -0.00000000000E+00 -0.13611906317E+02  0.13611906317E+02  0.00000000000E+00 0.  1.
         25    2    1    2    0    0  0.26120997720E+02  0.51718758989E+02  0.55404061519E+03  0.57093403025E+03  0.12509007581E+03 0.  0.
          5    1    3    3  502    0  0.54211373948E+02  0.70707481357E+02  0.25913617122E+03  0.27405738198E+03  0.41800000000E+01 0.  1.
         -5    1    3    3    0  502 -0.28090376228E+02 -0.18988722368E+02  0.29490444397E+03  0.29687664827E+03  0.41800000000E+01 0.  1.
        -11    1    1    2    0    0 -0.53387257104E+01 -0.75127833138E+02  0.36368717254E+03  0.37140416364E+03  0.00000000000E+00 0.  1.
         11    1    1    2    0    0 -0.20782272009E+02  0.23409074148E+02  0.18616654199E+03  0.18877994846E+03  0.00000000000E+00 0. -1.
</event>
<event>
 7    1  0.2820496E-009  0.8243843E+02  0.7561462E-02  0.1322271E+00
          1   -1    0    0  501    0  0.00000000000E+00  0.00000000000E+00  0.11168249924E+03  0.11168249924E+03  0.00000000000E+00 0. -1.
         -1   -1    0    0    0  501 -0.00000000000E+00 -0.00000000000E+00 -0.16191081287E+03  0.16191081287E+03  0.00000000000E+00 0.  1.
         25    2    1    2    0    0  0.56217039169E+02  0.46757826703E+02 -0.57566265890E+02  0.15589810964E+03  0.12507476072E+03 0.  0.
          5    1    3    3  502    0  0.31626966667E+02 -0.40739310416E+01 -0.86519261300E+02  0.92303395987E+02  0.41800000000E+01 0. -1.
         -5    1    3    3    0  502  0.24590072501E+02  0.50831757745E+02  0.28952995410E+02  0.63594713651E+02  0.41800000000E+01 0. -1.
        -11    1    1    2    0    0 -0.38467876196E+02 -0.43463533958E+02 -0.37674990339E+02  0.69197262808E+02  0.00000000000E+00 0.  1.
         11    1    1    2    0    0 -0.17749162973E+02 -0.32942927457E+01  0.45012942592E+02  0.48497939664E+02  0.00000000000E+00 0. -1.
</event>
<event>
 7    1  0.2820496E-009  0.1269465E+03  0.7561462E-02  0.1232058E+00
          1   -1    0    0  501    0  0.00000000000E+00  0.00000000000E+00  0.20451872192E+03  0.20451872192E+03  0.00000000000E+00 0. -1.
         -1   -1    0    0    0  501 -0.00000000000E+00 -0.00000000000E+00 -0.10064185163E+03  0.10064185163E+03  0.00000000000E+00 0.  1.
         25    2    1    2    0    0  0.53000504120E+02  0.64183795859E+02  0.10668583156E+02  0.15063072540E+03  0.12508870324E+03 0.  0.
          5    1    3    3  502    0 -0.22603023164E+02  0.70416769846E+02  0.13458124700E+01  0.74085772878E+02  0.41800000000E+01 0.  1.
         -5    1    3    3    0  502  0.75603527284E+02 -0.62329739879E+01  0.93227706860E+01  0.76544952517E+02  0.41800000000E+01 0.  1.
        -11    1    1    2    0    0 -0.38595612773E+02 -0.54900009621E+00 -0.25200131021E+01  0.38681690661E+02  0.00000000000E+00 0.  1.
         11    1    1    2    0    0 -0.14404891348E+02 -0.63634795762E+02  0.95728300241E+02  0.11584815749E+03  0.00000000000E+00 0. -1.
</event>
<event>
 7    1  0.2820496E-009  0.1396109E+03  0.7561462E-02  0.1213853E+00
          2   -1    0    0  501    0  0.00000000000E+00  0.00000000000E+00  0.13812490727E+03  0.13812490727E+03  0.00000000000E+00 0. -1.
         -2   -1    0    0    0  501 -0.00000000000E+00 -0.00000000000E+00 -0.16340602751E+03  0.16340602751E+03  0.00000000000E+00 0.  1.
         25    2    1    2    0    0  0.33142944214E+02  0.10129750940E+03 -0.47733831310E+01  0.16440999982E+03  0.12509285629E+03 0.  0.
          5    1    3    3  502    0  0.55919749271E+02  0.65505927642E+01  0.25970020012E+02  0.62143728272E+02  0.41800000000E+01 0.  1.
         -5    1    3    3    0  502 -0.22776805057E+02  0.94746916632E+02 -0.30743403143E+02  0.10226627155E+03  0.41800000000E+01 0.  1.
        -11    1    1    2    0    0  0.20201238698E+02 -0.25225481600E+02 -0.29523832428E+02  0.43772955670E+02  0.00000000000E+00 0.  1.
         11    1    1    2    0    0 -0.53344182912E+02 -0.76072027797E+02  0.90160953182E+01  0.93347979295E+02  0.00000000000E+00 0. -1.
</event>
<event>
 6    1  0.2820496E-009  0.1467549E+03  0.7561462E-02  0.1204518E+00
         -3   -1    0    0    0  501 -0.00000000000E+00  0.00000000000E+00  0.50080102724E+02  0.50080102724E+02  0.00000000000E+00 0.  1.
          3   -1    0    0  501    0  0.00000000000E+00 -0.00000000000E+00 -0.51248733725E+03  0.51248733725E+03  0.00000000000E+00 0. -1.
          5    1    1    2  502    0 -0.12555926933E+03 -0.27661449696E+02 -0.11865937111E+03  0.17500801315E+03  0.41800000000E+01 0. -1.
         -5    1    1    2    0  502  0.16650875227E+02  0.32121211561E+02 -0.47872001721E+02  0.60151681828E+02  0.41800000000E+01 0. -1.
        -11    1    1    2    0    0  0.10094486810E+03 -0.27042969672E+02 -0.17216044951E+03  0.20139614936E+03  0.00000000000E+00 0.  1.
         11    1    1    2    0    0  0.79635260024E+01  0.22583207807E+02 -0.12371541218E+03  0.12601159563E+03  0.00000000000E+00 0. -1.
</event>
<event>
 7    1  0.2820496E-009  0.9998651E+02  0.7561462E-02  0.1280324E+00
         -2   -1    0    0    0  501 -0.00000000000E+00  0.00000000000E+00  0.57690448566E+02  0.57690448566E+02  0.00000000000E+00 0.  1.
          2   -1    0    0  501    0  0.00000000000E+00 -0.00000000000E+00 -0.27319751344E+03  0.27319751344E+03  0.00000000000E+00 0. -1.
         25    2    1    2    0    0  0.17301665280E+02 -0.44641353950E+02 -0.16225770607E+03  0.21039921635E+03  0.12509224180E+03 0.  0.
          5    1    3    3  502    0 -0.48918392811E+00  0.22360610372E+02  0.98603073941E+01  0.24797868034E+02  0.41800000000E+01 0. -1.
         -5    1    3    3    0  502  0.17790849208E+02 -0.67001964322E+02 -0.17211801347E+03  0.18560134832E+03  0.41800000000E+01 0. -1.
        -11    1    1    2    0    0 -0.25374117048E+02 -0.26198425228E+02 -0.13731310311E+02  0.38971171181E+02  0.00000000000E+00 0.  1.
         11    1    1    2    0    0  0.80724517677E+01  0.70839779178E+02 -0.39518048497E+02  0.81517574476E+02  0.00000000000E+00 0. -1.
</event>
<event>
 7    1  0.2820496E-009  0.1259284E+03  0.7561462E-02  0.1233625E+00
          2   -1    0    0  501    0  0.00000000000E+00  0.00000000000E+00  0.13339444596E+04  0.13339444596E+04  0.00000000000E+00 0. -1.
         -2   -1    0    0    0  501 -0.00000000000E+00 -0.00000000000E+00 -0.13991548811E+02  0.13991548811E+02  0.00000000000E+00 0.  1.
         25    2    1    2    0    0 -0.47156799030E+02  0.69582006970E+02  0.74205269550E+03  0.75720220428E+03  0.12509019100E+03 0.  0.
          5    1    3    3  502    0  0.12629749245E+02 -0.19870845478E+02  0.34441432337E+03  0.34524347873E+03  0.41800000000E+01 0. -1.
         -5    1    3    3    0  502 -0.59786548275E+02  0.89452852448E+02  0.39763837214E+03  0.41195872555E+03  0.41800000000E+01 0. -1.
        -11    1    1    2    0    0 -0.93097291597E+01 -0.62697504910E+02  0.24840919491E+03  0.25636843857E+03  0.00000000000E+00 0.  1.
         11    1    1    2    0    0  0.56466528190E+02 -0.68845020599E+01  0.32949102040E+03  0.33436536557E+03  0.00000000000E+00 0. -1.
</event>
<event>
 7    1  0.2820496E-009  0.1393902E+03  0.7561462E-02  0.1214152E+00
         -1   -1    0    0    0  501 -0.00000000000E+00  0.00000000000E+00  0.34043189224E+02  0.34043189224E+02  0.00000000000E+00 0.  1.
          1   -1    0    0  501    0  0.00000000000E+00 -0.00000000000E+00 -0.67140945258E+03  0.67140945258E+03  0.00000000000E+00 0. -1.
         25    2    1    2    0    0  0.68460222610E+02  0.36495181959E+02 -0.40379575449E+03  0.42978621592E+03  0.12508588913E+03 0.  0.
          5    1    3    3  502    0  0.56011859001E+02  0.73855968152E+02 -0.17994106322E+03  0.20245565196E+03  0.41800000000E+01 0. -1.
         -5    1    3    3    0  502  0.12448363610E+02 -0.37360786193E+02 -0.22385469128E+03  0.22733056395E+03  0.41800000000E+01 0. -1.
        -11    1    1    2    0    0 -0.20047208307E+02 -0.79284260770E+02 -0.13282230977E+03  0.15597964784E+03  0.00000000000E+00 0.  1.
         11    1    1    2    0    0 -0.48413014304E+02  0.42789078811E+02 -0.10074819910E+03  0.11968677805E+03  0.00000000000E+00 0. -1.
</event>
<event>
 7    1  0.2820496E-009  0.1535525E+03  0.7561462E-02  0.1196174E+00
          1   -1    0    0  501    0  0.00000000000E+00  0.00000000000E+00  0.15741426325E+03  0.15741426325E+03  0.00000000000E+00 0. -1.
         -1   -1    0    0    0  501 -0.00000000000E+00 -0.00000000000E+00 -0.22032149358E+03  0.22032149358E+03  0.00000000000E+00 0.  1.
         25    2    1    2    0    0  0.12771901772E+03 -0.33303708654E+02 -0.10848610636E+03  0.21174887841E+03  0.12508823980E+03 0.  0.
          5    1    3    3  502    0  0.16914093831E+02  0.34337276160E+02 -0.63557589481E+02  0.74311336180E+02  0.41800000000E+01 0.  1.
         -5    1    3    3    0  502  0.11080492389E+03 -0.67640984814E+02 -0.44928516881E+02  0.13743754223E+03  0.41800000000E+01 0.  1.
        -11    1    1    2    0    0 -0.55447673422E+02 -0.71241079991E+01 -0.21013692873E+02  0.59722463871E+02  0.00000000000E+00 0.  1.
         11    1    1    2    0    0 -0.72271344300E+02  0.40427816653E+02  0.66592568900E+02  0.10626441455E+03  0.00000000000E+00 0. -1.
</event>
<event>
 7    1  0.2820496E-009  0.2924489E+03  0.7561462E-02  0.1089077E+00
         -1   -1    0    0    0  501 -0.00000000000E+00  0.00000000000E+00  0.31190537640E+03  0.31190537640E+03  0.00000000000E+00 0.  1.
          1   -1    0    0  501    0  0.00000000000E+00 -0.00000000000E+00 -0.33329273807E+03  0.33329273807E+03  0.00000000000E+00 0. -1.
         25    2    1    2    0    0  0.95518478135E+02  0.25972219711E+03 -0.13411908672E+03  0.33198607280E+03  0.12508966295E+03 0.  0.
          5    1    3    3  502    0  0.15501785558E+02  0.20226205578E+03 -0.71230929930E+02  0.21503851363E+03  0.41800000000E+01 0. -1.
         -5    1    3    3    0  502  0.80016692576E+02  0.57460141327E+02 -0.62888156795E+02  0.11694755918E+03  0.41800000000E+01 0. -1.
        -11    1    1    2    0    0 -0.87034717764E+02 -0.15053868694E+03  0.10565789725E+03  0.20347120094E+03  0.00000000000E+00 0. -1.
         11    1    1    2    0    0 -0.84837603710E+01 -0.10918351017E+03  0.70738278048E+01  0.10974084072E+03  0.00000000000E+00 0.  1.
</event>
<event>
 7    1  0.2820496E-009  0.1131400E+03  0.7561462E-02  0.1254863E+00
         -1   -1    0    0    0  501 -0.00000000000E+00  0.00000000000E+00  0.15055650564E+03  0.15055650564E+03  0.00000000000E+00 0.  1.
          1   -1    0    0  501    0  0.00000000000E+00 -0.00000000000E+00 -0.10018094352E+03  0.10018094352E+03  0.00000000000E+00 0. -1.
         25    2    1    2    0    0  0.20362662840E+02 -0.45956843520E+02  0.60023597180E+02  0.14754999543E+03  0.12506598030E+03 0.  0.
          5    1    3    3  502    0  0.14580498855E+02  0.41754911672E+02  0.74631472325E+01  0.45047026119E+02  0.41800000000E+01 0.  1.
         -5    1    3    3    0  502  0.57821639858E+01 -0.87711755192E+02  0.52560449947E+02  0.10250296931E+03  0.41800000000E+01 0.  1.
        -11    1    1    2    0    0 -0.32920248111E+02  0.63941893550E+02  0.11365268187E+02  0.72811247808E+02  0.00000000000E+00 0.  1.
         11    1    1    2    0    0  0.12557585271E+02 -0.17985050030E+02 -0.21013303246E+02  0.30376205914E+02  0.00000000000E+00 0. -1.
</event>
<event>
 7    1  0.2820496E-009  0.9970515E+02  0.7561462E-02  0.1280917E+00
          2   -1    0    0  501    0  0.00000000000E+00  0.00000000000E+00  0.70468319062E+02  0.70468319062E+02  0.00000000000E+00 0. -1.
         -2   -1    0    0    0  501 -0.00000000000E+00 -0.00000000000E+00 -0.23394144194E+03  0.23394144194E+03  0.00000000000E+00 0.  1.
         25    2    1    2    0    0 -0.35729561296E+02  0.51474580393E+02 -0.12806963085E+03  0.18967987544E+03  0.12510152207E+03 0.  0.
          5    1    3    3  502    0 -0.47140005509E+02  0.59283137773E+02 -0.17081196852E+02  0.77755451446E+02  0.41800000000E+01 0. -1.
         -5    1    3    3    0  502  0.11410444214E+02 -0.78085573798E+01 -0.11098843400E+03  0.11192442399E+03  0.41800000000E+01 0. -1.
        -11    1    1    2    0    0  0.23559874200E+01 -0.70603438028E+02 -0.23998202533E+02  0.74607706458E+02  0.00000000000E+00 0. -1.
         11    1    1    2    0    0  0.33373573876E+02  0.19128857635E+02 -0.11405289498E+02  0.40122179105E+02  0.00000000000E+00 0.  1.
</event>
<event>
 6    1  0.2820496E-009  0.1128847E+03  0.7561462E-02  0.1255319E+00
          1   -1    0    0  501    0  0.00000000000E+00  0.00000000000E+00  0.57328339057E+03  0.57328339057E+03  0.00000000000E+00 0. -1.
         -1   -1    0    0    0  501 -0.00000000000E+00 -0.00000000000E+00 -0.39426619520E+02  0.39426619520E+02  0.00000000000E+00 0.  1.
          5    1    1    2  502    0  0.98042626648E+01  0.12263295859E+02 -0.94619479714E+01  0.18801937430E+02  0.41800000000E+01 0.  1.
         -5    1    1    2    0  502 -0.38757129373E+02 -0.10039880990E+03  0.20704013138E+03  0.23337764355E+03  0.41800000000E+01 0.  1.
        -11    1    1    2    0    0 -0.10976017657E+02  0.16716086426E+02  0.69211541352E+01  0.21161353538E+02  0.00000000000E+00 0.  1.
         11    1    1    2    0    0  0.39928884366E+02  0.71419427620E+02  0.32935743351E+03  0.33936907557E+03  0.00000000000E+00 0. -1.
</event>
<event>
 7    1  0.3281378E-009  0.1669690E+03  0.7561462E-02  0.1181046E+00
         -1   -1    0    0    0  501 -0.00000000000E+00  0.00000000000E+00  0.20568131929E+02  0.20568131929E+02  0.00000000000E+00 0. -1.
          1   -1    0    0  501    0  0.00000000000E+00 -0.00000000000E+00 -0.16376659298E+04  0.16376659298E+04  0.00000000000E+00 0.  1.
         25    2    1    2    0    0  0.82795819174E+02 -0.11955287112E+03 -0.73513645953E+03  0.75974789008E+03  0.12507280153E+03 0.  0.
          5    1    3    3  502    0  0.92972251767E+02 -0.84480317503E+02 -0.33294198222E+03  0.35587722541E+03  0.41800000000E+01 0.  1.
         -5    1    3    3    0  502 -0.10176432593E+02 -0.35072553620E+02 -0.40219447731E+03  0.40387066467E+03  0.41800000000E+01 0.  1.
        -11    1    1    2    0    0 -0.82554999687E+02  0.39644481839E+02 -0.48039836379E+03  0.48904969159E+03  0.00000000000E+00 0. -1.
         11    1    1    2    0    0 -0.24081948711E+00  0.79908389283E+02 -0.40156297453E+03  0.40943648004E+03  0.00000000000E+00 0.  1.
</event>
<event>
 7    1  0.2820496E-009  0.1699923E+03  0.7561462E-02  0.1177856E+00
         -1   -1    0    0    0  501 -0.00000000000E+00  0.00000000000E+00  0.50288829343E+02  0.50288829343E+02  0.00000000000E+00 0.  1.
          1   -1    0    0  501    0  0.00000000000E+00 -0.00000000000E+00 -0.75997441943E+03  0.75997441943E+03  0.00000000000E+00 0. -1.
         25    2    1    2    0    0  0.11084621649E+03 -0.11802516886E+03 -0.34596904551E+03  0.40194387125E+03  0.12508985167E+03 0.  0.
          5    1    3    3  502    0  0.13735130716E+02 -0.68726005214E+01 -0.17631421190E+03  0.17703124067E+03  0.41800000000E+01 0.  1.
         -5    1    3    3    0  502  0.97111085775E+02 -0.11115256834E+03 -0.16965483360E+03  0.22491263058E+03  0.41800000000E+01 0.  1.
        -11    1    1    2    0    0 -0.24415618293E+02 -0.60911345286E+01 -0.11087116420E+03  0.11369098200E+03  0.00000000000E+00 0. -1.
         11    1    1    2    0    0 -0.86430598198E+02  0.12411630339E+03 -0.25284538039E+03  0.29462839553E+03  0.00000000000E+00 0.  1.
</event>
<event>
 7    1  0.2820496E-009  0.1188703E+03  0.7561462E-02  0.1244972E+00
          2   -1    0    0  501    0  0.00000000000E+00  0.00000000000E+00  0.15507505548E+03  0.15507505548E+03  0.00000000000E+00 0. -1.
         -2   -1    0    0    0  501 -0.00000000000E+00 -0.00000000000E+00 -0.21314568316E+03  0.21314568316E+03  0.00000000000E+00 0.  1.
         25    2    1    2    0    0 -0.50423574385E+02 -0.85029949228E+02 -0.13863096902E+03  0.21127717058E+03  0.12508744188E+03 0.  0.
          5    1    3    3  502    0  0.17124726384E+02  0.11458429271E+02  0.85733959112E+01  0.22705227868E+02  0.41800000000E+01 0. -1.
         -5    1    3    3    0  502 -0.67548300769E+02 -0.96488378499E+02 -0.14720436493E+03  0.18857194271E+03  0.41800000000E+01 0. -1.
        -11    1    1    2    0    0  0.24404402172E+02  0.40448270359E+02 -0.13948781757E+02  0.49256531881E+02  0.00000000000E+00 0.  1.
         11    1    1    2    0    0  0.26019172213E+02  0.44581678869E+02  0.94509123098E+02  0.10768703618E+03  0.00000000000E+00 0. -1.
</event>
<event>
 7    1  0.2820496E-009  0.1177548E+03  0.7561462E-02  0.1246848E+00
         -2   -1    0    0    0  501 -0.00000000000E+00  0.00000000000E+00  0.20092706739E+02  0.20092706739E+02  0.00000000000E+00 0.  1.
          2   -1    0    0  501    0  0.00000000000E+00 -0.00000000000E+00 -0.90793297921E+03  0.90793297921E+03  0.00000000000E+00 0. -1.
         25    2    1    2    0    0  0.45495657301E+02  0.43690911795E+02 -0.65191910686E+03  0.66680248028E+03  0.12509306621E+03 0.  0.
          5    1    3    3  502    0 -0.22551665285E+02  0.64257285656E+02 -0.35133162408E+03  0.35789517857E+03  0.41800000000E+01 0. -1.
         -5    1    3    3    0  502  0.68047322585E+02 -0.20566373861E+02 -0.30058748278E+03  0.30890730171E+03  0.41800000000E+01 0. -1.
        -11    1    1    2    0    0  0.19203776759E+02 -0.24830650242E+01 -0.83782366639E+01  0.21098471587E+02  0.00000000000E+00 0.  1.
         11    1    1    2    0    0 -0.64699434059E+02 -0.41207846771E+02 -0.22754292894E+03  0.24012473407E+03  0.00000000000E+00 0. -1.
</event>
<event>
 7    1  0.2820496E-009  0.1191509E+03  0.7561462E-02  0.1244504E+00
         -1   -1    0    0    0  501 -0.00000000000E+00  0.00000000000E+00  0.12990101469E+02  0.12990101469E+02  0.00000000000E+00 0.  1.
          1   -1    0    0  501    0  0.00000000000E+00 -0.00000000000E+00 -0.11377323279E+04  0.11377323279E+04  0.00000000000E+00 0. -1.
         25    2    1    2    0    0  0.39054452508E+01  0.11341780692E+02 -0.67364780699E+03  0.68526881616E+03  0.12509234209E+03 0.  0.
          5    1    3    3  502    0  0.77330448202E+01 -0.56117861749E+02 -0.26148799454E+03  0.26758635630E+03  0.41800000000E+01 0.  1.
         -5    1    3    3    0  502 -0.38275995694E+01  0.67459642441E+02 -0.41215981245E+03  0.41768245986E+03  0.41800000000E+01 0.  1.
        -11    1    1    2    0    0 -0.58499744480E+02 -0.87097600872E+01 -0.20492747308E+03  0.21329169990E+03  0.00000000000E+00 0.  1.
         11    1    1    2    0    0  0.54594299230E+02 -0.26320206047E+01 -0.24616694638E+03  0.25216191333E+03  0.00000000000E+00 0. -1.
</event>
<event>
 7    1  0.2820496E-009  0.1798731E+03  0.7561462E-02  0.1167926E+00
         -2   -1    0    0    0  501 -0.00000000000E+00  0.00000000000E+00  0.75467169864E+02  0.75467169864E+02  0.00000000000E+00 0. -1.
          2   -1    0    0  501    0  0.00000000000E+00 -0.00000000000E+00 -0.52823757120E+03  0.52823757120E+03  0.00000000000E+00 0.  1.
         25    2    1    2    0    0  0.16894828975E+03 -0.14122012697E+02 -0.21232290956E+03  0.29911545158E+03  0.12508428997E+03 0.  0.
          5    1    3    3  502    0  0.84011155977E+02 -0.45292940943E+02 -0.38284889080E+02  0.10292001729E+03  0.41800000000E+01 0. -1.
         -5    1    3    3    0  502  0.84937133770E+02  0.31170928246E+02 -0.17403802048E+03  0.19619543429E+03  0.41800000000E+01 0. -1.
        -11    1    1    2    0    0 -0.65658029244E+02  0.23933406318E+02 -0.44448082272E+02  0.82821595975E+02  0.00000000000E+00 0. -1.
         11    1    1    2    0    0 -0.10329026050E+03 -0.98113936210E+01 -0.19599940950E+03  0.22176769351E+03  0.00000000000E+00 0.  1.
</event>
<event>
 7    1  0.3474685E-009  0.1431747E+03  0.7561462E-02  0.1209120E+00
         -2   -1    0    0    0  501 -0.00000000000E+00  0.00000000000E+00  0.15811636561E+02  0.15811636561E+02  0.00000000000E+00 0.  1.
          2   -1    0    0  501    0  0.00000000000E+00 -0.00000000000E+00 -0.16998650699E+04  0.16998650699E+04  0.00000000000E+00 0. -1.
         25    2    1    2    0    0  0.52679922529E+02 -0.10430965685E+03 -0.10870853712E+04  0.11004794359E+04  0.12507879807E+03 0.  0.
          5    1    3    3  502    0  0.76039319302E+02 -0.86386159360E+02 -0.51930402445E+03  0.53191981427E+03  0.41800000000E+01 0.  1.
         -5    1    3    3    0  502 -0.23359396773E+02 -0.17923497487E+02 -0.56778134675E+03  0.56855962159E+03  0.41800000000E+01 0.  1.
        -11    1    1    2    0    0 -0.57654526186E+02  0.26451042228E+02 -0.17650218717E+03  0.18755458965E+03  0.00000000000E+00 0.  1.
         11    1    1    2    0    0  0.49746036571E+01  0.77858614620E+02 -0.42046587494E+03  0.42764268091E+03  0.00000000000E+00 0. -1.
</event>
<event>
 7    1  0.2820496E-009  0.2111587E+03  0.7561462E-02  0.1140652E+00
          2   -1    0    0  501    0  0.00000000000E+00  0.00000000000E+00  0.54727089882E+03  0.54727089882E+03  0.00000000000E+00 0. -1.
         -2   -1    0    0    0  501 -0.00000000000E+00 -0.00000000000E+00 -0.17448859356E+03  0.17448859356E+03  0.00000000000E+00 0.  1.
         25    2    1    2    0    0  0.27526145943E+02 -0.18607766055E+03  0.44591265532E+03  0.49986840822E+03  0.12509094651E+03 0.  0.
          5    1    3    3  502    0  0.38947251171E+02 -0.19593831879E+03  0.43979444403E+03  0.48305831795E+03  0.41800000000E+01 0.  1.
         -5    1    3    3    0  502 -0.11421105228E+02  0.98606582391E+01  0.61182112896E+01  0.16810090271E+02  0.41800000000E+01 0.  1.
        -11    1    1    2    0    0 -0.44067848281E+02  0.39021566962E+02 -0.52903373288E+01  0.59098609200E+02  0.00000000000E+00 0.  1.
         11    1    1    2    0    0  0.16541702338E+02  0.14705609358E+03 -0.67840012728E+02  0.16279247496E+03  0.00000000000E+00 0. -1.
</event>
<event>
 7    1  0.2820496E-009  0.2232016E+03  0.7561462E-02  0.1131518E+00
         -1   -1    0    0    0  501 -0.00000000000E+00  0.00000000000E+00  0.59281022069E+02  0.59281022069E+02  0.00000000000E+00 0.  1.
          1   -1    0    0  501    0  0.00000000000E+00 -0.00000000000E+00 -0.93555266505E+03  0.93555266505E+03  0.00000000000E+00 0. -1.
         25    2    1    2    0    0 -0.64340374183E+02  0.19278199260E+03 -0.35215922401E+03  0.42540323285E+03  0.12508881261E+03 0.  0.
          5    1    3    3  502    0  0.11902172613E+02  0.14124169412E+03 -0.17084702386E+03  0.22202940308E+03  0.41800000000E+01 0.  1.
         -5    1    3    3    0  502 -0.76242546797E+02  0.51540298482E+02 -0.18131220016E+03  0.20337382977E+03  0.41800000000E+01 0.  1.
        -11    1    1    2    0    0  0.99827517659E+00 -0.10073415789E+03 -0.33454256513E+03  0.34938101695E+03  0.00000000000E+00 0. -1.
         11    1    1    2    0    0  0.63342099007E+02 -0.92047834713E+02 -0.18956985384E+03  0.22004943732E+03  0.00000000000E+00 0.  1.
</event>
<event>
 7    1  0.2820496E-009  0.1945615E+03  0.7561462E-02  0.1154410E+00
          2   -1    0    0  501    0  0.00000000000E+00  0.00000000000E+00  0.24956714233E+04  0.24956714233E+04  0.00000000000E+00 0. -1.
         -2   -1    0    0    0  501 -0.00000000000E+00 -0.00000000000E+00 -0.17736593041E+02  0.17736593041E+02  0.00000000000E+00 0.  1.
         25    2    1    2    0    0 -0.36307633779E+02  0.16733398104E+03  0.16276997295E+04  0.16414545377E+04  0.12509070509E+03 0.  0.
          5    1    3    3  502    0  0.27298385469E+02  0.10465669448E+03  0.11775402246E+04  0.11825044095E+04  0.41800000000E+01 0. -1.
         -5    1    3    3    0  502 -0.63606019248E+02  0.62677286562E+02  0.45015950496E+03  0.45895012827E+03  0.41800000000E+01 0. -1.
        -11    1    1    2    0    0  0.58425519341E+02 -0.67684138352E+02  0.45856584628E+03  0.46720158312E+03  0.00000000000E+00 0. -1.
         11    1    1    2    0    0 -0.22117885562E+02 -0.99649842686E+02  0.39166925442E+03  0.40475189545E+03  0.00000000000E+00 0.  1.
</event>
<event>
 7    1  0.2820496E-009  0.1727122E+03  0.7561462E-02  0.1175049E+00
         -2   -1    0    0    0  501 -0.00000000000E+00  0.00000000000E+00  0.10029275747E+03  0.10029275747E+03  0.00000000000E+00 0.  1.
          2   -1    0    0  501    0  0.00000000000E+00 -0.00000000000E+00 -0.40611209546E+03  0.40611209546E+03  0.00000000000E+00 0. -1.
         25    2    1    2    0    0 -0.15858734068E+03 -0.40379990083E+02 -0.21315518332E+03  0.29641666845E+03  0.12508885217E+03 0.  0.
          5    1    3    3  502    0 -0.65817938021E+01  0.11397649445E+02  0.13034545821E+02  0.18989423564E+02  0.41800000000E+01 0. -1.
         -5    1    3    3    0  502 -0.15200554688E+03 -0.51777639528E+02 -0.22618972914E+03  0.27742724489E+03  0.41800000000E+01 0. -1.
        -11    1    1    2    0    0  0.76493493235E+02  0.45011721034E+02 -0.36790477853E+01  0.88830427953E+02  0.00000000000E+00 0.  1.
         11    1    1    2    0    0  0.82093847444E+02 -0.46317309508E+01 -0.88985106882E+02  0.12115775653E+03  0.00000000000E+00 0. -1.
</event>
<event>
 7    1  0.2820496E-009  0.1024391E+03  0.7561462E-02  0.1275249E+00
          4   -1    0    0  501    0  0.00000000000E+00  0.00000000000E+00  0.62500418436E+03  0.62500418436E+03  0.00000000000E+00 0. -1.
         -4   -1    0    0    0  501 -0.00000000000E+00 -0.00000000000E+00 -0.23447081843E+02  0.23447081843E+02  0.00000000000E+00 0.  1.
         25    2    1    2    0    0 -0.85154112247E+01  0.41000199480E+02  0.43339842347E+03  0.45302903279E+03  0.12509029738E+03 0.  0.
          5    1    3    3  502    0 -0.61750673841E+01  0.77623561170E+02  0.16973713911E+03  0.18679324801E+03  0.41800000000E+01 0.  1.
         -5    1    3    3    0  502 -0.23403438406E+01 -0.36623361690E+02  0.26366128436E+03  0.26623578479E+03  0.41800000000E+01 0.  1.
        -11    1    1    2    0    0  0.25336388435E+02  0.16377892226E+02  0.10143951981E+03  0.10583073331E+03  0.00000000000E+00 0.  1.
         11    1    1    2    0    0 -0.16820977211E+02 -0.57378091706E+02  0.66719159228E+02  0.89591500100E+02  0.00000000000E+00 0. -1.
</event>
<event>
 7    1  0.2882237E-009  0.1138928E+03  0.7561462E-02  0.1253526E+00
          2   -1    0    0  501    0  0.00000000000E+00  0.00000000000E+00  0.67906449497E+03  0.67906449497E+03  0.00000000000E+00 0. -1.
         -2   -1    0    0    0  501 -0.00000000000E+00 -0.00000000000E+00 -0.20977909911E+02  0.20977909911E+02  0.00000000000E+00 0.  1.
         25    2    1    2    0    0  0.40618931917E+02  0.14621016833E+02  0.29729033351E+03  0.32541955175E+03  0.12511063303E+03 0.  0.
          5    1    3    3  502    0 -0.12816188668E+02  0.57283054870E+02  0.18237975248E+03  0.19163885196E+03  0.41800000000E+01 0.  1.
         -5    1    3    3    0  502  0.53435120585E+02 -0.42662038037E+02  0.11491058104E+03  0.13378069979E+03  0.41800000000E+01 0.  1.
        -11    1    1    2    0    0 -0.67903222763E+02 -0.23319884097E+02  0.27245156121E+03  0.28175258270E+03  0.00000000000E+00 0.  1.
         11    1    1    2    0    0  0.27284290846E+02  0.86988672636E+01  0.88344690337E+02  0.92870270428E+02  0.00000000000E+00 0. -1.
</event>
<event>
 7    1  0.2820496E-009  0.1157259E+03  0.7561462E-02  0.1250319E+00
         -1   -1    0    0    0  501 -0.00000000000E+00  0.00000000000E+00  0.21156183239E+03  0.21156183239E+03  0.00000000000E+00 0.  1.
          1   -1    0    0  501    0  0.00000000000E+00 -0.00000000000E+00 -0.74697831140E+02  0.74697831140E+02  0.00000000000E+00 0. -1.
         25    2    1    2    0    0  0.14634255766E+02  0.20567033701E+02  0.12324643010E+03  0.17741122225E+03  0.12509154620E+03 0.  0.
          5    1    3    3  502    0 -0.11182141702E+02  0.68158870444E+02  0.90767794126E+02  0.11413560691E+03  0.41800000000E+01 0.  1.
         -5    1    3    3    0  502  0.25816397468E+02 -0.47591836743E+02  0.32478635978E+02  0.63275615349E+02  0.41800000000E+01 0.  1.
        -11    1    1    2    0    0 -0.16979018573E+02  0.42019808470E+02  0.42202012436E+01  0.45516606575E+02  0.00000000000E+00 0. -1.
         11    1    1    2    0    0  0.23447628068E+01 -0.62586842171E+02  0.93973699042E+01  0.63331834702E+02  0.00000000000E+00 0.  1.
</event>
<event>
 7    1  0.2820496E-009  0.1424374E+03  0.7561462E-02  0.1210086E+00
         -2   -1    0    0    0  501 -0.00000000000E+00  0.00000000000E+00  0.40225836773E+02  0.40225836773E+02  0.00000000000E+00 0.  1.
          2   -1    0    0  501    0  0.00000000000E+00 -0.00000000000E+00 -0.77073642351E+03  0.77073642351E+03  0.00000000000E+00 0. -1.
         25    2    1    2    0    0 -0.18025837538E+02  0.92028852580E+02 -0.15479099741E+03  0.21998683094E+03  0.12505883568E+03 0.  0.
          5    1    3    3  502    0 -0.68378802817E+02  0.32355700520E+02 -0.57172608485E+02  0.94914338178E+02  0.41800000000E+01 0.  1.
         -5    1    3    3    0  502  0.50352965278E+02  0.59673152061E+02 -0.97618388927E+02  0.12507249276E+03  0.41800000000E+01 0.  1.
        -11    1    1    2    0    0 -0.37164474080E+02 -0.45388034594E+02 -0.31561327547E+03  0.32101870891E+03  0.00000000000E+00 0.  1.
         11    1    1    2    0    0  0.55190311618E+02 -0.46640817986E+02 -0.26010631386E+03  0.26995672044E+03  0.00000000000E+00 0. -1.
</event>
<event>
 7    1  0.2820496E-009  0.1040668E+03  0.7561462E-02  0.1271969E+00
          1   -1    0    0  501    0  0.00000000000E+00  0.00000000000E+00  0.45951890164E+03  0.45951890164E+03  0.00000000000E+00 0. -1.
         -1   -1    0    0    0  501 -0.00000000000E+00 -0.00000000000E+00 -0.50476992166E+02  0.50476992166E+02  0.00000000000E+00 0.  1.
         25    2    1    2    0    0 -0.75182698423E+02 -0.35265187327E+02  0.29622205625E+03  0.33210053270E+03  0.12508871105E+03 0.  0.
          5    1    3    3  502    0 -0.53934158841E+02  0.14500197507E+01  0.28202873102E+03  0.28717359483E+03  0.41800000000E+01 0.  1.
         -5    1    3    3    0  502 -0.21248539583E+02 -0.36715207078E+02  0.14193325227E+02  0.44926937868E+02  0.41800000000E+01 0.  1.
        -11    1    1    2    0    0  0.67241812877E+02  0.57064361370E+02  0.12398225524E+03  0.15214927654E+03  0.00000000000E+00 0. -1.
         11    1    1    2    0    0  0.79408855460E+01 -0.21799174043E+02 -0.11162402007E+02  0.25746084572E+02  0.00000000000E+00 0.  1.
</event>
<event>
 7    1  0.2820496E-009  0.1051507E+03  0.7561462E-02  0.1269823E+00
         -1   -1    0    0    0  501 -0.00000000000E+00  0.00000000000E+00  0.27798640315E+02  0.27798640315E+02  0.00000000000E+00 0.  1.
          1   -1    0    0  501    0  0.00000000000E+00 -0.00000000000E+00 -0.76231104423E+03  0.76231104423E+03  0.00000000000E+00 0. -1.
         25    2    1    2    0    0  0.41485780318E+02  0.53200580165E+02 -0.58782224611E+03  0.60476128162E+03  0.12509933267E+03 0.  0.
          5    1    3    3  502    0  0.15897508682E+02  0.91076024238E+02 -0.45248198527E+03  0.46184953434E+03  0.41800000000E+01 0. -1.
         -5    1    3    3    0  502  0.25588271636E+02 -0.37875444073E+02 -0.13534026083E+03  0.14291174728E+03  0.41800000000E+01 0. -1.
        -11    1    1    2    0    0 -0.98390090837E-01 -0.16612447522E+02  0.98732268386E+01  0.19325208964E+02  0.00000000000E+00 0.  1.
         11    1    1    2    0    0 -0.41387390227E+02 -0.36588132642E+02 -0.15656338465E+03  0.16602319396E+03  0.00000000000E+00 0. -1.
</event>
<event>
 7    1  0.2820496E-009  0.1010013E+03  0.7561462E-02  0.1278204E+00
         -2   -1    0    0    0  501 -0.00000000000E+00  0.00000000000E+00  0.40334251523E+02  0.40334251523E+02  0.00000000000E+00 0.  1.
          2   -1    0    0  501    0  0.00000000000E+00 -0.00000000000E+00 -0.30633321659E+03  0.30633321659E+03  0.00000000000E+00 0. -1.
         25    2    1    2    0    0 -0.76896164151E+01  0.79075887700E+01 -0.18302611566E+03  0.22197493544E+03  0.12511056226E+03 0.  0.
          5    1    3    3  502    0 -0.62074449162E+02 -0.18017210279E+02 -0.10388201632E+03  0.12242059802E+03  0.41800000000E+01 0. -1.
         -5    1    3    3    0  502  0.54384832747E+02  0.25924799049E+02 -0.79144099337E+02  0.99554337417E+02  0.41800000000E+01 0. -1.
        -11    1    1    2    0    0  0.80732789168E+01  0.33991798393E+02 -0.74012287454E+02  0.81843991134E+02  0.00000000000E+00 0. -1.
         11    1    1    2    0    0 -0.38366250168E+00 -0.41899387163E+02 -0.89605619523E+01  0.42848541539E+02  0.00000000000E+00 0.  1.
</event>
<event>
 7    1  0.2820496E-009  0.1065305E+03  0.7561462E-02  0.1267133E+00
         -1   -1    0    0    0  501 -0.00000000000E+00  0.00000000000E+00  0.54280373405E+03  0.54280373405E+03  0.00000000000E+00 0.  1.
          1   -1    0    0  501    0  0.00000000000E+00 -0.00000000000E+00 -0.36865991354E+02  0.36865991354E+02  0.00000000000E+00 0. -1.
         25    2    1    2    0    0 -0.87050591875E+01 -0.52951461184E+02  0.13366136032E+03  0.19076749182E+03  0.12508893394E+03 0.  0.
          5    1    3    3  502    0  0.60974840661E+01  0.22737097185E+02 -0.11353100121E+02  0.26467341814E+02  0.41800000000E+01 0.  1.
         -5    1    3    3    0  502 -0.14802543254E+02 -0.75688558369E+02  0.14501446044E+03  0.16430015001E+03  0.41800000000E+01 0.  1.
        -11    1    1    2    0    0 -0.40913785276E+01 -0.28840695022E+02  0.11512854450E+03  0.11875650225E+03  0.00000000000E+00 0. -1.
         11    1    1    2    0    0  0.12796437715E+02  0.81792156206E+02  0.25714783788E+03  0.27014573134E+03  0.00000000000E+00 0.  1.
</event>
<event>
 7    1  0.2820496E-009  0.1204864E+03  0.7561462E-02  0.1242297E+00
          2   -1    0    0  501    0  0.00000000000E+00  0.00000000000E+00  0.11635390630E+04  0.11635390630E+04  0.00000000000E+00 0. -1.
         -2   -1    0    0    0  501 -0.00000000000E+00 -0.00000000000E+00 -0.19833203806E+02  0.19833203806E+02  0.00000000000E+00 0.  1.
         25    2    1    2    0    0  0.13598729575E+02  0.10058444979E+03  0.49257888371E+03  0.51825214583E+03  0.12509665461E+03 0.  0.
          5    1    3    3  502    0 -0.80808018094E+01  0.28684528776E+02  0.38944269568E+03  0.39060361899E+03  0.41800000000E+01 0. -1.
         -5    1    3    3    0  502  0.21679531385E+02  0.71899921018E+02  0.10313618803E+03  0.12764852684E+03  0.41800000000E+01 0. -1.
        -11    1    1    2    0    0  0.29785975862E+02 -0.84162320533E+02  0.42001271071E+03  0.42939629448E+03  0.00000000000E+00 0. -1.
         11    1    1    2    0    0 -0.43384705437E+02 -0.16422129261E+02  0.23111426475E+03  0.23572382647E+03  0.00000000000E+00 0.  1.
</event>
<event>
 7    1  0.2820496E-009  0.1061955E+03  0.7561462E-02  0.1267782E+00
         -1   -1    0    0    0  501 -0.00000000000E+00  0.00000000000E+00  0.84938069117E+02  0.84938069117E+02  0.00000000000E+00 0.  1.
          1   -1    0    0  501    0  0.00000000000E+00 -0.00000000000E+00 -0.14305446374E+03  0.14305446374E+03  0.00000000000E+00 0. -1.
         25    2    1    2    0    0  0.12794790325E+02 -0.17418763208E+02 -0.29751825928E+02  0.13037623161E+03  0.12508265528E+03 0.  0.
          5    1    3    3  502    0 -0.97702051720E+01 -0.67783127482E+02 -0.24316365534E+01  0.68654166201E+02  0.41800000000E+01 0.  1.
         -5    1    3    3    0  502  0.22564995497E+02  0.50364364274E+02 -0.27320189375E+02  0.61722065406E+02  0.41800000000E+01 0.  1.
        -11    1    1    2    0    0  0.27576387863E+02 -0.19461959724E+02 -0.26484630098E+02  0.42902921524E+02  0.00000000000E+00 0.  1.
         11    1    1    2    0    0 -0.40371178188E+02  0.36880722932E+02 -0.18799385993E+01  0.54713379730E+02  0.00000000000E+00 0. -1.
</event>
<event>
 7    1  0.2820496E-009  0.1055205E+03  0.7561462E-02  0.1269098E+00
          1   -1    0    0  501    0  0.00000000000E+00  0.00000000000E+00  0.36393952695E+03  0.36393952695E+03  0.00000000000E+00 0. -1.
         -1   -1    0    0    0  501 -0.00000000000E+00 -0.00000000000E+00 -0.60594869915E+02  0.60594869915E+02  0.00000000000E+00 0.  1.
         25    2    1    2    0    0 -0.31135070003E+02  0.84033861482E+02  0.96071648646E+02  0.18140412677E+03  0.12508642242E+03 0.  0.
          5    1    3    3  502    0 -0.20704759987E+02  0.46705393369E+02 -0.22948732302E+02  0.56162243279E+02  0.41800000000E+01 0. -1.
         -5    1    3    3    0  502 -0.10430310016E+02  0.37328468113E+02  0.11902038095E+03  0.12524188349E+03  0.41800000000E+01 0. -1.
        -11    1    1    2    0    0 -0.25752509474E+02 -0.10457953074E+02  0.85497383673E+02  0.89901964059E+02  0.00000000000E+00 0. -1.
         11    1    1    2    0    0  0.56887579477E+02 -0.73575908408E+02  0.12177562472E+03  0.15322830604E+03  0.00000000000E+00 0.  1.
</event>
<event>
 7    1  0.2820496E-009  0.9739447E+02  0.7561462E-02  0.1285872E+00
         -1   -1    0    0    0  501 -0.00000000000E+00  0.00000000000E+00  0.57963769429E+03  0.57963769429E+03  0.00000000000E+00 0.  1.
          1   -1    0    0  501    0  0.00000000000E+00 -0.00000000000E+00 -0.28893461362E+02  0.28893461362E+02  0.00000000000E+00 0. -1.
         25    2    1    2    0    0 -0.72426286787E+02  0.15922422718E+02  0.33455316286E+03  0.36479070362E+03  0.12508936048E+03 0.  0.
          5    1    3    3  502    0 -0.68127815967E+02 -0.38665749299E+01  0.33709503793E+03  0.34395768156E+03  0.41800000000E+01 0.  1.
         -5    1    3    3    0  502 -0.42984708202E+01  0.19788997647E+02 -0.25418750669E+01  0.20833022060E+02  0.41800000000E+01 0.  1.
        -11    1    1    2    0    0  0.37595197958E+02  0.30007728528E+02  0.14110947942E+03  0.14908302339E+03  0.00000000000E+00 0.  1.
         11    1    1    2    0    0  0.34831088829E+02 -0.45930151246E+02  0.75081590647E+02  0.94657428639E+02  0.00000000000E+00 0. -1.
</event>
<event>
 7    1  0.2820496E-009  0.1342612E+03  0.7561462E-02  0.1221266E+00
          2   -1    0    0  501    0  0.00000000000E+00  0.00000000000E+00  0.41377692115E+03  0.41377692115E+03  0.00000000000E+00 0. -1.
         -2   -1    0    0    0  501 -0.00000000000E+00 -0.00000000000E+00 -0.51285377688E+02  0.51285377688E+02  0.00000000000E+00 0.  1.
         25    2    1    2    0    0 -0.76565425940E+02  0.32864677337E+02  0.27555044131E+03  0.31386963496E+03  0.12507497982E+03 0.  0.
          5    1    3    3  502    0 -0.43836921429E+02 -0.45660037825E+02  0.14120031584E+03  0.15479507850E+03  0.41800000000E+01 0.  1.
         -5    1    3    3    0  502 -0.32728504511E+02  0.78524715162E+02  0.13435012547E+03  0.15907455646E+03  0.41800000000E+01 0.  1.
        -11    1    1    2    0    0  0.87897950040E+02 -0.29767694182E+01  0.46000857380E+02  0.99252151902E+02  0.00000000000E+00 0.  1.
         11    1    1    2    0    0 -0.11332524100E+02 -0.29887907919E+02  0.40940244766E+02  0.51940511970E+02  0.00000000000E+00 0. -1.
</event>
<event>
 7    1  0.2820496E-009  0.1078527E+03  0.7561462E-02  0.1264599E+00
         -1   -1    0    0    0  501 -0.00000000000E+00  0.00000000000E+00  0.13055594476E+02  0.13055594476E+02  0.00000000000E+00 0.  1.
          1   -1    0    0  501    0  0.00000000000E+00 -0.00000000000E+00 -0.12047826485E+04  0.12047826485E+04  0.00000000000E+00 0. -1.
         25    2    1    2    0    0 -0.25817836757E+02 -0.56587853584E+02 -0.73620975599E+03  0.74934643999E+03  0.12508611610E+03 0.  0.
          5    1    3    3  502    0 -0.31150750421E+02 -0.77997390094E+02 -0.27452026773E+03  0.28711114905E+03  0.41800000000E+01 0.  1.
         -5    1    3    3    0  502  0.53329136637E+01  0.21409536510E+02 -0.46168948825E+03  0.46223529094E+03  0.41800000000E+01 0.  1.
        -11    1    1    2    0    0  0.59336926312E+02  0.30721464254E+02 -0.29636736076E+03  0.30380633916E+03  0.00000000000E+00 0.  1.
         11    1    1    2    0    0 -0.33519089555E+02  0.25866389330E+02 -0.15914993728E+03  0.16468546383E+03  0.00000000000E+00 0. -1.
</event>
<event>
 7    1  0.2820496E-009  0.9649790E+02  0.7561462E-02  0.1287838E+00
         -4   -1    0    0    0  501 -0.00000000000E+00  0.00000000000E+00  0.27459850254E+03  0.27459850254E+03  0.00000000000E+00 0.  1.
          4   -1    0    0  501    0  0.00000000000E+00 -0.00000000000E+00 -0.48156770967E+02  0.48156770967E+02  0.00000000000E+00 0. -1.
         25    2    1    2    0    0 -0.11876836995E+02  0.28962876617E+01  0.17922731144E+03  0.21890421111E+03  0.12508867549E+03 0.  0.
          5    1    3    3  502    0  0.45928048475E+02  0.12095331370E+02  0.24881423330E+02  0.53779552848E+02  0.41800000000E+01 0. -1.
         -5    1    3    3    0  502 -0.57804885470E+02 -0.91990437085E+01  0.15434588811E+03  0.16512465827E+03  0.41800000000E+01 0. -1.
        -11    1    1    2    0    0  0.32157101016E+02 -0.35714310204E+02  0.43967103409E+02  0.65135990675E+02  0.00000000000E+00 0.  1.
         11    1    1    2    0    0 -0.20280264021E+02  0.32818022542E+02  0.32473167219E+01  0.38715071720E+02  0.00000000000E+00 0. -1.
</event>
<event>
 7    1  0.2820496E-009  0.1828753E+03  0.7561462E-02  0.1165049E+00
          2   -1    0    0  501    0  0.00000000000E+00  0.00000000000E+00  0.19775719000E+03  0.19775719000E+03  0.00000000000E+00 0. -1.
         -2   -1    0    0    0  501 -0.00000000000E+00 -0.00000000000E+00 -0.18576075955E+03  0.18576075955E+03  0.00000000000E+00 0.  1.
         25    2    1    2    0    0  0.15621509948E+03  0.28032699875E+02  0.21347578702E+02  0.20320217417E+03  0.12508563028E+03 0.  0.
          5    1    3    3  502    0  0.55337519570E+01  0.47387549562E+02  0.18076453905E+02  0.51190163606E+02  0.41800000000E+01 0. -1.
         -5    1    3    3    0  502  0.15068134753E+03 -0.19354849688E+02  0.32711247967E+01  0.15201201057E+03  0.41800000000E+01 0. -1.
        -11    1    1    2    0    0 -0.61576398333E+02  0.12661282170E+02  0.30483238654E+02  0.69865504626E+02  0.00000000000E+00 0. -1.
         11    1    1    2    0    0 -0.94638701151E+02 -0.40693982044E+02 -0.39834386904E+02  0.11045027076E+03  0.00000000000E+00 0.  1.
</event>
<event>
 7    1  0.2820496E-009  0.9875039E+02  0.7561462E-02  0.1282946E+00
         -1   -1    0    0    0  501 -0.00000000000E+00  0.00000000000E+00  0.62033004251E+02  0.62033004251E+02  0.00000000000E+00 0.  1.
          1   -1    0    0  501    0  0.00000000000E+00 -0.00000000000E+00 -0.35822373362E+03  0.35822373362E+03  0.00000000000E+00 0. -1.
         25    2    1    2    0    0 -0.76698716201E+02 -0.49955683226E+02 -0.22131990879E+03  0.27020128176E+03  0.12509183541E+03 0.  0.
          5    1    3    3  502    0 -0.32525341921E+02 -0.49404583682E+02 -0.17816529283E+02  0.61916168095E+02  0.41800000000E+01 0.  1.
         -5    1    3    3    0  502 -0.44173374280E+02 -0.55109954396E+00 -0.20350337950E+03  0.20828511367E+03  0.41800000000E+01 0.  1.
        -11    1    1    2    0    0  0.25575672824E+02  0.56804286377E+01 -0.78070796227E+02  0.82349447681E+02  0.00000000000E+00 0. -1.
         11    1    1    2    0    0  0.51123043377E+02  0.44275254588E+02  0.31999756452E+01  0.67706008427E+02  0.00000000000E+00 0.  1.
</event>
<event>
 7    1  0.2820496E-009  0.9535726E+02  0.7561462E-02  0.1290373E+00
          1   -1    0    0  501    0  0.00000000000E+00  0.00000000000E+00  0.91495734952E+03  0.91495734952E+03  0.00000000000E+00 0. -1.
         -1   -1    0    0    0  501 -0.00000000000E+00 -0.00000000000E+00 -0.14533940743E+02  0.14533940743E+02  0.00000000000E+00 0.  1.
         25    2    1    2    0    0  0.34427040872E+01  0.35215227544E+02  0.65419096597E+03  0.66698186536E+03  0.12508806616E+03 0.  0.
          5    1    3    3  502    0 -0.92301983987E+01 -0.30827893986E+02  0.53849703584E+02  0.62871444919E+02  0.41800000000E+01 0.  1.
         -5    1    3    3    0  502  0.12672902486E+02  0.66043121530E+02  0.60034126239E+03  0.60411042044E+03  0.41800000000E+01 0.  1.
        -11    1    1    2    0    0 -0.36746986356E+02  0.66978374298E+01  0.94830458233E+02  0.10192162597E+03  0.00000000000E+00 0.  1.
         11    1    1    2    0    0  0.33304282269E+02 -0.41913064974E+02  0.15140198458E+03  0.16058779894E+03  0.00000000000E+00 0. -1.
</event>
<event>
 7    1  0.2820496E-009  0.1034818E+03  0.7561462E-02  0.1273140E+00
          1   -1    0    0  501    0  0.00000000000E+00  0.00000000000E+00  0.24235463542E+03  0.24235463542E+03  0.00000000000E+00 0. -1.
         -1   -1    0    0    0  501 -0.00000000000E+00 -0.00000000000E+00 -0.73317481520E+02  0.73317481520E+02  0.00000000000E+00 0.  1.
         25    2    1    2    0    0  0.55204120344E+02 -0.12738980933E+01  0.15747686014E+03  0.20855774021E+03  0.12509297263E+03 0.  0.
          5    1    3    3  502    0  0.53322673974E+02 -0.50802426352E+02  0.47182519038E+02  0.87566298230E+02  0.41800000000E+01 0. -1.
         -5    1    3    3    0  502  0.18814463694E+01  0.49528528259E+02  0.11029434111E+03  0.12099144198E+03  0.41800000000E+01 0. -1.
        -11    1    1    2    0    0 -0.65875717150E+02 -0.11434793360E+02  0.37245258124E+02  0.76534788573E+02  0.00000000000E+00 0. -1.
         11    1    1    2    0    0  0.10671596806E+02  0.12708691454E+02 -0.25684964372E+02  0.30579588154E+02  0.00000000000E+00 0.  1.
</event>
<event>
 7    1  0.2820496E-009  0.1219726E+03  0.7561462E-02  0.1239878E+00
          3   -1    0    0  501    0  0.00000000000E+00  0.00000000000E+00  0.30178350821E+02  0.30178350821E+02  0.00000000000E+00 0. -1.
         -3   -1    0    0    0  501 -0.00000000000E+00 -0.00000000000E+00 -0.51466978280E+03  0.51466978280E+03  0.00000000000E+00 0.  1.
         25    2    1    2    0    0 -0.50792269171E+02  0.36269252482E+02 -0.29179032645E+03  0.32354986351E+03  0.12509039245E+03 0.  0.
          5    1    3    3  502    0  0.40831399213E+02  0.19320964807E+02 -0.11584541544E+03  0.12441115513E+03  0.41800000000E+01 0. -1.
         -5    1    3    3    0  502 -0.91623668384E+02  0.16948287675E+02 -0.17594491101E+03  0.19913870838E+03  0.41800000000E+01 0. -1.
        -11    1    1    2    0    0  0.26418369350E+02  0.26837265009E+02 -0.43888640780E+02  0.57830630481E+02  0.00000000000E+00 0. -1.
         11    1    1    2    0    0  0.24373899821E+02 -0.63106517491E+02 -0.14881246474E+03  0.16346763963E+03  0.00000000000E+00 0.  1.
</event>
<event>
 7    1  0.2820496E-009  0.1007723E+03  0.7561462E-02  0.1278680E+00
         -2   -1    0    0    0  501 -0.00000000000E+00  0.00000000000E+00  0.35986688447E+02  0.35986688447E+02  0.00000000000E+00 0.  1.
          2   -1    0    0  501    0  0.00000000000E+00 -0.00000000000E+00 -0.70859009406E+03  0.70859009406E+03  0.00000000000E+00 0. -1.
         25    2    1    2    0    0 -0.38609495562E+02  0.54812195885E+02 -0.57965723471E+03  0.59678045752E+03  0.12509730117E+03 0.  0.
          5    1    3    3  502    0 -0.29135832437E+02 -0.13704220784E+02 -0.35030179341E+02  0.47762833499E+02  0.41800000000E+01 0.  1.
         -5    1    3    3    0  502 -0.94736631247E+01  0.68516416669E+02 -0.54462705537E+03  0.54901762402E+03  0.41800000000E+01 0.  1.
        -11    1    1    2    0    0  0.48149904623E+02 -0.42605698935E+01 -0.87438107134E+01  0.49122499904E+02  0.00000000000E+00 0.  1.
         11    1    1    2    0    0 -0.95404090607E+01 -0.50551625991E+02 -0.84202360191E+02  0.98673825086E+02  0.00000000000E+00 0. -1.
</event>
<event>
 7    1  0.2820496E-009  0.8577749E+02  0.7561462E-02  0.1313412E+00
         -2   -1    0    0    0  501 -0.00000000000E+00  0.00000000000E+00  0.11427297158E+02  0.11427297158E+02  0.00000000000E+00 0.  1.
          2   -1    0    0  501    0  0.00000000000E+00 -0.00000000000E+00 -0.12186766271E+04  0.12186766271E+04  0.00000000000E+00 0. -1.
         25    2    1    2    0    0 -0.28635592573E+02 -0.17674354670E+02 -0.84453946032E+03  0.85441572971E+03  0.12508780586E+03 0.  0.
          5    1    3    3  502    0 -0.94138008431E+01 -0.45156793986E+02 -0.78164303209E+03  0.78301408525E+03  0.41800000000E+01 0.  1.
         -5    1    3    3    0  502 -0.19221791730E+02  0.27482439316E+02 -0.62896428227E+02  0.71401644461E+02  0.41800000000E+01 0.  1.
        -11    1    1    2    0    0 -0.15900246043E+02  0.38960460164E+02 -0.10187302685E+03  0.11022181671E+03  0.00000000000E+00 0.  1.
         11    1    1    2    0    0  0.44535838616E+02 -0.21286105494E+02 -0.26083684275E+03  0.26546637780E+03  0.00000000000E+00 0. -1.
</event>
<event>
 7    1  0.2820496E-009  0.1131489E+03  0.7561462E-02  0.1254847E+00
         -2   -1    0    0    0  501 -0.00000000000E+00  0.00000000000E+00  0.29949067662E+02  0.29949067662E+02  0.00000000000E+00 0.  1.
          2   -1    0    0  501    0  0.00000000000E+00 -0.00000000000E+00 -0.45988153915E+03  0.45988153915E+03  0.00000000000E+00 0. -1.
         25    2    1    2    0    0  0.35397298968E+02  0.19325097845E+02 -0.19964840792E+03  0.23902661761E+03  0.12509120257E+03 0.  0.
          5    1    3    3  502    0  0.80392830363E+02  0.86839201223E-01 -0.14256014269E+03  0.16371890971E+03  0.41800000000E+01 0.  1.
         -5    1    3    3    0  502 -0.44995531395E+02  0.19238258643E+02 -0.57088265233E+02  0.75307707896E+02  0.41800000000E+01 0.  1.
        -11    1    1    2    0    0 -0.36925244271E+02 -0.52107432840E+02 -0.12269614564E+03  0.13832209649E+03  0.00000000000E+00 0.  1.
         11    1    1    2    0    0  0.15279453034E+01  0.32782334995E+02 -0.10758791793E+03  0.11248189271E+03  0.00000000000E+00 0. -1.
</event>
<event>
 7    1  0.2820496E-009  0.1014750E+03  0.7561462E-02  0.1277224E+00
         -1   -1    0    0    0  501 -0.00000000000E+00  0.00000000000E+00  0.76919277576E+02  0.76919277576E+02  0.00000000000E+00 0.  1.
          1   -1    0    0  501    0  0.00000000000E+00 -0.00000000000E+00 -0.16850752449E+03  0.16850752449E+03  0.00000000000E+00 0. -1.
         25    2    1    2    0    0 -0.20884772016E+02 -0.20106878205E+02 -0.39329484934E+02  0.13429313811E+03  0.12508948119E+03 0.  0.
          5    1    3    3  502    0 -0.58933276640E+02 -0.51362445475E+02 -0.30892033642E+02  0.84160691794E+02  0.41800000000E+01 0.  1.
         -5    1    3    3    0  502  0.38048504624E+02  0.31255567270E+02 -0.84374512922E+01  0.50132446318E+02  0.41800000000E+01 0.  1.
        -11    1    1    2    0    0  0.39534971672E+02 -0.91227134892E+01 -0.62912259581E+02  0.74861140067E+02  0.00000000000E+00 0. -1.
         11    1    1    2    0    0 -0.18650199656E+02  0.29229591695E+02  0.10653497603E+02  0.36272523885E+02  0.00000000000E+00 0.  1.
</event>
<event>
 7    1  0.2820496E-009  0.8010811E+02  0.7561462E-02  0.1328745E+00
         -2   -1    0    0    0  501 -0.00000000000E+00  0.00000000000E+00  0.18640930033E+03  0.18640930033E+03  0.00000000000E+00 0.  1.
          2   -1    0    0  501    0  0.00000000000E+00 -0.00000000000E+00 -0.71661993148E+02  0.71661993148E+02  0.00000000000E+00 0. -1.
         25    2    1    2    0    0  0.94142906987E+01 -0.15623087867E+02  0.10819688601E+03  0.16639502453E+03  0.12509207929E+03 0.  0.
          5    1    3    3  502    0  0.38232998866E+02 -0.53494132903E+02  0.97113577595E+02  0.11735375499E+03  0.41800000000E+01 0.  1.
         -5    1    3    3    0  502 -0.28818708167E+02  0.37871045036E+02  0.11083308418E+02  0.49041269539E+02  0.41800000000E+01 0.  1.
        -11    1    1    2    0    0 -0.10275068338E+01  0.29944534240E+02  0.42546838606E+02  0.52038105043E+02  0.00000000000E+00 0.  1.
         11    1    1    2    0    0 -0.83867838649E+01 -0.14321446373E+02 -0.35996417435E+02  0.39638163907E+02  0.00000000000E+00 0. -1.
</event>
<event>
 7    1  0.2820496E-009  0.8815049E+02  0.7561462E-02  0.1307393E+00
         -4   -1    0    0    0  501 -0.00000000000E+00  0.00000000000E+00  0.61852653214E+02  0.61852653214E+02  0.00000000000E+00 0.  1.
          4   -1    0    0  501    0  0.00000000000E+00 -0.00000000000E+00 -0.19066524637E+03  0.19066524637E+03  0.00000000000E+00 0. -1.
         25    2    1    2    0    0  0.15705212114E+02 -0.15768981400E+01 -0.70666659509E+02  0.14453549928E+03  0.12509034131E+03 0.  0.
          5    1    3    3  502    0  0.24261503924E+02  0.40805210180E+02  0.13747899869E+02  0.49600029247E+02  0.41800000000E+01 0. -1.
         -5    1    3    3    0  502 -0.85562918094E+01 -0.42382108320E+02 -0.84414559378E+02  0.94935470032E+02  0.41800000000E+01 0. -1.
        -11    1    1    2    0    0  0.18461274900E+02  0.33625777280E+02 -0.45395630185E+02  0.59432943798E+02  0.00000000000E+00 0. -1.
         11    1    1    2    0    0 -0.34166487014E+02 -0.32048879140E+02 -0.12750303465E+02  0.48549456510E+02  0.00000000000E+00 0.  1.
</event>
<event>
 7    1  0.2820496E-009  0.5378660E+02  0.7561462E-02  0.1425926E+00
          2   -1    0    0  501    0  0.00000000000E+00  0.00000000000E+00  0.68185973745E+02  0.68185973745E+02  0.00000000000E+00 0. -1.
         -2   -1    0    0    0  501 -0.00000000000E+00 -0.00000000000E+00 -0.18326108485E+03  0.18326108485E+03  0.00000000000E+00 0.  1.
         25    2    1    2    0    0  0.27851963866E+02 -0.15645704214E+02 -0.68903747743E+02  0.14634743566E+03  0.12509726423E+03 0.  0.
          5    1    3    3  502    0  0.15952302594E+02 -0.13170837681E+02 -0.10548412723E+03  0.10757472017E+03  0.41800000000E+01 0. -1.
         -5    1    3    3    0  502  0.11899661272E+02 -0.24748665333E+01  0.36580379484E+02  0.38772715483E+02  0.41800000000E+01 0. -1.
        -11    1    1    2    0    0  0.21156388806E+02  0.12347624495E+02  0.13374120656E+02  0.27909204956E+02  0.00000000000E+00 0. -1.
         11    1    1    2    0    0 -0.49008352671E+02  0.32980797188E+01 -0.59545484019E+02  0.77190417983E+02  0.00000000000E+00 0.  1.
</event>
<event>
 7    1  0.2820496E-009  0.1379366E+03  0.7561462E-02  0.1216133E+00
         -1   -1    0    0    0  501 -0.00000000000E+00  0.00000000000E+00  0.94237689579E+02  0.94237689579E+02  0.00000000000E+00 0.  1.
          1   -1    0    0  501    0  0.00000000000E+00 -0.00000000000E+00 -0.25675804276E+03  0.25675804276E+03  0.00000000000E+00 0. -1.
         25    2    1    2    0    0  0.13987049909E+02 -0.10886551713E+03 -0.10511916556E+03  0.19683646405E+03  0.12508883335E+03 0.  0.
          5    1    3    3  502    0  0.51366963626E+02 -0.86002704661E+02 -0.21799314037E+02  0.10260464246E+03  0.41800000000E+01 0. -1.
         -5    1    3    3    0  502 -0.37379913717E+02 -0.22862812465E+02 -0.83319851527E+02  0.94231821598E+02  0.41800000000E+01 0. -1.
        -11    1    1    2    0    0  0.18090229644E+02  0.94900584094E+02 -0.12769228023E+02  0.97449630344E+02  0.00000000000E+00 0.  1.
         11    1    1    2    0    0 -0.32077279553E+02  0.13964933032E+02 -0.44631959597E+02  0.56709637943E+02  0.00000000000E+00 0. -1.
</event>
<event>
 7    1  0.2820496E-009  0.9907168E+02  0.7561462E-02  0.1282260E+00
         -1   -1    0    0    0  501 -0.00000000000E+00  0.00000000000E+00  0.10812951504E+03  0.10812951504E+03  0.00000000000E+00 0.  1.
          1   -1    0    0  501    0  0.00000000000E+00 -0.00000000000E+00 -0.14553895046E+03  0.14553895046E+03  0.00000000000E+00 0. -1.
         25    2    1    2    0    0  0.12105345539E+02 -0.53093566084E+02  0.11299886578E+02  0.13690151163E+03  0.12509544476E+03 0.  0.
          5    1    3    3  502    0  0.42324642251E+02  0.77004095616E+01 -0.34158576588E+02  0.55090402101E+02  0.41800000000E+01 0. -1.
         -5    1    3    3    0  502 -0.30219296712E+02 -0.60793975646E+02  0.45458463167E+02  0.81811109527E+02  0.41800000000E+01 0. -1.
        -11    1    1    2    0    0 -0.25217614059E+02 -0.63704157400E+01 -0.49446392434E+02  0.55869991769E+02  0.00000000000E+00 0. -1.
         11    1    1    2    0    0  0.13112268520E+02  0.59463981824E+02  0.73707043484E+00  0.60896962100E+02  0.00000000000E+00 0.  1.
</event>
<event>
 7    1  0.2820496E-009  0.9254694E+02  0.7561462E-02  0.1296799E+00
         -1   -1    0    0    0  501 -0.00000000000E+00  0.00000000000E+00  0.21796829569E+02  0.21796829569E+02  0.00000000000E+00 0.  1.
          1   -1    0    0  501    0  0.00000000000E+00 -0.00000000000E+00 -0.56030574877E+03  0.56030574877E+03  0.00000000000E+00 0. -1.
         25    2    1    2    0    0  0.13115849203E+02 -0.99618660866E+01 -0.26838027444E+03  0.29655171036E+03  0.12507470141E+03 0.  0.
          5    1    3    3  502    0 -0.18291905691E+02  0.35803655842E+02 -0.21721959907E+03  0.22094868681E+03  0.41800000000E+01 0.  1.
         -5    1    3    3    0  502  0.31407754893E+02 -0.45765521928E+02 -0.51160675370E+02  0.75603023545E+02  0.41800000000E+01 0.  1.
        -11    1    1    2    0    0 -0.30046332086E+00 -0.38692865523E+02 -0.79833019061E+02  0.88716058597E+02  0.00000000000E+00 0.  1.
         11    1    1    2    0    0 -0.12815385882E+02  0.48654731610E+02 -0.19029562570E+03  0.19683480938E+03  0.00000000000E+00 0. -1.
</event>
<event>
 7    1  0.2820496E-009  0.8986480E+02  0.7561462E-02  0.1303179E+00
         -2   -1    0    0    0  501 -0.00000000000E+00  0.00000000000E+00  0.30416565815E+03  0.30416565815E+03  0.00000000000E+00 0.  1.
          2   -1    0    0  501    0  0.00000000000E+00 -0.00000000000E+00 -0.89342125771E+02  0.89342125771E+02  0.00000000000E+00 0. -1.
         25    2    1    2    0    0 -0.10595710158E+02 -0.28917652059E+02  0.25782190053E+03  0.28821569040E+03  0.12509057570E+03 0.  0.
          5    1    3    3  502    0  0.20374260149E+02  0.41950159876E+02  0.62468974468E+02  0.78069017935E+02  0.41800000000E+01 0. -1.
         -5    1    3    3    0  502 -0.30969970307E+02 -0.70867811935E+02  0.19535292606E+03  0.21014667247E+03  0.41800000000E+01 0. -1.
        -11    1    1    2    0    0  0.28725544416E+02  0.13897610451E+02  0.20256969896E+02  0.37797424616E+02  0.00000000000E+00 0.  1.
         11    1    1    2    0    0 -0.18129834258E+02  0.15020041608E+02 -0.63255338041E+02  0.67494668907E+02  0.00000000000E+00 0. -1.
</event>
<event>
 7    1  0.2820496E-009  0.9537831E+02  0.7561462E-02  0.1290326E+00
         -2   -1    0    0    0  501 -0.00000000000E+00  0.00000000000E+00  0.27017861811E+03  0.27017861811E+03  0.00000000000E+00 0.  1.
          2   -1    0    0  501    0  0.00000000000E+00 -0.00000000000E+00 -0.49113373735E+02  0.49113373735E+02  0.00000000000E+00 0. -1.
         25    2    1    2    0    0  0.11136509176E+02  0.36257288232E+02  0.11289424157E+03  0.17271985039E+03  0.12509366151E+03 0.  0.
          5    1    3    3  502    0 -0.14665197681E+02 -0.42721267931E+02  0.25400055700E+02  0.51988556300E+02  0.41800000000E+01 0. -1.
         -5    1    3    3    0  502  0.25801706857E+02  0.78978556162E+02  0.87494185871E+02  0.12073129408E+03  0.41800000000E+01 0. -1.
        -11    1    1    2    0    0 -0.30481441380E+02 -0.27161550214E+02  0.11664006529E+03  0.12357901484E+03  0.00000000000E+00 0.  1.
         11    1    1    2    0    0  0.19344932204E+02 -0.90957380181E+01 -0.84690624874E+01  0.22993126614E+02  0.00000000000E+00 0. -1.
</event>
<event>
 7    1  0.2820496E-009  0.1208198E+03  0.7561462E-02  0.1241751E+00
         -2   -1    0    0    0  501 -0.00000000000E+00  0.00000000000E+00  0.29995774005E+02  0.29995774005E+02  0.00000000000E+00 0.  1.
          2   -1    0    0  501    0  0.00000000000E+00 -0.00000000000E+00 -0.67024166158E+03  0.67024166158E+03  0.00000000000E+00 0. -1.
         25    2    1    2    0    0 -0.61103404544E+02  0.47647206545E+02 -0.22902839477E+03  0.27222324667E+03  0.12509039961E+03 0.  0.
          5    1    3    3  502    0  0.91366153873E+01  0.62415896301E+02 -0.16211593921E+03  0.17400652861E+03  0.41800000000E+01 0. -1.
         -5    1    3    3    0  502 -0.70240019931E+02 -0.14768689756E+02 -0.66912455561E+02  0.98216718059E+02  0.41800000000E+01 0. -1.
        -11    1    1    2    0    0  0.55566403877E+02  0.29297202596E+01 -0.11857686870E+03  0.13098351916E+03  0.00000000000E+00 0.  1.
         11    1    1    2    0    0  0.55370006668E+01 -0.50576926805E+02 -0.29264062411E+03  0.29703066976E+03  0.00000000000E+00 0. -1.
</event>
<event>
 7    1  0.2820496E-009  0.9311918E+02  0.7561462E-02  0.1295469E+00
          2   -1    0    0  501    0  0.00000000000E+00  0.00000000000E+00  0.26930458616E+03  0.26930458616E+03  0.00000000000E+00 0. -1.
         -2   -1    0    0    0  501 -0.00000000000E+00 -0.00000000000E+00 -0.54559087821E+02  0.54559087821E+02  0.00000000000E+00 0.  1.
         25    2    1    2    0    0 -0.29842220649E+02  0.14429666599E+02  0.62993707022E+02  0.14392334910E+03  0.12508776871E+03 0.  0.
          5    1    3    3  502    0 -0.65336735687E+02  0.10030013805E+02  0.80199739415E+02  0.10401423369E+03  0.41800000000E+01 0.  1.
         -5    1    3    3    0  502  0.35494515038E+02  0.43996527941E+01 -0.17206032393E+02  0.39909115415E+02  0.41800000000E+01 0.  1.
        -11    1    1    2    0    0 -0.24061420849E+00  0.30184630701E+02  0.16551471430E+02  0.34425586883E+02  0.00000000000E+00 0.  1.
         11    1    1    2    0    0  0.30082834857E+02 -0.44614297299E+02  0.13520031989E+03  0.14551473800E+03  0.00000000000E+00 0. -1.
</event>
<event>
 7    1  0.2820496E-009  0.2085255E+03  0.7561462E-02  0.1142739E+00
         -1   -1    0    0    0  501 -0.00000000000E+00  0.00000000000E+00  0.85282726467E+02  0.85282726467E+02  0.00000000000E+00 0.  1.
          1   -1    0    0  501    0  0.00000000000E+00 -0.00000000000E+00 -0.64065992878E+03  0.64065992878E+03  0.00000000000E+00 0. -1.
         25    2    1    2    0    0 -0.20191829686E+03 -0.20478712210E+02 -0.34344724154E+03  0.41807371218E+03  0.12505696635E+03 0.  0.
          5    1    3    3  502    0 -0.30625020157E+02 -0.83354193995E+01  0.22082084461E+01  0.32089245250E+02  0.41800000000E+01 0. -1.
         -5    1    3    3    0  502 -0.17129327671E+03 -0.12143292810E+02 -0.34565544999E+03  0.38598446693E+03  0.41800000000E+01 0. -1.
        -11    1    1    2    0    0  0.47618512388E+02 -0.23103249774E+02 -0.17260369055E+02  0.55670487802E+02  0.00000000000E+00 0.  1.
         11    1    1    2    0    0  0.15429978448E+03  0.43581961984E+02 -0.19466959172E+03  0.25219845527E+03  0.00000000000E+00 0. -1.
</event>
<event>
 7    1  0.2820496E-009  0.8528791E+02  0.7561462E-02  0.1314681E+00
          2   -1    0    0  501    0  0.00000000000E+00  0.00000000000E+00  0.32768399454E+03  0.32768399454E+03  0.00000000000E+00 0. -1.
         -2   -1    0    0    0  501 -0.00000000000E+00 -0.00000000000E+00 -0.39288339295E+02  0.39288339295E+02  0.00000000000E+00 0.  1.
         25    2    1    2    0    0  0.83073966184E+01 -0.70363201280E+01  0.11125834391E+03  0.16776136291E+03  0.12508770185E+03 0.  0.
          5    1    3    3  502    0 -0.34333442736E+02  0.10727453543E+02 -0.10305103589E+02  0.37650114338E+02  0.41800000000E+01 0.  1.
         -5    1    3    3    0  502  0.42640839355E+02 -0.17763773671E+02  0.12156344750E+03  0.13011124857E+03  0.41800000000E+01 0.  1.
        -11    1    1    2    0    0  0.98688479741E+01  0.44905070494E+02  0.66305897193E+02  0.80686625404E+02  0.00000000000E+00 0.  1.
         11    1    1    2    0    0 -0.18176244593E+02 -0.37868750366E+02  0.11083141414E+03  0.11852434552E+03  0.00000000000E+00 0. -1.
</event>
<event>
 7    1  0.2820496E-009  0.1044290E+03  0.7561462E-02  0.1271249E+00
         -4   -1    0    0    0  501 -0.00000000000E+00  0.00000000000E+00  0.17724086523E+03  0.17724086523E+03  0.00000000000E+00 0. -1.
          4   -1    0    0  501    0  0.00000000000E+00 -0.00000000000E+00 -0.76629356857E+02  0.76629356857E+02  0.00000000000E+00 0.  1.
         25    2    1    2    0    0  0.37831129551E+02  0.22163183898E+02  0.38293012331E+02  0.13797153301E+03  0.12508952013E+03 0.  0.
          5    1    3    3  502    0  0.70404115427E+02  0.39265462588E+02 -0.51555972295E+01  0.80886145934E+02  0.41800000000E+01 0.  1.
         -5    1    3    3    0  502 -0.32572985876E+02 -0.17102278690E+02  0.43448609561E+02  0.57085387080E+02  0.41800000000E+01 0.  1.
        -11    1    1    2    0    0 -0.17127521641E+02  0.30246427370E+02  0.45171124838E+02  0.56996744515E+02  0.00000000000E+00 0. -1.
         11    1    1    2    0    0 -0.20703607910E+02 -0.52409611269E+02  0.17147371208E+02  0.58901944562E+02  0.00000000000E+00 0.  1.
</event>
<event>
 7    1  0.2820496E-009  0.1185401E+03  0.7561462E-02  0.1245525E+00
          2   -1    0    0  501    0  0.00000000000E+00  0.00000000000E+00  0.13847445048E+03  0.13847445048E+03  0.00000000000E+00 0. -1.
         -2   -1    0    0    0  501 -0.00000000000E+00 -0.00000000000E+00 -0.12895389331E+03  0.12895389331E+03  0.00000000000E+00 0.  1.
         25    2    1    2    0    0  0.63703351536E+02 -0.19216700074E+02  0.46873616427E+02  0.14923951865E+03  0.12509156427E+03 0.  0.
          5    1    3    3  502    0 -0.25478971504E+02  0.24234983597E+02  0.34043067156E+02  0.49121433613E+02  0.41800000000E+01 0.  1.
         -5    1    3    3    0  502  0.89182323040E+02 -0.43451683670E+02  0.12830549271E+02  0.10011808504E+03  0.41800000000E+01 0.  1.
        -11    1    1    2    0    0 -0.80948888267E+02  0.70185849385E+01 -0.48168663426E+02  0.94457414650E+02  0.00000000000E+00 0.  1.
         11    1    1    2    0    0  0.17245536731E+02  0.12198115135E+02  0.10815604170E+02  0.23731410484E+02  0.00000000000E+00 0. -1.
</event>
<event>
 7    1  0.2820496E-009  0.1035737E+03  0.7561462E-02  0.1272955E+00
         -2   -1    0    0    0  501 -0.00000000000E+00  0.00000000000E+00  0.39255813399E+03  0.39255813399E+03  0.00000000000E+00 0.  1.
          2   -1    0    0  501    0  0.00000000000E+00 -0.00000000000E+00 -0.33349698342E+02  0.33349698342E+02  0.00000000000E+00 0. -1.
         25    2    1    2    0    0 -0.50485803298E+01  0.16784467646E+02  0.14017618823E+03  0.18868675051E+03  0.12508444969E+03 0.  0.
          5    1    3    3  502    0  0.41552911062E+02 -0.29873052301E+02  0.97007626667E+02  0.10975880695E+03  0.41800000000E+01 0.  1.
         -5    1    3    3    0  502 -0.46601491392E+02  0.46657519947E+02  0.43168561559E+02  0.78927943561E+02  0.41800000000E+01 0.  1.
        -11    1    1    2    0    0 -0.36340099965E+02  0.13148390795E+02  0.11512065430E+03  0.12143413067E+03  0.00000000000E+00 0. -1.
         11    1    1    2    0    0  0.41388680295E+02 -0.29932858441E+02  0.10391159313E+03  0.11578695115E+03  0.00000000000E+00 0.  1.
</event>
<event>
 7    1  0.2820496E-009  0.1420132E+03  0.7561462E-02  0.1210645E+00
          1   -1    0    0  501    0  0.00000000000E+00  0.00000000000E+00  0.11600695779E+04  0.11600695779E+04  0.00000000000E+00 0. -1.
         -1   -1    0    0    0  501 -0.00000000000E+00 -0.00000000000E+00 -0.25807142186E+02  0.25807142186E+02  0.00000000000E+00 0.  1.
         25    2    1    2    0    0 -0.62789725032E+02 -0.84949493526E+02  0.89366184977E+03  0.90853629656E+03  0.12509090457E+03 0.  0.
          5    1    3    3  502    0 -0.81419885311E+02 -0.14885622171E+02  0.61537812698E+03  0.62093356411E+03  0.41800000000E+01 0.  1.
         -5    1    3    3    0  502  0.18630160279E+02 -0.70063871355E+02  0.27828372280E+03  0.28760273245E+03  0.41800000000E+01 0.  1.
        -11    1    1    2    0    0  0.50752481578E+02  0.98255893360E+02  0.15827987390E+03  0.19308690646E+03  0.00000000000E+00 0.  1.
         11    1    1    2    0    0  0.12037243454E+02 -0.13306399834E+02  0.82320712085E+02  0.84253517106E+02  0.00000000000E+00 0. -1.
</event>
<event>
 7    1  0.2820496E-009  0.2117842E+03  0.7561462E-02  0.1140161E+00
         -1   -1    0    0    0  501 -0.00000000000E+00  0.00000000000E+00  0.15120066189E+03  0.15120066189E+03  0.00000000000E+00 0.  1.
          1   -1    0    0  501    0  0.00000000000E+00 -0.00000000000E+00 -0.41664326935E+03  0.41664326935E+03  0.00000000000E+00 0. -1.
         25    2    1    2    0    0  0.96106667141E+01 -0.18989279836E+03 -0.27480497060E+03  0.35681451027E+03  0.12508870091E+03 0.  0.
          5    1    3    3  502    0  0.65823843800E+02 -0.10930908488E+03 -0.17582762371E+03  0.21728801188E+03  0.41800000000E+01 0.  1.
         -5    1    3    3    0  502 -0.56213177086E+02 -0.80583713480E+02 -0.98977346887E+02  0.13952649839E+03  0.41800000000E+01 0.  1.
        -11    1    1    2    0    0 -0.23567473891E+02  0.35952895274E+02  0.33609736575E+02  0.54567855894E+02  0.00000000000E+00 0.  1.
         11    1    1    2    0    0  0.13956807177E+02  0.15393990308E+03 -0.24247373438E+02  0.15646156508E+03  0.00000000000E+00 0. -1.
</event>
<event>
 7    1  0.2820496E-009  0.1056430E+03  0.7561462E-02  0.1268858E+00
          2   -1    0    0  501    0  0.00000000000E+00  0.00000000000E+00  0.23144299037E+02  0.23144299037E+02  0.00000000000E+00 0.  1.
         -2   -1    0    0    0  501 -0.00000000000E+00 -0.00000000000E+00 -0.79507726327E+03  0.79507726327E+03  0.00000000000E+00 0. -1.
         25    2    1    2    0    0 -0.43125710270E+01  0.42041488487E+02 -0.63293901562E+03  0.64656768491E+03  0.12510750838E+03 0.  0.
          5    1    3    3  502    0  0.96724914901E+01  0.76464780565E+02 -0.55247226651E+03  0.55783823589E+03  0.41800000000E+01 0.  1.
         -5    1    3    3    0  502 -0.13985062517E+02 -0.34423292078E+02 -0.80466749112E+02  0.88729449022E+02  0.41800000000E+01 0.  1.
        -11    1    1    2    0    0 -0.21758248619E+02  0.19911288263E+02 -0.66760357878E+02  0.72985109216E+02  0.00000000000E+00 0. -1.
         11    1    1    2    0    0  0.26070819646E+02 -0.61952776749E+02 -0.72233590735E+02  0.98668768181E+02  0.00000000000E+00 0.  1.
</event>
<event>
 7    1  0.2820496E-009  0.1264379E+03  0.7561462E-02  0.1232839E+00
          2   -1    0    0  501    0  0.00000000000E+00  0.00000000000E+00  0.69650438740E+03  0.69650438740E+03  0.00000000000E+00 0. -1.
         -2   -1    0    0    0  501 -0.00000000000E+00 -0.00000000000E+00 -0.51100040554E+02  0.51100040554E+02  0.00000000000E+00 0.  1.
         25    2    1    2    0    0 -0.82642810639E+02  0.39864780623E+02  0.58057563077E+03  0.60094483356E+03  0.12509034753E+03 0.  0.
          5    1    3    3  502    0 -0.40515092062E+02  0.82112279921E+02  0.28492028929E+03  0.29930075651E+03  0.41800000000E+01 0. -1.
         -5    1    3    3    0  502 -0.42127718577E+02 -0.42247499297E+02  0.29565534148E+03  0.30164407705E+03  0.41800000000E+01 0. -1.
        -11    1    1    2    0    0  0.19895646446E+02  0.90407113490E+01 -0.20524202415E+02  0.29980228384E+02  0.00000000000E+00 0.  1.
         11    1    1    2    0    0  0.62747164193E+02 -0.48905491972E+02  0.85352918491E+02  0.11667936602E+03  0.00000000000E+00 0. -1.
</event>
<event>
 7    1  0.2820496E-009  0.1141423E+03  0.7561462E-02  0.1253086E+00
          3   -1    0    0  501    0  0.00000000000E+00  0.00000000000E+00  0.25377437374E+02  0.25377437374E+02  0.00000000000E+00 0. -1.
         -3   -1    0    0    0  501 -0.00000000000E+00 -0.00000000000E+00 -0.10289985801E+04  0.10289985801E+04  0.00000000000E+00 0.  1.
         25    2    1    2    0    0  0.10955032977E+03  0.26941068559E+02 -0.66735977881E+03  0.68829059489E+03  0.12509105766E+03 0.  0.
          5    1    3    3  502    0  0.97391793821E+02  0.20012919486E+02 -0.22900630354E+03  0.24969388841E+03  0.41800000000E+01 0.  1.
         -5    1    3    3    0  502  0.12158535948E+02  0.69281490730E+01 -0.43835347527E+03  0.43859670647E+03  0.41800000000E+01 0.  1.
        -11    1    1    2    0    0 -0.17843214893E+02  0.21079902101E+01 -0.17913813027E+01  0.18056383564E+02  0.00000000000E+00 0. -1.
         11    1    1    2    0    0 -0.91707114876E+02 -0.29049058769E+02 -0.33446998258E+03  0.34802903899E+03  0.00000000000E+00 0.  1.
</event>
<event>
 7    1  0.2820496E-009  0.1322749E+03  0.7561462E-02  0.1224119E+00
          2   -1    0    0  501    0  0.00000000000E+00  0.00000000000E+00  0.67332480484E+03  0.67332480484E+03  0.00000000000E+00 0. -1.
         -2   -1    0    0    0  501 -0.00000000000E+00 -0.00000000000E+00 -0.30290716332E+02  0.30290716332E+02  0.00000000000E+00 0.  1.
         25    2    1    2    0    0 -0.70253746698E+02  0.57123852428E+02  0.40153198126E+03  0.43020339081E+03  0.12509317348E+03 0.  0.
          5    1    3    3  502    0 -0.97960016221E+02  0.72586798567E+02  0.30443613088E+03  0.32796926424E+03  0.41800000000E+01 0. -1.
         -5    1    3    3    0  502  0.27706269523E+02 -0.15462946138E+02  0.97095850384E+02  0.10223412657E+03  0.41800000000E+01 0. -1.
        -11    1    1    2    0    0  0.82050961122E+02 -0.44768451678E+02  0.23837486508E+03  0.25604521239E+03  0.00000000000E+00 0. -1.
         11    1    1    2    0    0 -0.11797214424E+02 -0.12355400750E+02  0.31272421585E+01  0.17366917958E+02  0.00000000000E+00 0.  1.
</event>
<event>
 7    1  0.2820496E-009  0.1119285E+03  0.7561462E-02  0.1257040E+00
          1   -1    0    0  501    0  0.00000000000E+00  0.00000000000E+00  0.69266810465E+03  0.69266810465E+03  0.00000000000E+00 0. -1.
         -1   -1    0    0    0  501 -0.00000000000E+00 -0.00000000000E+00 -0.26087956060E+02  0.26087956060E+02  0.00000000000E+00 0.  1.
         25    2    1    2    0    0  0.49784773412E+01  0.44955501858E+02  0.49560813068E+03  0.51314776059E+03  0.12508965834E+03 0.  0.
          5    1    3    3  502    0  0.53035775480E+02  0.61026077420E+02  0.33704123939E+03  0.34662839620E+03  0.41800000000E+01 0.  1.
         -5    1    3    3    0  502 -0.48057298139E+02 -0.16070575563E+02  0.15856689129E+03  0.16651936439E+03  0.41800000000E+01 0.  1.
        -11    1    1    2    0    0 -0.38040461094E+02 -0.23357678894E+01  0.15673897934E+02  0.41209265564E+02  0.00000000000E+00 0.  1.
         11    1    1    2    0    0  0.33061983753E+02 -0.42619733968E+02  0.15529811998E+03  0.16439903456E+03  0.00000000000E+00 0. -1.
</event>
<event>
 7    1  0.2820496E-009  0.7986924E+02  0.7561462E-02  0.1329423E+00
          1   -1    0    0  501    0  0.00000000000E+00  0.00000000000E+00  0.10683451290E+04  0.10683451290E+04  0.00000000000E+00 0. -1.
         -1   -1    0    0    0  501 -0.00000000000E+00 -0.00000000000E+00 -0.11575397861E+02  0.11575397861E+02  0.00000000000E+00 0.  1.
         25    2    1    2    0    0  0.14994646328E+02  0.12977162970E+02  0.68950541429E+03  0.70104079986E+03  0.12508893060E+03 0.  0.
          5    1    3    3  502    0  0.37553300669E+02 -0.63463324414E+01  0.62438396418E+02  0.73256754459E+02  0.41800000000E+01 0.  1.
         -5    1    3    3    0  502 -0.22558654341E+02  0.19323495411E+02  0.62706701787E+03  0.62778404540E+03  0.41800000000E+01 0.  1.
        -11    1    1    2    0    0 -0.12652681218E+02  0.38177593436E+02  0.19779013092E+03  0.20183794210E+03  0.00000000000E+00 0. -1.
         11    1    1    2    0    0 -0.23419651098E+01 -0.51154756406E+02  0.16947418594E+03  0.17704178491E+03  0.00000000000E+00 0.  1.
</event>
<event>
 7    1  0.2820496E-009  0.1692815E+03  0.7561462E-02  0.1178599E+00
         -2   -1    0    0    0  501 -0.00000000000E+00  0.00000000000E+00  0.16955401770E+03  0.16955401770E+03  0.00000000000E+00 0.  1.
          2   -1    0    0  501    0  0.00000000000E+00 -0.00000000000E+00 -0.18521442799E+03  0.18521442799E+03  0.00000000000E+00 0. -1.
         25    2    1    2    0    0 -0.11728821204E+03 -0.71802837270E+02  0.16664910551E+02  0.18665051918E+03  0.12509406438E+03 0.  0.
          5    1    3    3  502    0 -0.52995050236E+02  0.33216066635E+02  0.67008444041E+01  0.63040908527E+02  0.41800000000E+01 0.  1.
         -5    1    3    3    0  502 -0.64293161800E+02 -0.10501890390E+03  0.99640661466E+01  0.12360961065E+03  0.41800000000E+01 0.  1.
        -11    1    1    2    0    0  0.10421580562E+03  0.29376208138E+02  0.74202143600E+01  0.10853089572E+03  0.00000000000E+00 0.  1.
         11    1    1    2    0    0  0.13072406418E+02  0.42426629131E+02 -0.39745535207E+02  0.59587030786E+02  0.00000000000E+00 0. -1.
</event>
<event>
 7    1  0.2820496E-009  0.1240074E+03  0.7561462E-02  0.1236629E+00
         -2   -1    0    0    0  501 -0.00000000000E+00  0.00000000000E+00  0.28679111088E+02  0.28679111088E+02  0.00000000000E+00 0.  1.
          2   -1    0    0  501    0  0.00000000000E+00 -0.00000000000E+00 -0.63913207006E+03  0.63913207006E+03  0.00000000000E+00 0. -1.
         25    2    1    2    0    0  0.78135038762E+02 -0.13168573502E+02 -0.36788180615E+03  0.39655733426E+03  0.12506878288E+03 0.  0.
          5    1    3    3  502    0 -0.22544297586E+02 -0.31149691804E+02 -0.54113070230E+02  0.66515001487E+02  0.41800000000E+01 0. -1.
         -5    1    3    3    0  502  0.10067933635E+03  0.17981118302E+02 -0.31376873592E+03  0.33004233278E+03  0.41800000000E+01 0. -1.
        -11    1    1    2    0    0 -0.88402318909E+02  0.24453242720E+02 -0.23840229506E+03  0.25543802645E+03  0.00000000000E+00 0. -1.
         11    1    1    2    0    0  0.10267280147E+02 -0.11284669218E+02 -0.41688577627E+01  0.15815820435E+02  0.00000000000E+00 0.  1.
</event>
<event>
 7    1  0.2820496E-009  0.7002913E+02  0.7561462E-02  0.1359994E+00
         -1   -1    0    0    0  501 -0.00000000000E+00  0.00000000000E+00  0.18748412628E+02  0.18748412628E+02  0.00000000000E+00 0.  1.
          1   -1    0    0  501    0  0.00000000000E+00 -0.00000000000E+00 -0.78263351874E+03  0.78263351874E+03  0.00000000000E+00 0. -1.
         25    2    1    2    0    0 -0.35867213085E+02 -0.46493978048E+02 -0.44328277386E+03  0.46432477892E+03  0.12509890386E+03 0.  0.
          5    1    3    3  502    0 -0.28685495189E+02 -0.35322886976E+02 -0.44746135305E+03  0.44978850458E+03  0.41800000000E+01 0. -1.
         -5    1    3    3    0  502 -0.71817178957E+01 -0.11171091072E+02  0.41785791885E+01  0.14536274340E+02  0.41800000000E+01 0. -1.
        -11    1    1    2    0    0  0.66062907555E+01 -0.12752535834E+02 -0.59575942318E+01  0.15548735536E+02  0.00000000000E+00 0.  1.
         11    1    1    2    0    0  0.29260922329E+02  0.59246513882E+02 -0.31464473802E+03  0.32150841691E+03  0.00000000000E+00 0. -1.
</event>
<event>
 7    1  0.2820496E-009  0.2231988E+03  0.7561462E-02  0.1131520E+00
          1   -1    0    0  501    0  0.00000000000E+00  0.00000000000E+00  0.57779692939E+03  0.57779692939E+03  0.00000000000E+00 0. -1.
         -1   -1    0    0    0  501 -0.00000000000E+00 -0.00000000000E+00 -0.10043839556E+03  0.10043839556E+03  0.00000000000E+00 0.  1.
         25    2    1    2    0    0 -0.12391423738E+03  0.17727084754E+03  0.23659553857E+03  0.34410009386E+03  0.12509090341E+03 0.  0.
          5    1    3    3  502    0 -0.77865261517E+02  0.11943047134E+03  0.64085471568E+02  0.15636833599E+03  0.41800000000E+01 0.  1.
         -5    1    3    3    0  502 -0.46048975863E+02  0.57840376199E+02  0.17251006700E+03  0.18773175787E+03  0.41800000000E+01 0.  1.
        -11    1    1    2    0    0  0.72664145797E+02 -0.15983906908E+03  0.16441238359E+03  0.24054113570E+03  0.00000000000E+00 0. -1.
         11    1    1    2    0    0  0.51250091584E+02 -0.17431778459E+02  0.76350611677E+02  0.93594095386E+02  0.00000000000E+00 0.  1.
</event>
<event>
 7    1  0.2820496E-009  0.1147885E+03  0.7561462E-02  0.1251951E+00
          1   -1    0    0  501    0  0.00000000000E+00  0.00000000000E+00  0.44405793357E+03  0.44405793357E+03  0.00000000000E+00 0. -1.
         -1   -1    0    0    0  501 -0.00000000000E+00 -0.00000000000E+00 -0.66108754532E+02  0.66108754532E+02  0.00000000000E+00 0.  1.
         25    2    1    2    0    0  0.48527570655E+02  0.34519266548E+02  0.26175307214E+02  0.14099549324E+03  0.12509227606E+03 0.  0.
          5    1    3    3  502    0  0.82498763943E+02  0.23837013316E+02  0.48545384417E+02  0.98733864525E+02  0.41800000000E+01 0.  1.
         -5    1    3    3    0  502 -0.33971193288E+02  0.10682253232E+02 -0.22370077203E+02  0.42261628714E+02  0.41800000000E+01 0.  1.
        -11    1    1    2    0    0  0.27630920897E+01  0.27288774989E+02  0.14035574234E+03  0.14301065109E+03  0.00000000000E+00 0. -1.
         11    1    1    2    0    0 -0.51290662744E+02 -0.61808041537E+02  0.21141812948E+03  0.22616054377E+03  0.00000000000E+00 0.  1.
</event>
<event>
 7    1  0.2820496E-009  0.1008328E+03  0.7561462E-02  0.1278554E+00
         -2   -1    0    0    0  501 -0.00000000000E+00  0.00000000000E+00  0.11710978928E+03  0.11710978928E+03  0.00000000000E+00 0.  1.
          2   -1    0    0  501    0  0.00000000000E+00 -0.00000000000E+00 -0.15733920085E+03  0.15733920085E+03  0.00000000000E+00 0. -1.
         25    2    1    2    0    0 -0.10163690917E+02 -0.23986201881E+02 -0.10251426625E+03  0.16381854062E+03  0.12509476797E+03 0.  0.
          5    1    3    3  502    0  0.44970272159E+02  0.87382046218E+01 -0.85920095900E+02  0.97459821863E+02  0.41800000000E+01 0.  1.
         -5    1    3    3    0  502 -0.55133963077E+02 -0.32724406502E+02 -0.16594170345E+02  0.66358718756E+02  0.41800000000E+01 0.  1.
        -11    1    1    2    0    0 -0.26725332318E+02 -0.20456521697E+02  0.21880997989E+02  0.40143377293E+02  0.00000000000E+00 0. -1.
         11    1    1    2    0    0  0.36889023235E+02  0.44442723578E+02  0.40403856694E+02  0.70487072219E+02  0.00000000000E+00 0.  1.
</event>
<event>
 7    1  0.2820496E-009  0.1617742E+03  0.7561462E-02  0.1186708E+00
         -2   -1    0    0    0  501 -0.00000000000E+00  0.00000000000E+00  0.20996518597E+03  0.20996518597E+03  0.00000000000E+00 0.  1.
          2   -1    0    0  501    0  0.00000000000E+00 -0.00000000000E+00 -0.16724712745E+03  0.16724712745E+03  0.00000000000E+00 0. -1.
         25    2    1    2    0    0  0.13257183372E+03 -0.55922766714E+02 -0.27514224520E+02  0.19263101979E+03  0.12508809016E+03 0.  0.
          5    1    3    3  502    0  0.14945786485E+02  0.30102449299E+02  0.19957293025E+02  0.39310303132E+02  0.41800000000E+01 0. -1.
         -5    1    3    3    0  502  0.11762604723E+03 -0.86025216013E+02 -0.47471517545E+02  0.15332071666E+03  0.41800000000E+01 0. -1.
        -11    1    1    2    0    0 -0.86100460440E+02  0.35427076759E+02  0.90552072043E+02  0.12987703726E+03  0.00000000000E+00 0.  1.
         11    1    1    2    0    0 -0.46471373278E+02  0.20495689955E+02 -0.20319788999E+02  0.54704256379E+02  0.00000000000E+00 0. -1.
</event>
<event>
 7    1  0.2820496E-009  0.9324262E+02  0.7561462E-02  0.1295184E+00
          1   -1    0    0  501    0  0.00000000000E+00  0.00000000000E+00  0.53702706577E+02  0.53702706577E+02  0.00000000000E+00 0. -1.
         -1   -1    0    0    0  501 -0.00000000000E+00 -0.00000000000E+00 -0.26762292128E+03  0.26762292128E+03  0.00000000000E+00 0.  1.
         25    2    1    2    0    0  0.17423203498E+02  0.48019094709E+02 -0.10396263497E+03  0.17048494134E+03  0.12508990477E+03 0.  0.
          5    1    3    3  502    0  0.39324319878E+02  0.10437787564E+02  0.15145264381E+02  0.43614229058E+02  0.41800000000E+01 0. -1.
         -5    1    3    3    0  502 -0.21901116381E+02  0.37581307145E+02 -0.11910789935E+03  0.12687071228E+03  0.41800000000E+01 0. -1.
        -11    1    1    2    0    0  0.16412264647E+02 -0.62840311316E+02 -0.81482808468E+02  0.10420036100E+03  0.00000000000E+00 0.  1.
         11    1    1    2    0    0 -0.33835468144E+02  0.14821216608E+02 -0.28474771265E+02  0.46640325523E+02  0.00000000000E+00 0. -1.
</event>
<event>
 7    1  0.2820496E-009  0.8946854E+02  0.7561462E-02  0.1304144E+00
         -1   -1    0    0    0  501 -0.00000000000E+00  0.00000000000E+00  0.18931371046E+02  0.18931371046E+02  0.00000000000E+00 0. -1.
          1   -1    0    0  501    0  0.00000000000E+00 -0.00000000000E+00 -0.78962765886E+03  0.78962765886E+03  0.00000000000E+00 0.  1.
         25    2    1    2    0    0  0.30035121185E+02  0.39636772067E+02 -0.44048331392E+03  0.46059294107E+03  0.12508846997E+03 0.  0.
          5    1    3    3  502    0  0.34100472590E+02  0.48005525129E+02 -0.44538243908E+03  0.44927760028E+03  0.41800000000E+01 0.  1.
         -5    1    3    3    0  502 -0.40653514050E+01 -0.83687530620E+01  0.48991251615E+01  0.11315340791E+02  0.41800000000E+01 0.  1.
        -11    1    1    2    0    0 -0.41688950976E+02 -0.67593831797E+02 -0.24207706727E+03  0.25477087987E+03  0.00000000000E+00 0.  1.
         11    1    1    2    0    0  0.11653829791E+02  0.27957059731E+02 -0.88135906623E+02  0.93195208964E+02  0.00000000000E+00 0. -1.
</event>
<event>
 7    1  0.2820496E-009  0.1011760E+03  0.7561462E-02  0.1277842E+00
          1   -1    0    0  501    0  0.00000000000E+00  0.00000000000E+00  0.20164226593E+04  0.20164226593E+04  0.00000000000E+00 0. -1.
         -1   -1    0    0    0  501 -0.00000000000E+00 -0.00000000000E+00 -0.28806033191E+02  0.28806033191E+02  0.00000000000E+00 0.  1.
         25    2    1    2    0    0 -0.53807854299E+01 -0.76010730875E+02  0.18773764477E+04  0.18830818548E+04  0.12509341068E+03 0.  0.
          5    1    3    3  502    0  0.24844869043E+02  0.11684447796E+02  0.11670857390E+03  0.11996731830E+03  0.41800000000E+01 0. -1.
         -5    1    3    3    0  502 -0.30225654473E+02 -0.87695178671E+02  0.17606678738E+04  0.17631145365E+04  0.41800000000E+01 0. -1.
        -11    1    1    2    0    0 -0.10502559779E+02  0.51221215438E+02  0.46092074042E+01  0.52489631983E+02  0.00000000000E+00 0.  1.
         11    1    1    2    0    0  0.15883345209E+02  0.24789515437E+02  0.10563097102E+03  0.10965720573E+03  0.00000000000E+00 0. -1.
</event>
<event>
 7    1  0.2820496E-009  0.7443436E+02  0.7561462E-02  0.1345632E+00
         -2   -1    0    0    0  501 -0.00000000000E+00  0.00000000000E+00  0.46584203340E+02  0.46584203340E+02  0.00000000000E+00 0. -1.
          2   -1    0    0  501    0  0.00000000000E+00 -0.00000000000E+00 -0.28060746282E+03  0.28060746282E+03  0.00000000000E+00 0.  1.
         25    2    1    2    0    0  0.10533338165E+02  0.24438113575E+02 -0.15151286071E+03  0.19827124217E+03  0.12508863218E+03 0.  0.
          5    1    3    3  502    0  0.29817696797E+02 -0.20734147998E+02 -0.14380407702E+03  0.14837818203E+03  0.41800000000E+01 0. -1.
         -5    1    3    3    0  502 -0.19284358633E+02  0.45172261574E+02 -0.77087836927E+01  0.49893060134E+02  0.41800000000E+01 0. -1.
        -11    1    1    2    0    0 -0.34309385614E+02 -0.14411914909E+02 -0.93681798892E+02  0.10080236444E+03  0.00000000000E+00 0.  1.
         11    1    1    2    0    0  0.23776047449E+02 -0.10026198666E+02  0.11171400131E+02  0.28118059551E+02  0.00000000000E+00 0. -1.
</event>
<event>
 7    1  0.2820496E-009  0.6146555E+03  0.7561462E-02  0.9875459E-01
         -2   -1    0    0    0  501 -0.00000000000E+00  0.00000000000E+00  0.21023539940E+03  0.21023539940E+03  0.00000000000E+00 0.  1.
          2   -1    0    0  501    0  0.00000000000E+00 -0.00000000000E+00 -0.19599871811E+04  0.19599871811E+04  0.00000000000E+00 0. -1.
         25    2    1    2    0    0  0.61239590796E+03 -0.12893108910E+02 -0.11453511251E+04  0.13048646572E+04  0.12509034097E+03 0.  0.
          5    1    3    3  502    0  0.42734684826E+03 -0.21012573783E+01 -0.90910562745E+03  0.10045497789E+04  0.41800000000E+01 0.  1.
         -5    1    3    3    0  502  0.18504905970E+03 -0.10791851532E+02 -0.23624549766E+03  0.30031487828E+03  0.41800000000E+01 0.  1.
        -11    1    1    2    0    0 -0.12863221509E+02 -0.10402005914E+02 -0.32518155596E+02  0.36484169690E+02  0.00000000000E+00 0.  1.
         11    1    1    2    0    0 -0.59953268645E+03  0.23295114824E+02 -0.57188250095E+03  0.82887375359E+03  0.00000000000E+00 0. -1.
</event>
<event>
 7    1  0.2820496E-009  0.1115035E+03  0.7561462E-02  0.1257811E+00
         -1   -1    0    0    0  501 -0.00000000000E+00  0.00000000000E+00  0.71313933252E+02  0.71313933252E+02  0.00000000000E+00 0.  1.
          1   -1    0    0  501    0  0.00000000000E+00 -0.00000000000E+00 -0.28983849638E+03  0.28983849638E+03  0.00000000000E+00 0. -1.
         25    2    1    2    0    0 -0.39709265539E+02 -0.82708673459E+02 -0.97346338605E+02  0.18314421163E+03  0.12509173505E+03 0.  0.
          5    1    3    3  502    0 -0.38497962996E+02  0.82994353056E+01  0.11459574106E+02  0.41228242988E+02  0.41800000000E+01 0. -1.
         -5    1    3    3    0  502 -0.12113025433E+01 -0.91008108764E+02 -0.10880591271E+03  0.14191596864E+03  0.41800000000E+01 0. -1.
        -11    1    1    2    0    0  0.95224999769E+01  0.11383584123E+02  0.15154753277E+02  0.21211566189E+02  0.00000000000E+00 0.  1.
         11    1    1    2    0    0  0.30186765562E+02  0.71325089335E+02 -0.13633297780E+03  0.15679665181E+03  0.00000000000E+00 0. -1.
</event>
<event>
 6    1  0.2820496E-009  0.1242724E+03  0.7561462E-02  0.1236211E+00
         -1   -1    0    0    0  501 -0.00000000000E+00  0.00000000000E+00  0.18406080344E+03  0.18406080344E+03  0.00000000000E+00 0.  1.
          1   -1    0    0  501    0  0.00000000000E+00 -0.00000000000E+00 -0.14602932902E+03  0.14602932902E+03  0.00000000000E+00 0. -1.
          5    1    1    2  502    0 -0.40139363319E+01  0.37369023361E+02  0.17650210107E+01  0.37856879045E+02  0.41800000000E+01 0. -1.
         -5    1    1    2    0  502 -0.61707524721E+02 -0.69406585320E+02  0.11701064386E+03  0.14944582921E+03  0.41800000000E+01 0. -1.
        -11    1    1    2    0    0 -0.20671385384E+02  0.22961292548E+02 -0.21489468513E+02  0.37634085430E+02  0.00000000000E+00 0.  1.
         11    1    1    2    0    0  0.86392846437E+02  0.90762694112E+01 -0.59254721936E+02  0.10515333877E+03  0.00000000000E+00 0. -1.
</event>
<event>
 7    1  0.2820496E-009  0.2378253E+03  0.7561462E-02  0.1121250E+00
         -1   -1    0    0    0  501 -0.00000000000E+00  0.00000000000E+00  0.99878678258E+02  0.99878678258E+02  0.00000000000E+00 0.  1.
          1   -1    0    0  501    0  0.00000000000E+00 -0.00000000000E+00 -0.73066953761E+03  0.73066953761E+03  0.00000000000E+00 0. -1.
         25    2    1    2    0    0  0.11654500943E+03 -0.19232845433E+03 -0.47908959635E+03  0.54382703650E+03  0.12509208897E+03 0.  0.
          5    1    3    3  502    0  0.29145346211E+02 -0.10382013503E+03 -0.34222192174E+03  0.35883337047E+03  0.41800000000E+01 0.  1.
         -5    1    3    3    0  502  0.87399663219E+02 -0.88508319299E+02 -0.13686767462E+03  0.18499366603E+03  0.41800000000E+01 0.  1.
        -11    1    1    2    0    0 -0.15954005032E+01  0.88086954704E+02 -0.56878445408E+02  0.10486665077E+03  0.00000000000E+00 0.  1.
         11    1    1    2    0    0 -0.11494960893E+03  0.10424149963E+03 -0.94822817589E+02  0.18185452860E+03  0.00000000000E+00 0. -1.
</event>
<event>
 7    1  0.2820496E-009  0.1186163E+03  0.7561462E-02  0.1245397E+00
          1   -1    0    0  501    0  0.00000000000E+00  0.00000000000E+00  0.94316262663E+03  0.94316262663E+03  0.00000000000E+00 0. -1.
         -1   -1    0    0    0  501 -0.00000000000E+00 -0.00000000000E+00 -0.22714444747E+02  0.22714444747E+02  0.00000000000E+00 0.  1.
         25    2    1    2    0    0  0.52973345321E+02  0.46662038289E+02  0.72000627796E+03  0.73419311870E+03  0.12508786556E+03 0.  0.
          5    1    3    3  502    0 -0.24236158013E+02  0.50590507455E+02  0.44346592507E+03  0.44701933951E+03  0.41800000000E+01 0.  1.
         -5    1    3    3    0  502  0.77209503334E+02 -0.39284691660E+01  0.27654035289E+03  0.28717377919E+03  0.41800000000E+01 0.  1.
        -11    1    1    2    0    0 -0.47118522439E+01  0.20399334162E+02  0.82827970395E+01  0.22515308406E+02  0.00000000000E+00 0.  1.
         11    1    1    2    0    0 -0.48261493077E+02 -0.67061372451E+02  0.19215910688E+03  0.20916864427E+03  0.00000000000E+00 0. -1.
</event>
<event>
 7    1  0.2820496E-009  0.8614258E+02  0.7561462E-02  0.1312471E+00
         -1   -1    0    0    0  501 -0.00000000000E+00  0.00000000000E+00  0.41412789548E+02  0.41412789548E+02  0.00000000000E+00 0.  1.
          1   -1    0    0  501    0  0.00000000000E+00 -0.00000000000E+00 -0.31739349559E+03  0.31739349559E+03  0.00000000000E+00 0. -1.
         25    2    1    2    0    0  0.97839787772E+01  0.32475395336E+02 -0.13775548214E+03  0.18914171781E+03  0.12509052327E+03 0.  0.
          5    1    3    3  502    0 -0.27987124614E+02 -0.86046052495E+01 -0.12918515275E+03  0.13252771207E+03  0.41800000000E+01 0.  1.
         -5    1    3    3    0  502  0.37771103391E+02  0.41080000586E+02 -0.85703293911E+01  0.56614005735E+02  0.41800000000E+01 0.  1.
        -11    1    1    2    0    0  0.85520545817E+01  0.24997417188E+02 -0.85685382618E+02  0.89666009714E+02  0.00000000000E+00 0. -1.
         11    1    1    2    0    0 -0.18336033359E+02 -0.57472812524E+02 -0.52539841280E+02  0.79998557615E+02  0.00000000000E+00 0.  1.
</event>
<event>
 7    1  0.2820496E-009  0.1427283E+03  0.7561462E-02  0.1209704E+00
         -2   -1    0    0    0  501 -0.00000000000E+00  0.00000000000E+00  0.40416360152E+03  0.40416360152E+03  0.00000000000E+00 0.  1.
          2   -1    0    0  501    0  0.00000000000E+00 -0.00000000000E+00 -0.67555045984E+02  0.67555045984E+02  0.00000000000E+00 0. -1.
         25    2    1    2    0    0 -0.80393735503E+02  0.84233271264E+02  0.24218938868E+03  0.29641477751E+03  0.12509046184E+03 0.  0.
          5    1    3    3  502    0 -0.26147473732E+02  0.10428466937E+03  0.19026245402E+03  0.21857780413E+03  0.41800000000E+01 0. -1.
         -5    1    3    3    0  502 -0.54246261771E+02 -0.20051398108E+02  0.51926934655E+02  0.77836973379E+02  0.41800000000E+01 0. -1.
        -11    1    1    2    0    0  0.58277999703E+02 -0.40805483365E+02  0.24094588845E+01  0.71184395861E+02  0.00000000000E+00 0.  1.
         11    1    1    2    0    0  0.22115735800E+02 -0.43427787899E+02  0.92009707980E+02  0.10411947414E+03  0.00000000000E+00 0. -1.
</event>
<event>
 7    1  0.2820496E-009  0.1477055E+03  0.7561462E-02  0.1203321E+00
          2   -1    0    0  501    0  0.00000000000E+00  0.00000000000E+00  0.23882628108E+03  0.23882628108E+03  0.00000000000E+00 0. -1.
         -2   -1    0    0    0  501 -0.00000000000E+00 -0.00000000000E+00 -0.10235853013E+03  0.10235853013E+03  0.00000000000E+00 0.  1.
         25    2    1    2    0    0 -0.50053543821E+02 -0.95465651384E+02  0.11205738588E+03  0.19955795126E+03  0.12508984905E+03 0.  0.
          5    1    3    3  502    0 -0.86020009173E+02 -0.95810468953E+02  0.90133439495E+02  0.15722785139E+03  0.41800000000E+01 0. -1.
         -5    1    3    3    0  502  0.35966465352E+02  0.34481756893E+00  0.21923946388E+02  0.42330099862E+02  0.41800000000E+01 0. -1.
        -11    1    1    2    0    0  0.63920991139E+02  0.45349583055E+02  0.39109207327E+02  0.87589998796E+02  0.00000000000E+00 0. -1.
         11    1    1    2    0    0 -0.13867447318E+02  0.50116068329E+02 -0.14698842266E+02  0.54036861158E+02  0.00000000000E+00 0.  1.
</event>
<event>
 7    1  0.2820496E-009  0.1261256E+03  0.7561462E-02  0.1233321E+00
          2   -1    0    0  501    0  0.00000000000E+00  0.00000000000E+00  0.20857665648E+03  0.20857665648E+03  0.00000000000E+00 0.  1.
         -2   -1    0    0    0  501 -0.00000000000E+00 -0.00000000000E+00 -0.10917573807E+03  0.10917573807E+03  0.00000000000E+00 0. -1.
         25    2    1    2    0    0  0.19158389903E+01 -0.10054799330E+03  0.82324933753E+02  0.18040694174E+03  0.12512274179E+03 0.  0.
          5    1    3    3  502    0 -0.10687293270E+02 -0.12038895428E+03  0.32606036291E+02  0.12525312192E+03  0.41800000000E+01 0.  1.
         -5    1    3    3    0  502  0.12603132260E+02  0.19840960976E+02  0.49718897462E+02  0.55153819814E+02  0.41800000000E+01 0.  1.
        -11    1    1    2    0    0  0.17950384782E+02  0.44950267117E+02 -0.34103907028E+02  0.59209959485E+02  0.00000000000E+00 0. -1.
         11    1    1    2    0    0 -0.19866223773E+02  0.55597726183E+02  0.51179891691E+02  0.78135493326E+02  0.00000000000E+00 0.  1.
</event>
<event>
 7    1  0.2820496E-009  0.1194494E+03  0.7561462E-02  0.1244008E+00
          1   -1    0    0  501    0  0.00000000000E+00  0.00000000000E+00  0.19024609184E+03  0.19024609184E+03  0.00000000000E+00 0. -1.
         -1   -1    0    0    0  501 -0.00000000000E+00 -0.00000000000E+00 -0.94385822084E+02  0.94385822084E+02  0.00000000000E+00 0.  1.
         25    2    1    2    0    0 -0.37028423316E+02  0.52803659158E+02  0.10114949053E+03  0.17331286288E+03  0.12508716342E+03 0.  0.
          5    1    3    3  502    0 -0.42892677038E+02  0.89847608695E+02  0.89167978066E+02  0.13371901602E+03  0.41800000000E+01 0. -1.
         -5    1    3    3    0  502  0.58642537226E+01 -0.37043949537E+02  0.11981512459E+02  0.39593846868E+02  0.41800000000E+01 0. -1.
        -11    1    1    2    0    0 -0.97992397357E+01 -0.53789323992E+02 -0.25472768314E+02  0.60317314268E+02  0.00000000000E+00 0.  1.
         11    1    1    2    0    0  0.46827663051E+02  0.98566483427E+00  0.20183547540E+02  0.51001736767E+02  0.00000000000E+00 0. -1.
</event>
<event>
 7    1  0.2820496E-009  0.1077726E+03  0.7561462E-02  0.1264751E+00
         -1   -1    0    0    0  501 -0.00000000000E+00  0.00000000000E+00  0.34708452052E+03  0.34708452052E+03  0.00000000000E+00 0.  1.
          1   -1    0    0  501    0  0.00000000000E+00 -0.00000000000E+00 -0.50572486470E+02  0.50572486470E+02  0.00000000000E+00 0. -1.
         25    2    1    2    0    0  0.15947671035E+01  0.79669014480E+02  0.19608870925E+03  0.24586417892E+03  0.12509483374E+03 0.  0.
          5    1    3    3  502    0  0.37916136841E+02  0.10586045007E+02  0.14997919071E+03  0.15511585292E+03  0.41800000000E+01 0.  1.
         -5    1    3    3    0  502 -0.36321369738E+02  0.69082969473E+02  0.46109518543E+02  0.90748325996E+02  0.41800000000E+01 0.  1.
        -11    1    1    2    0    0  0.27458052750E+02 -0.34537048227E+02  0.85288217487E+02  0.96025165468E+02  0.00000000000E+00 0.  1.
         11    1    1    2    0    0 -0.29052819853E+02 -0.45131966253E+02  0.15135107313E+02  0.55767662607E+02  0.00000000000E+00 0. -1.
</event>
<event>
 7    1  0.2820496E-009  0.9652192E+02  0.7561462E-02  0.1287785E+00
          1   -1    0    0  501    0  0.00000000000E+00  0.00000000000E+00  0.50014093069E+02  0.50014093069E+02  0.00000000000E+00 0. -1.
         -1   -1    0    0    0  501 -0.00000000000E+00 -0.00000000000E+00 -0.30588570507E+03  0.30588570507E+03  0.00000000000E+00 0.  1.
         25    2    1    2    0    0 -0.44557651667E+01  0.63574824197E+01 -0.22473651133E+03  0.25731993498E+03  0.12508708160E+03 0.  0.
          5    1    3    3  502    0  0.14977689335E+02  0.49903112860E+02 -0.19283977083E+03  0.19979815181E+03  0.41800000000E+01 0.  1.
         -5    1    3    3    0  502 -0.19433454502E+02 -0.43545630441E+02 -0.31896740498E+02  0.57521783167E+02  0.41800000000E+01 0.  1.
        -11    1    1    2    0    0  0.48472651100E+02 -0.29448213663E+00 -0.10539305178E+02  0.49606063924E+02  0.00000000000E+00 0. -1.
         11    1    1    2    0    0 -0.44016885934E+02 -0.60630002831E+01 -0.20595795486E+02  0.48973799234E+02  0.00000000000E+00 0.  1.
</event>
<event>
 7    1  0.2820496E-009  0.1214080E+03  0.7561462E-02  0.1240792E+00
          2   -1    0    0  501    0  0.00000000000E+00  0.00000000000E+00  0.17371913479E+03  0.17371913479E+03  0.00000000000E+00 0. -1.
         -2   -1    0    0    0  501 -0.00000000000E+00 -0.00000000000E+00 -0.11270112572E+03  0.11270112572E+03  0.00000000000E+00 0.  1.
         25    2    1    2    0    0  0.80583397894E+02 -0.23904265808E+02  0.63643526454E+01  0.15084188766E+03  0.12509065572E+03 0.  0.
          5    1    3    3  502    0 -0.23031593339E+02 -0.32423220775E+02 -0.18194221280E+02  0.43934287580E+02  0.41800000000E+01 0. -1.
         -5    1    3    3    0  502  0.10361499123E+03  0.85189549670E+01  0.24558573925E+02  0.10690760008E+03  0.41800000000E+01 0. -1.
        -11    1    1    2    0    0 -0.18911167017E+02  0.31396266373E+02  0.63008696180E+02  0.72893439859E+02  0.00000000000E+00 0. -1.
         11    1    1    2    0    0 -0.61672230877E+02 -0.74920005650E+01 -0.83550397573E+01  0.62684932983E+02  0.00000000000E+00 0.  1.
</event>
<event>
 7    1  0.2820496E-009  0.2500288E+03  0.7561462E-02  0.1113287E+00
          1   -1    0    0  501    0  0.00000000000E+00  0.00000000000E+00  0.11356169383E+04  0.11356169383E+04  0.00000000000E+00 0. -1.
         -1   -1    0    0    0  501 -0.00000000000E+00 -0.00000000000E+00 -0.88156620087E+02  0.88156620087E+02  0.00000000000E+00 0.  1.
         25    2    1    2    0    0  0.48741361669E+02  0.22770731638E+03  0.88954672480E+03  0.92799087255E+03  0.12508933476E+03 0.  0.
          5    1    3    3  502    0 -0.31926624758E+02  0.31323021644E+02  0.88120908407E+02  0.98910100353E+02  0.41800000000E+01 0.  1.
         -5    1    3    3    0  502  0.80667986427E+02  0.19638429474E+03  0.80142581639E+03  0.82908077220E+03  0.41800000000E+01 0.  1.
        -11    1    1    2    0    0 -0.65362971235E+02 -0.15523359126E+03  0.14068232743E+03  0.21945683656E+03  0.00000000000E+00 0. -1.
         11    1    1    2    0    0  0.16621609566E+02 -0.72473725129E+02  0.17231265975E+02  0.76325849263E+02  0.00000000000E+00 0.  1.
</event>
<event>
 7    1  0.2820496E-009  0.1692865E+03  0.7561462E-02  0.1178594E+00
         -1   -1    0    0    0  501 -0.00000000000E+00  0.00000000000E+00  0.40893209394E+03  0.40893209394E+03  0.00000000000E+00 0.  1.
          1   -1    0    0  501    0  0.00000000000E+00 -0.00000000000E+00 -0.10937201019E+03  0.10937201019E+03  0.00000000000E+00 0. -1.
         25    2    1    2    0    0  0.16874767028E+03 -0.75712078921E+00  0.23797427466E+03  0.31741791638E+03  0.12508408684E+03 0.  0.
          5    1    3    3  502    0  0.36417256144E+02 -0.15337967357E+01 -0.84764017149E+01  0.37654891628E+02  0.41800000000E+01 0. -1.
         -5    1    3    3    0  502  0.13233041414E+03  0.77667594649E+00  0.24645067638E+03  0.27976302475E+03  0.41800000000E+01 0. -1.
        -11    1    1    2    0    0 -0.12063135603E+03  0.76726464397E+01 -0.19457719969E+01  0.12089077545E+03  0.00000000000E+00 0. -1.
         11    1    1    2    0    0 -0.48116314255E+02 -0.69155256505E+01  0.63531581089E+02  0.79995412294E+02  0.00000000000E+00 0.  1.
</event>
<event>
 7    1  0.2820496E-009  0.1014078E+03  0.7561462E-02  0.1277363E+00
          1   -1    0    0  501    0  0.00000000000E+00  0.00000000000E+00  0.19334184500E+03  0.19334184500E+03  0.00000000000E+00 0. -1.
         -1   -1    0    0    0  501 -0.00000000000E+00 -0.00000000000E+00 -0.10125828412E+03  0.10125828412E+03  0.00000000000E+00 0.  1.
         25    2    1    2    0    0  0.21424989578E+02 -0.67526632307E+02  0.82586299143E+00  0.14376032323E+03  0.12508985665E+03 0.  0.
          5    1    3    3  502    0  0.60085375002E+02 -0.40382486991E+02  0.39492539373E+02  0.82571972308E+02  0.41800000000E+01 0. -1.
         -5    1    3    3    0  502 -0.38660385424E+02 -0.27144145316E+02 -0.38666676382E+02  0.61188350921E+02  0.41800000000E+01 0. -1.
        -11    1    1    2    0    0  0.83777228721E+01  0.44321540927E+02 -0.69318308466E+01  0.45635901542E+02  0.00000000000E+00 0.  1.
         11    1    1    2    0    0 -0.29802712451E+02  0.23205091380E+02  0.98189528742E+02  0.10520390435E+03  0.00000000000E+00 0. -1.
</event>
<event>
 7    1  0.2820496E-009  0.1817795E+03  0.7561462E-02  0.1166092E+00
         -3   -1    0    0    0  501 -0.00000000000E+00  0.00000000000E+00  0.96913057994E+03  0.96913057994E+03  0.00000000000E+00 0.  1.
          3   -1    0    0  501    0  0.00000000000E+00 -0.00000000000E+00 -0.43503835559E+02  0.43503835559E+02  0.00000000000E+00 0. -1.
         25    2    1    2    0    0  0.10506515126E+03  0.10869365103E+03  0.69484027932E+03  0.72201393409E+03  0.12509241176E+03 0.  0.
          5    1    3    3  502    0 -0.18555348218E+02 -0.12677888357E+02  0.87135336127E+02  0.90083677781E+02  0.41800000000E+01 0. -1.
         -5    1    3    3    0  502  0.12362049948E+03  0.12137153939E+03  0.60770494319E+03  0.63193025631E+03  0.41800000000E+01 0. -1.
        -11    1    1    2    0    0 -0.42075101338E+02 -0.34199253583E+00  0.22973963505E+02  0.47939901029E+02  0.00000000000E+00 0.  1.
         11    1    1    2    0    0 -0.62990049926E+02 -0.10835165849E+03  0.20781250156E+03  0.24268058037E+03  0.00000000000E+00 0. -1.
</event>
<event>
 7    1  0.2820496E-009  0.9829119E+02  0.7561462E-02  0.1283931E+00
         -4   -1    0    0    0  501 -0.00000000000E+00  0.00000000000E+00  0.34021069456E+02  0.34021069456E+02  0.00000000000E+00 0.  1.
          4   -1    0    0  501    0  0.00000000000E+00 -0.00000000000E+00 -0.39389581235E+03  0.39389581235E+03  0.00000000000E+00 0. -1.
         25    2    1    2    0    0 -0.36952771213E+02  0.16776005649E+02 -0.19435350098E+03  0.23464244219E+03  0.12504739367E+03 0.  0.
          5    1    3    3  502    0  0.24107009967E+02  0.25362165345E+02 -0.51664512971E+01  0.35616737351E+02  0.41800000000E+01 0. -1.
         -5    1    3    3    0  502 -0.61059781180E+02 -0.85861596960E+01 -0.18918704969E+03  0.19902570484E+03  0.41800000000E+01 0. -1.
        -11    1    1    2    0    0 -0.18330317262E+02 -0.36499833852E+02 -0.61291247938E+02  0.73653618213E+02  0.00000000000E+00 0.  1.
         11    1    1    2    0    0  0.55283088475E+02  0.19723828204E+02 -0.10422999397E+03  0.11962082140E+03  0.00000000000E+00 0. -1.
</event>
<event>
 7    1  0.2820496E-009  0.8423995E+02  0.7561462E-02  0.1317432E+00
          2   -1    0    0  501    0  0.00000000000E+00  0.00000000000E+00  0.38839410362E+03  0.38839410362E+03  0.00000000000E+00 0. -1.
         -2   -1    0    0    0  501 -0.00000000000E+00 -0.00000000000E+00 -0.49328535162E+02  0.49328535162E+02  0.00000000000E+00 0.  1.
         25    2    1    2    0    0  0.28847682376E+02  0.43861431858E+02  0.29502867496E+03  0.32472328328E+03  0.12508907895E+03 0.  0.
          5    1    3    3  502    0  0.23048158647E+02  0.65876591322E+02  0.29329297783E+03  0.30151150251E+03  0.41800000000E+01 0. -1.
         -5    1    3    3    0  502  0.57995237292E+01 -0.22015159464E+02  0.17356971249E+01  0.23211780764E+02  0.41800000000E+01 0. -1.
        -11    1    1    2    0    0  0.12879668109E+02 -0.27919202165E+02 -0.18698406239E+02  0.35986081977E+02  0.00000000000E+00 0.  1.
         11    1    1    2    0    0 -0.41727350484E+02 -0.15942229693E+02  0.62735299738E+02  0.77013273527E+02  0.00000000000E+00 0. -1.
</event>
<event>
 7    1  0.3915149E-009  0.1379373E+03  0.7561462E-02  0.1216132E+00
          1   -1    0    0  501    0  0.00000000000E+00  0.00000000000E+00  0.52663106989E+03  0.52663106989E+03  0.00000000000E+00 0. -1.
         -1   -1    0    0    0  501 -0.00000000000E+00 -0.00000000000E+00 -0.70244291493E+02  0.70244291493E+02  0.00000000000E+00 0.  1.
         25    2    1    2    0    0  0.69084109587E+02  0.10784165913E+03  0.38406262091E+03  0.42373840601E+03  0.12509077629E+03 0.  0.
          5    1    3    3  502    0  0.69576684864E+02  0.10532880186E+03  0.18152902801E+03  0.22114549959E+03  0.41800000000E+01 0. -1.
         -5    1    3    3    0  502 -0.49257527707E+00  0.25128572669E+01  0.20253359290E+03  0.20259290643E+03  0.41800000000E+01 0. -1.
        -11    1    1    2    0    0 -0.73827774583E+02 -0.56134316878E+02  0.11959767927E+02  0.93512768541E+02  0.00000000000E+00 0.  1.
         11    1    1    2    0    0  0.47436649965E+01 -0.51707342252E+02  0.60364389561E+02  0.79624186824E+02  0.00000000000E+00 0. -1.
</event>
<event>
 7    1  0.2820496E-009  0.8001096E+02  0.7561462E-02  0.1329020E+00
         -1   -1    0    0    0  501 -0.00000000000E+00  0.00000000000E+00  0.15181921470E+03  0.15181921470E+03  0.00000000000E+00 0.  1.
          1   -1    0    0  501    0  0.00000000000E+00 -0.00000000000E+00 -0.85869697210E+02  0.85869697210E+02  0.00000000000E+00 0. -1.
         25    2    1    2    0    0 -0.23610603560E+02 -0.31564206271E+02  0.42420382226E+02  0.13784872200E+03  0.12509604954E+03 0.  0.
          5    1    3    3  502    0 -0.22449985875E+02 -0.44139060328E+02  0.82116239878E+02  0.95983372331E+02  0.41800000000E+01 0.  1.
         -5    1    3    3    0  502 -0.11606176855E+01  0.12574854057E+02 -0.39695857652E+02  0.41865349666E+02  0.41800000000E+01 0.  1.
        -11    1    1    2    0    0  0.24949894435E+02  0.61857935835E+02  0.15722022645E+02  0.68527975704E+02  0.00000000000E+00 0. -1.
         11    1    1    2    0    0 -0.13392908746E+01 -0.30293729564E+02  0.78071126137E+01  0.31312214203E+02  0.00000000000E+00 0.  1.
</event>
<event>
 6    1  0.2820496E-009  0.1285544E+03  0.7561462E-02  0.1229617E+00
          1   -1    0    0  501    0  0.00000000000E+00  0.00000000000E+00  0.11546817286E+04  0.11546817286E+04  0.00000000000E+00 0. -1.
         -1   -1    0    0    0  501 -0.00000000000E+00 -0.00000000000E+00 -0.35171438885E+02  0.35171438885E+02  0.00000000000E+00 0.  1.
          5    1    1    2  502    0  0.11215225896E+03  0.17640771783E+02  0.58666587173E+03  0.59756476091E+03  0.41800000000E+01 0. -1.
         -5    1    1    2    0  502 -0.20054654660E+02 -0.20361032608E+02  0.42089923229E+03  0.42188908135E+03  0.41800000000E+01 0. -1.
        -11    1    1    2    0    0 -0.18466474945E+02 -0.29051784790E+02  0.22239393747E+01  0.34495837469E+02  0.00000000000E+00 0.  1.
         11    1    1    2    0    0 -0.73631129355E+02  0.31772045614E+02  0.10972124634E+03  0.13590348778E+03  0.00000000000E+00 0. -1.
</event>
<event>
 7    1  0.2820496E-009  0.1829696E+03  0.7561462E-02  0.1164960E+00
         -1   -1    0    0    0  501 -0.00000000000E+00  0.00000000000E+00  0.43963889599E+03  0.43963889599E+03  0.00000000000E+00 0.  1.
          1   -1    0    0  501    0  0.00000000000E+00 -0.00000000000E+00 -0.10394893261E+03  0.10394893261E+03  0.00000000000E+00 0. -1.
         25    2    1    2    0    0  0.89674080516E+02  0.12927248649E+03  0.54978092292E+02  0.20838203246E+03  0.12509062451E+03 0.  0.
          5    1    3    3  502    0  0.59959833270E+02  0.14090915222E+03  0.10596110123E+02  0.15355885104E+03  0.41800000000E+01 0.  1.
         -5    1    3    3    0  502  0.29714247246E+02 -0.11636665730E+02  0.44381982169E+02  0.54823181410E+02  0.41800000000E+01 0.  1.
        -11    1    1    2    0    0 -0.61907176444E+02 -0.16007365214E+02  0.12774550528E+03  0.14285534066E+03  0.00000000000E+00 0.  1.
         11    1    1    2    0    0 -0.27766904072E+02 -0.11326512127E+03  0.15296636580E+03  0.19235045548E+03  0.00000000000E+00 0. -1.
</event>
<event>
 7    1  0.2820496E-009  0.1119127E+03  0.7561462E-02  0.1257068E+00
          4   -1    0    0  501    0  0.00000000000E+00  0.00000000000E+00  0.31733950014E+03  0.31733950014E+03  0.00000000000E+00 0. -1.
         -4   -1    0    0    0  501 -0.00000000000E+00 -0.00000000000E+00 -0.45641257095E+02  0.45641257095E+02  0.00000000000E+00 0.  1.
         25    2    1    2    0    0 -0.44734209452E+02  0.39846024468E+01  0.19315882970E+03  0.23446803431E+03  0.12509156275E+03 0.  0.
          5    1    3    3  502    0  0.40422851593E+02  0.14274403344E+02  0.93287039226E+02  0.10275071586E+03  0.41800000000E+01 0.  1.
         -5    1    3    3    0  502 -0.85157061044E+02 -0.10289800897E+02  0.99871790476E+02  0.13171731846E+03  0.41800000000E+01 0.  1.
        -11    1    1    2    0    0  0.40770249472E+02  0.36183719207E+02  0.67313171922E+02  0.86617191664E+02  0.00000000000E+00 0. -1.
         11    1    1    2    0    0  0.39639599802E+01 -0.40168321653E+02  0.11226241424E+02  0.41895531262E+02  0.00000000000E+00 0.  1.
</event>
<event>
 7    1  0.2820496E-009  0.1249021E+03  0.7561462E-02  0.1235222E+00
         -2   -1    0    0    0  501 -0.00000000000E+00  0.00000000000E+00  0.42185051751E+02  0.42185051751E+02  0.00000000000E+00 0.  1.
          2   -1    0    0  501    0  0.00000000000E+00 -0.00000000000E+00 -0.53665976681E+03  0.53665976681E+03  0.00000000000E+00 0. -1.
         25    2    1    2    0    0  0.23310305232E+02 -0.22448155407E+02 -0.32639270534E+03  0.35103595288E+03  0.12508697815E+03 0.  0.
          5    1    3    3  502    0  0.72278812276E+02 -0.31499579401E+02 -0.21092032943E+03  0.22521391603E+03  0.41800000000E+01 0. -1.
         -5    1    3    3    0  502 -0.48968507044E+02  0.90514239942E+01 -0.11547237591E+03  0.12582203685E+03  0.41800000000E+01 0. -1.
        -11    1    1    2    0    0  0.22957182360E+02  0.58096537115E+02 -0.15402706228E+02  0.64338815701E+02  0.00000000000E+00 0.  1.
         11    1    1    2    0    0 -0.46267487592E+02 -0.35648381709E+02 -0.15267930349E+03  0.16347004998E+03  0.00000000000E+00 0. -1.
</event>
<event>
 7    1  0.2820496E-009  0.1296464E+03  0.7561462E-02  0.1227981E+00
          1   -1    0    0  501    0  0.00000000000E+00  0.00000000000E+00  0.72111997500E+03  0.72111997500E+03  0.00000000000E+00 0. -1.
         -1   -1    0    0    0  501 -0.00000000000E+00 -0.00000000000E+00 -0.27356594295E+02  0.27356594295E+02  0.00000000000E+00 0.  1.
         25    2    1    2    0    0  0.83820348194E+02  0.26990124775E+02  0.35597701389E+03  0.38745461226E+03  0.12508846684E+03 0.  0.
          5    1    3    3  502    0  0.10119552706E+03  0.40925818861E+02  0.34574172088E+03  0.36258828898E+03  0.41800000000E+01 0. -1.
         -5    1    3    3    0  502 -0.17375178870E+02 -0.13935694086E+02  0.10235293007E+02  0.24866323278E+02  0.41800000000E+01 0. -1.
        -11    1    1    2    0    0 -0.10719992618E+02 -0.49702357884E+02  0.13883854126E+03  0.14785595409E+03  0.00000000000E+00 0. -1.
         11    1    1    2    0    0 -0.73100355577E+02  0.22712233110E+02  0.19894782556E+03  0.21316600295E+03  0.00000000000E+00 0.  1.
</event>
<event>
 7    1  0.2820496E-009  0.1111185E+03  0.7561462E-02  0.1258513E+00
          1   -1    0    0  501    0  0.00000000000E+00  0.00000000000E+00  0.30845973490E+03  0.30845973490E+03  0.00000000000E+00 0. -1.
         -1   -1    0    0    0  501 -0.00000000000E+00 -0.00000000000E+00 -0.60655124931E+02  0.60655124931E+02  0.00000000000E+00 0.  1.
         25    2    1    2    0    0 -0.64393169539E+02 -0.75311577261E+01  0.21070910721E+03  0.25347445612E+03  0.12509106053E+03 0.  0.
          5    1    3    3  502    0  0.28545978008E+02 -0.39032215571E+01  0.76700469936E+01  0.30106644114E+02  0.41800000000E+01 0. -1.
         -5    1    3    3    0  502 -0.92939147547E+02 -0.36279361690E+01  0.20303906021E+03  0.22336781200E+03  0.41800000000E+01 0. -1.
        -11    1    1    2    0    0  0.43809001870E+02 -0.32808294581E+02 -0.34688379191E+01  0.54842006479E+02  0.00000000000E+00 0.  1.
         11    1    1    2    0    0  0.20584167669E+02  0.40339452307E+02  0.40564340682E+02  0.60798397233E+02  0.00000000000E+00 0. -1.
</event>
<event>
 7    1  0.2820496E-009  0.2010733E+03  0.7561462E-02  0.1148837E+00
          2   -1    0    0  501    0  0.00000000000E+00  0.00000000000E+00  0.34922834699E+03  0.34922834699E+03  0.00000000000E+00 0. -1.
         -2   -1    0    0    0  501 -0.00000000000E+00 -0.00000000000E+00 -0.16972035459E+03  0.16972035459E+03  0.00000000000E+00 0.  1.
         25    2    1    2    0    0 -0.16128337640E+03  0.79747000383E+02  0.22294220367E+03  0.31260645514E+03  0.12509059934E+03 0.  0.
          5    1    3    3  502    0 -0.16957735211E+03  0.99299847132E+02  0.19139927441E+03  0.27435031007E+03  0.41800000000E+01 0.  1.
         -5    1    3    3    0  502  0.82939757132E+01 -0.19552846749E+02  0.31542929264E+02  0.38256145071E+02  0.41800000000E+01 0.  1.
        -11    1    1    2    0    0  0.13915225687E+03 -0.52231138921E+02  0.21915513334E+01  0.14864805872E+03  0.00000000000E+00 0. -1.
         11    1    1    2    0    0  0.22131119530E+02 -0.27515861462E+02 -0.45625762600E+02  0.57694187718E+02  0.00000000000E+00 0.  1.
</event>
<event>
 7    1  0.2820496E-009  0.1161073E+03  0.7561462E-02  0.1249660E+00
          1   -1    0    0  501    0  0.00000000000E+00  0.00000000000E+00  0.12583596310E+03  0.12583596310E+03  0.00000000000E+00 0. -1.
         -1   -1    0    0    0  501 -0.00000000000E+00 -0.00000000000E+00 -0.14478436659E+03  0.14478436659E+03  0.00000000000E+00 0.  1.
         25    2    1    2    0    0  0.33850344717E+02  0.63377881670E+02  0.27120419423E+02  0.14678457727E+03  0.12509034036E+03 0.  0.
          5    1    3    3  502    0  0.13660201031E+02 -0.38011115793E+02  0.11015430782E+02  0.42074435604E+02  0.41800000000E+01 0. -1.
         -5    1    3    3    0  502  0.20190143687E+02  0.10138899746E+03  0.16104988640E+02  0.10471014167E+03  0.41800000000E+01 0. -1.
        -11    1    1    2    0    0 -0.45641523217E+02 -0.35329779643E+02  0.11378486699E+02  0.58828665894E+02  0.00000000000E+00 0. -1.
         11    1    1    2    0    0  0.11791178500E+02 -0.28048102027E+02 -0.57447309611E+02  0.65007086531E+02  0.00000000000E+00 0.  1.
</event>
<event>
 7    1  0.2820496E-009  0.1089401E+03  0.7561462E-02  0.1262545E+00
          1   -1    0    0  501    0  0.00000000000E+00  0.00000000000E+00  0.35782862200E+02  0.35782862200E+02  0.00000000000E+00 0. -1.
         -1   -1    0    0    0  501 -0.00000000000E+00 -0.00000000000E+00 -0.47909011352E+03  0.47909011352E+03  0.00000000000E+00 0.  1.
         25    2    1    2    0    0 -0.16650331132E+02 -0.19688969373E+02 -0.11691967133E+03  0.17316337786E+03  0.12510178595E+03 0.  0.
          5    1    3    3  502    0 -0.41541605675E+02 -0.58886189706E+02 -0.38189310305E+02  0.81665073083E+02  0.41800000000E+01 0. -1.
         -5    1    3    3    0  502  0.24891274543E+02  0.39197220333E+02 -0.78730361022E+02  0.91498304776E+02  0.41800000000E+01 0. -1.
        -11    1    1    2    0    0 -0.37209971376E+02  0.25188577149E+02 -0.18315391594E+03  0.18858526802E+03  0.00000000000E+00 0.  1.
         11    1    1    2    0    0  0.53860302508E+02 -0.54996077755E+01 -0.14323366404E+03  0.15312432984E+03  0.00000000000E+00 0. -1.
</event>
<event>
 7    1  0.2820496E-009  0.8330527E+02  0.7561462E-02  0.1319925E+00
          2   -1    0    0  501    0  0.00000000000E+00  0.00000000000E+00  0.35709116525E+03  0.35709116525E+03  0.00000000000E+00 0. -1.
         -2   -1    0    0    0  501 -0.00000000000E+00 -0.00000000000E+00 -0.35593115442E+02  0.35593115442E+02  0.00000000000E+00 0.  1.
         25    2    1    2    0    0 -0.19752854344E+02  0.29839827037E+01  0.22867695588E+03  0.26141824359E+03  0.12508904238E+03 0.  0.
          5    1    3    3  502    0  0.22529739293E+02  0.26436030703E+02  0.85626518683E+01  0.36017277506E+02  0.41800000000E+01 0. -1.
         -5    1    3    3    0  502 -0.42282593637E+02 -0.23452047999E+02  0.22011430401E+03  0.22540096608E+03  0.41800000000E+01 0. -1.
        -11    1    1    2    0    0  0.51394093446E+02 -0.13760116175E+01  0.83818049932E+02  0.98329607664E+02  0.00000000000E+00 0. -1.
         11    1    1    2    0    0 -0.31641239102E+02 -0.16079710863E+01  0.90030439952E+01  0.32936429438E+02  0.00000000000E+00 0.  1.
</event>
<event>
 7    1  0.2820496E-009  0.9367336E+02  0.7561462E-02  0.1294192E+00
          2   -1    0    0  501    0  0.00000000000E+00  0.00000000000E+00  0.89296309484E+02  0.89296309484E+02  0.00000000000E+00 0. -1.
         -2   -1    0    0    0  501 -0.00000000000E+00 -0.00000000000E+00 -0.15470157929E+03  0.15470157929E+03  0.00000000000E+00 0.  1.
         25    2    1    2    0    0  0.33950176933E+02  0.32385607460E+02 -0.41354273006E+02  0.13985681334E+03  0.12509320628E+03 0.  0.
          5    1    3    3  502    0 -0.43871128864E+02  0.70012971017E+01 -0.36674931217E+02  0.57759995574E+02  0.41800000000E+01 0. -1.
         -5    1    3    3    0  502  0.77821305797E+02  0.25384310358E+02 -0.46793417886E+01  0.82096817770E+02  0.41800000000E+01 0. -1.
        -11    1    1    2    0    0 -0.26439826384E+02  0.10809891227E+01 -0.53012679790E+02  0.59250123842E+02  0.00000000000E+00 0.  1.
         11    1    1    2    0    0 -0.75103505494E+01 -0.33466596583E+02  0.28961682994E+02  0.44890951583E+02  0.00000000000E+00 0. -1.
</event>
<event>
 7    1  0.2820496E-009  0.8501719E+02  0.7561462E-02  0.1315388E+00
          1   -1    0    0  501    0  0.00000000000E+00  0.00000000000E+00  0.48838431662E+03  0.48838431662E+03  0.00000000000E+00 0. -1.
         -1   -1    0    0    0  501 -0.00000000000E+00 -0.00000000000E+00 -0.39899899464E+02  0.39899899464E+02  0.00000000000E+00 0.  1.
         25    2    1    2    0    0 -0.21789452666E+02  0.29175088420E+02  0.37229372035E+03  0.39443051767E+03  0.12508738154E+03 0.  0.
          5    1    3    3  502    0 -0.50183837531E+02 -0.17572011231E+02  0.74482354424E+02  0.91609424453E+02  0.41800000000E+01 0. -1.
         -5    1    3    3    0  502  0.28394384865E+02  0.46747099651E+02  0.29781136593E+03  0.30282109321E+03  0.41800000000E+01 0. -1.
        -11    1    1    2    0    0  0.67642446340E+00  0.13877357167E+02 -0.21171953577E+02  0.25323708462E+02  0.00000000000E+00 0.  1.
         11    1    1    2    0    0  0.21113028203E+02 -0.43052445587E+02  0.97362650382E+02  0.10852998996E+03  0.00000000000E+00 0. -1.
</event>
<event>
 7    1  0.2820496E-009  0.1104763E+03  0.7561462E-02  0.1259690E+00
         -2   -1    0    0    0  501 -0.00000000000E+00  0.00000000000E+00  0.11645388581E+03  0.11645388581E+03  0.00000000000E+00 0.  1.
          2   -1    0    0  501    0  0.00000000000E+00 -0.00000000000E+00 -0.28105178306E+03  0.28105178306E+03  0.00000000000E+00 0. -1.
         25    2    1    2    0    0  0.31971898506E+02 -0.31072766058E+02  0.64414772657E+02  0.14760313570E+03  0.12509877556E+03 0.  0.
          5    1    3    3  502    0  0.15427150460E+02  0.48593700875E+02  0.28578419370E+02  0.58596443490E+02  0.41800000000E+01 0. -1.
         -5    1    3    3    0  502  0.16544748046E+02 -0.79666466932E+02  0.35836353287E+02  0.89006692211E+02  0.41800000000E+01 0. -1.
        -11    1    1    2    0    0 -0.21281216870E+02  0.56696962220E+02 -0.20305554492E+03  0.21189381784E+03  0.00000000000E+00 0.  1.
         11    1    1    2    0    0 -0.10690681636E+02 -0.25624196162E+02 -0.25957124990E+02  0.38008715323E+02  0.00000000000E+00 0. -1.
</event>
<event>
 7    1  0.2820496E-009  0.1213503E+03  0.7561462E-02  0.1240886E+00
          2   -1    0    0  501    0  0.00000000000E+00  0.00000000000E+00  0.15102820416E+03  0.15102820416E+03  0.00000000000E+00 0. -1.
         -2   -1    0    0    0  501 -0.00000000000E+00 -0.00000000000E+00 -0.12679134704E+03  0.12679134704E+03  0.00000000000E+00 0.  1.
         25    2    1    2    0    0  0.61888729685E+02 -0.47229460820E+02 -0.17281412072E+02  0.14834676198E+03  0.12508907929E+03 0.  0.
          5    1    3    3  502    0 -0.28370676186E+02  0.10731265235E+02 -0.26647092964E+02  0.40590581225E+02  0.41800000000E+01 0.  1.
         -5    1    3    3    0  502  0.90259405871E+02 -0.57960726055E+02  0.93656808915E+01  0.10775618076E+03  0.41800000000E+01 0.  1.
        -11    1    1    2    0    0  0.43161380140E+01 -0.13941562285E+02 -0.16691789092E+02  0.22172325755E+02  0.00000000000E+00 0.  1.
         11    1    1    2    0    0 -0.66204867699E+02  0.61171023106E+02  0.58210058277E+02  0.10730046346E+03  0.00000000000E+00 0. -1.
</event>
<event>
 7    1  0.2820496E-009  0.1738697E+03  0.7561462E-02  0.1173871E+00
         -2   -1    0    0    0  501 -0.00000000000E+00  0.00000000000E+00  0.75497169808E+02  0.75497169808E+02  0.00000000000E+00 0.  1.
          2   -1    0    0  501    0  0.00000000000E+00 -0.00000000000E+00 -0.51343577228E+03  0.51343577228E+03  0.00000000000E+00 0. -1.
         25    2    1    2    0    0 -0.79260345127E+02 -0.14305417162E+03 -0.21560435934E+03  0.29812679582E+03  0.12509056034E+03 0.  0.
          5    1    3    3  502    0 -0.97131823141E+02 -0.12244464115E+03 -0.22029036935E+03  0.27013441181E+03  0.41800000000E+01 0.  1.
         -5    1    3    3    0  502  0.17871478013E+02 -0.20609530469E+02  0.46860100095E+01  0.27992384006E+02  0.41800000000E+01 0.  1.
        -11    1    1    2    0    0  0.57363148217E+02  0.11143378504E+03 -0.21883647241E+03  0.25218529076E+03  0.00000000000E+00 0. -1.
         11    1    1    2    0    0  0.21897196910E+02  0.31620386583E+02 -0.34977707167E+01  0.38620855508E+02  0.00000000000E+00 0.  1.
</event>
<event>
 7    1  0.2820496E-009  0.8851459E+02  0.7561462E-02  0.1306489E+00
         -2   -1    0    0    0  501 -0.00000000000E+00  0.00000000000E+00  0.53412338945E+02  0.53412338945E+02  0.00000000000E+00 0.  1.
          2   -1    0    0  501    0  0.00000000000E+00 -0.00000000000E+00 -0.45907854401E+03  0.45907854401E+03  0.00000000000E+00 0. -1.
         25    2    1    2    0    0  0.51003605937E+02  0.10882482716E+02 -0.38143091387E+03  0.40479227898E+03  0.12508977104E+03 0.  0.
          5    1    3    3  502    0  0.42025429287E+02  0.51947617204E+02 -0.33660587668E+03  0.34319918452E+03  0.41800000000E+01 0. -1.
         -5    1    3    3    0  502  0.89781766498E+01 -0.41065134488E+02 -0.44825037193E+02  0.61593094465E+02  0.41800000000E+01 0. -1.
        -11    1    1    2    0    0 -0.43025436502E+02  0.11115184871E+02  0.26561631895E+02  0.51771187062E+02  0.00000000000E+00 0.  1.
         11    1    1    2    0    0 -0.79781694350E+01 -0.21997667588E+02 -0.50796923093E+02  0.55927416913E+02  0.00000000000E+00 0. -1.
</event>
<event>
 7    1  0.2820496E-009  0.9997545E+02  0.7561462E-02  0.1280348E+00
          1   -1    0    0  501    0  0.00000000000E+00  0.00000000000E+00  0.74189548204E+03  0.74189548204E+03  0.00000000000E+00 0. -1.
         -1   -1    0    0    0  501 -0.00000000000E+00 -0.00000000000E+00 -0.18436126723E+02  0.18436126723E+02  0.00000000000E+00 0.  1.
         25    2    1    2    0    0  0.21721749544E+02  0.37364140894E+02  0.38596140833E+03  0.40802122518E+03  0.12508876069E+03 0.  0.
          5    1    3    3  502    0  0.55650148257E+02  0.37525370103E+02  0.35681595504E+03  0.36309804540E+03  0.41800000000E+01 0.  1.
         -5    1    3    3    0  502 -0.33928398713E+02 -0.16122920883E+00  0.29145453289E+02  0.44923179780E+02  0.41800000000E+01 0.  1.
        -11    1    1    2    0    0 -0.29286521978E+02  0.23273459587E+02  0.16853823061E+03  0.17263976792E+03  0.00000000000E+00 0.  1.
         11    1    1    2    0    0  0.75647724342E+01 -0.60637600481E+02  0.16895971639E+03  0.17967061567E+03  0.00000000000E+00 0. -1.
</event>
<event>
 7    1  0.2820496E-009  0.1311370E+03  0.7561462E-02  0.1225778E+00
         -2   -1    0    0    0  501 -0.00000000000E+00  0.00000000000E+00  0.10493568614E+04  0.10493568614E+04  0.00000000000E+00 0. -1.
          2   -1    0    0  501    0  0.00000000000E+00 -0.00000000000E+00 -0.19134784731E+02  0.19134784731E+02  0.00000000000E+00 0.  1.
         25    2    1    2    0    0 -0.31354232649E+02  0.75026712202E+02  0.40974270707E+03  0.43606018222E+03  0.12508917249E+03 0.  0.
          5    1    3    3  502    0  0.34838456686E+02  0.64919604288E+02  0.28524428549E+03  0.29463544914E+03  0.41800000000E+01 0. -1.
         -5    1    3    3    0  502 -0.66192689336E+02  0.10107107914E+02  0.12449842158E+03  0.14142473309E+03  0.41800000000E+01 0. -1.
        -11    1    1    2    0    0  0.32722779672E+02  0.11624754362E+02  0.14340183665E+03  0.14754660951E+03  0.00000000000E+00 0.  1.
         11    1    1    2    0    0 -0.13685470229E+01 -0.86651466564E+02  0.47707753293E+03  0.48488485438E+03  0.00000000000E+00 0. -1.
</event>
<event>
 7    1  0.2820496E-009  0.1132720E+03  0.7561462E-02  0.1254628E+00
          1   -1    0    0  501    0  0.00000000000E+00  0.00000000000E+00  0.39265900604E+02  0.39265900604E+02  0.00000000000E+00 0. -1.
         -1   -1    0    0    0  501 -0.00000000000E+00 -0.00000000000E+00 -0.48254000484E+03  0.48254000484E+03  0.00000000000E+00 0.  1.
         25    2    1    2    0    0 -0.73396977348E+02 -0.13544477646E+02 -0.32087789330E+03  0.35239284946E+03  0.12509008267E+03 0.  0.
          5    1    3    3  502    0 -0.58425025276E+02  0.37984573631E+02 -0.82783418838E+02  0.10829071173E+03  0.41800000000E+01 0. -1.
         -5    1    3    3    0  502 -0.14971952072E+02 -0.51529051277E+02 -0.23809447447E+03  0.24410213773E+03  0.41800000000E+01 0. -1.
        -11    1    1    2    0    0  0.87618565294E+02  0.95537314395E+01 -0.12641312836E+03  0.15410569681E+03  0.00000000000E+00 0.  1.
         11    1    1    2    0    0 -0.14221587946E+02  0.39907462067E+01  0.40169174303E+01  0.15307359166E+02  0.00000000000E+00 0. -1.
</event>
<event>
 7    1  0.2820496E-009  0.7581468E+02  0.7561462E-02  0.1341367E+00
         -1   -1    0    0    0  501 -0.00000000000E+00  0.00000000000E+00  0.40786595089E+02  0.40786595089E+02  0.00000000000E+00 0.  1.
          1   -1    0    0  501    0  0.00000000000E+00 -0.00000000000E+00 -0.78993104002E+03  0.78993104002E+03  0.00000000000E+00 0. -1.
         25    2    1    2    0    0  0.46202299975E+01 -0.35848825398E+02 -0.71379392554E+03  0.72557329505E+03  0.12509337926E+03 0.  0.
          5    1    3    3  502    0 -0.40139626485E+02 -0.18609719813E+02 -0.60465814400E+03  0.60628908517E+03  0.41800000000E+01 0.  1.
         -5    1    3    3    0  502  0.44759856482E+02 -0.17239105585E+02 -0.10913578154E+03  0.11928420988E+03  0.41800000000E+01 0.  1.
        -11    1    1    2    0    0  0.20610597403E+02  0.22441765648E+02 -0.60074792169E+02  0.67360301549E+02  0.00000000000E+00 0. -1.
         11    1    1    2    0    0 -0.25230827401E+02  0.13407059750E+02  0.24724272776E+02  0.37784038519E+02  0.00000000000E+00 0.  1.
</event>
<event>
 7    1  0.2820496E-009  0.1551834E+03  0.7561462E-02  0.1194244E+00
         -1   -1    0    0    0  501 -0.00000000000E+00  0.00000000000E+00  0.53158352008E+02  0.53158352008E+02  0.00000000000E+00 0.  1.
          1   -1    0    0  501    0  0.00000000000E+00 -0.00000000000E+00 -0.65260682232E+03  0.65260682232E+03  0.00000000000E+00 0. -1.
         25    2    1    2    0    0  0.62080386367E+02  0.12560403984E+03 -0.20831378701E+03  0.28048631665E+03  0.12509033046E+03 0.  0.
          5    1    3    3  502    0  0.44155297302E+02  0.11247206529E+03 -0.68706856229E+02  0.13906027557E+03  0.41800000000E+01 0.  1.
         -5    1    3    3    0  502  0.17925089065E+02  0.13131974557E+02 -0.13960693078E+03  0.14142604108E+03  0.41800000000E+01 0.  1.
        -11    1    1    2    0    0 -0.24702628076E+02  0.96581513517E+01 -0.56821060714E+02  0.62706719433E+02  0.00000000000E+00 0. -1.
         11    1    1    2    0    0 -0.37377758291E+02 -0.13526219119E+03 -0.33431362259E+03  0.36257213824E+03  0.00000000000E+00 0.  1.
</event>
<event>
 7    1  0.2820496E-009  0.1226084E+03  0.7561462E-02  0.1238855E+00
         -1   -1    0    0    0  501 -0.00000000000E+00  0.00000000000E+00  0.16352265189E+03  0.16352265189E+03  0.00000000000E+00 0.  1.
          1   -1    0    0  501    0  0.00000000000E+00 -0.00000000000E+00 -0.10088030932E+03  0.10088030932E+03  0.00000000000E+00 0. -1.
         25    2    1    2    0    0 -0.45162586901E+02 -0.47345752603E+02  0.16257250626E+02  0.14209888203E+03  0.12508602853E+03 0.  0.
          5    1    3    3  502    0 -0.50896074998E+02 -0.83963381800E+02  0.29359734191E+02  0.10256571711E+03  0.41800000000E+01 0. -1.
         -5    1    3    3    0  502  0.57334880969E+01  0.36617629197E+02 -0.13102483565E+02  0.39533164929E+02  0.41800000000E+01 0. -1.
        -11    1    1    2    0    0 -0.64381561646E+01  0.56817744690E+02  0.90040031458E+01  0.57885905358E+02  0.00000000000E+00 0. -1.
         11    1    1    2    0    0  0.51600743066E+02 -0.94719920874E+01  0.37381088789E+02  0.64418173819E+02  0.00000000000E+00 0.  1.
</event>
<event>
 7    1  0.3537184E-009  0.1161150E+03  0.7561462E-02  0.1249647E+00
         -1   -1    0    0    0  501 -0.00000000000E+00  0.00000000000E+00  0.95736205986E+02  0.95736205986E+02  0.00000000000E+00 0.  1.
          1   -1    0    0  501    0  0.00000000000E+00 -0.00000000000E+00 -0.23412959759E+03  0.23412959759E+03  0.00000000000E+00 0. -1.
         25    2    1    2    0    0  0.71315029604E+02 -0.73760229195E+02 -0.83433203302E+02  0.18203071592E+03  0.12509067618E+03 0.  0.
          5    1    3    3  502    0  0.74625420493E+02 -0.23671865115E+02  0.67939810923E+01  0.78695242302E+02  0.41800000000E+01 0.  1.
         -5    1    3    3    0  502 -0.33103908896E+01 -0.50088364080E+02 -0.90227184395E+02  0.10333547362E+03  0.41800000000E+01 0.  1.
        -11    1    1    2    0    0 -0.25179436731E+02  0.17325039330E+02  0.25109036225E+02  0.39555337465E+02  0.00000000000E+00 0.  1.
         11    1    1    2    0    0 -0.46135592873E+02  0.56435189866E+02 -0.80069224526E+02  0.10827975019E+03  0.00000000000E+00 0. -1.
</event>
<event>
 7    1  0.2820496E-009  0.1019978E+03  0.7561462E-02  0.1276150E+00
         -2   -1    0    0    0  501 -0.00000000000E+00  0.00000000000E+00  0.25343006932E+03  0.25343006932E+03  0.00000000000E+00 0.  1.
          2   -1    0    0  501    0  0.00000000000E+00 -0.00000000000E+00 -0.68776360397E+02  0.68776360397E+02  0.00000000000E+00 0. -1.
         25    2    1    2    0    0  0.52035384622E+02 -0.52367740170E+02  0.11218228199E+03  0.18352710574E+03  0.12508905902E+03 0.  0.
          5    1    3    3  502    0  0.12812944185E+02 -0.72335926148E+02  0.12707290609E+02  0.74669976463E+02  0.41800000000E+01 0. -1.
         -5    1    3    3    0  502  0.39222440438E+02  0.19968185978E+02  0.99474991378E+02  0.10885712928E+03  0.41800000000E+01 0. -1.
        -11    1    1    2    0    0 -0.50510198445E+02  0.20841924647E+02  0.87937515170E+02  0.10353102213E+03  0.00000000000E+00 0.  1.
         11    1    1    2    0    0 -0.15251861779E+01  0.31525815523E+02 -0.15466088233E+02  0.35148301843E+02  0.00000000000E+00 0. -1.
</event>
<event>
 7    1  0.2820496E-009  0.1018998E+03  0.7561462E-02  0.1276351E+00
         -2   -1    0    0    0  501 -0.00000000000E+00  0.00000000000E+00  0.66669744031E+02  0.66669744031E+02  0.00000000000E+00 0.  1.
          2   -1    0    0  501    0  0.00000000000E+00 -0.00000000000E+00 -0.22197545168E+03  0.22197545168E+03  0.00000000000E+00 0. -1.
         25    2    1    2    0    0  0.41204179247E+02  0.62687358514E+01 -0.48730098281E+02  0.14056617766E+03  0.12508855418E+03 0.  0.
          5    1    3    3  502    0  0.41330560960E+00  0.57529485448E+02 -0.47803610314E+02  0.74916420607E+02  0.41800000000E+01 0.  1.
         -5    1    3    3    0  502  0.40790873637E+02 -0.51260749597E+02 -0.92648796716E+00  0.65649757054E+02  0.41800000000E+01 0.  1.
        -11    1    1    2    0    0 -0.29787581954E+02  0.30104687647E+02 -0.89670463032E+01  0.43289723681E+02  0.00000000000E+00 0.  1.
         11    1    1    2    0    0 -0.11416597293E+02 -0.36373423498E+02 -0.97608563069E+02  0.10478929437E+03  0.00000000000E+00 0. -1.
</event>
<event>
 7    1  0.2820496E-009  0.1962669E+03  0.7561462E-02  0.1152927E+00
          1   -1    0    0  501    0  0.00000000000E+00  0.00000000000E+00  0.72486789144E+03  0.72486789144E+03  0.00000000000E+00 0. -1.
         -1   -1    0    0    0  501 -0.00000000000E+00 -0.00000000000E+00 -0.67768943226E+02  0.67768943226E+02  0.00000000000E+00 0.  1.
         25    2    1    2    0    0  0.16621861030E+03  0.41362395291E+02  0.49812032048E+03  0.54139718191E+03  0.12509029040E+03 0.  0.
          5    1    3    3  502    0  0.13283339582E+03 -0.26713548980E+02  0.29922150391E+03  0.32849551830E+03  0.41800000000E+01 0. -1.
         -5    1    3    3    0  502  0.33385214485E+02  0.68075944270E+02  0.19889881657E+03  0.21290166361E+03  0.41800000000E+01 0. -1.
        -11    1    1    2    0    0 -0.89868758567E+02  0.78388458739E+01  0.12523877897E+03  0.15434569326E+03  0.00000000000E+00 0. -1.
         11    1    1    2    0    0 -0.76349851736E+02 -0.49201241165E+02  0.33739848775E+02  0.96893959500E+02  0.00000000000E+00 0.  1.
</event>
<event>
 7    1  0.2820496E-009  0.1805739E+03  0.7561462E-02  0.1167249E+00
          2   -1    0    0  501    0  0.00000000000E+00  0.00000000000E+00  0.17186546899E+03  0.17186546899E+03  0.00000000000E+00 0.  1.
         -2   -1    0    0    0  501 -0.00000000000E+00 -0.00000000000E+00 -0.19691803480E+03  0.19691803480E+03  0.00000000000E+00 0. -1.
         25    2    1    2    0    0  0.12095019191E+03 -0.84864519174E+02 -0.21632768782E+02  0.19479839412E+03  0.12508997613E+03 0.  0.
          5    1    3    3  502    0  0.56684268724E+02  0.28218002363E+02 -0.68481640333E+01  0.63825792034E+02  0.41800000000E+01 0. -1.
         -5    1    3    3    0  502  0.64265923191E+02 -0.11308252154E+03 -0.14784604749E+02  0.13097260209E+03  0.41800000000E+01 0. -1.
        -11    1    1    2    0    0 -0.10434255947E+03  0.10040874643E+03  0.13787586279E+02  0.14546265367E+03  0.00000000000E+00 0.  1.
         11    1    1    2    0    0 -0.16607632441E+02 -0.15544227251E+02 -0.17207383304E+02  0.28522456001E+02  0.00000000000E+00 0. -1.
</event>
<event>
 7    1  0.2820496E-009  0.9322131E+02  0.7561462E-02  0.1295233E+00
         -2   -1    0    0    0  501 -0.00000000000E+00  0.00000000000E+00  0.21410467930E+02  0.21410467930E+02  0.00000000000E+00 0.  1.
          2   -1    0    0  501    0  0.00000000000E+00 -0.00000000000E+00 -0.61360202979E+03  0.61360202979E+03  0.00000000000E+00 0. -1.
         25    2    1    2    0    0 -0.67770595161E+01  0.29296779556E+02 -0.41333503870E+03  0.43289426028E+03  0.12508939420E+03 0.  0.
          5    1    3    3  502    0 -0.10366205548E+02  0.62859667641E+02 -0.10643717692E+03  0.12411744867E+03  0.41800000000E+01 0.  1.
         -5    1    3    3    0  502  0.35891460315E+01 -0.33562888085E+02 -0.30689786178E+03  0.30877681162E+03  0.41800000000E+01 0.  1.
        -11    1    1    2    0    0 -0.25956063985E+02  0.17624489072E+02 -0.33447347330E+02  0.45859185733E+02  0.00000000000E+00 0.  1.
         11    1    1    2    0    0  0.32733123502E+02 -0.46921268628E+02 -0.14540917583E+03  0.15625905170E+03  0.00000000000E+00 0. -1.
</event>
<event>
 7    1  0.2820496E-009  0.1079328E+03  0.7561462E-02  0.1264447E+00
         -2   -1    0    0    0  501 -0.00000000000E+00  0.00000000000E+00  0.49670563589E+03  0.49670563589E+03  0.00000000000E+00 0.  1.
          2   -1    0    0  501    0  0.00000000000E+00 -0.00000000000E+00 -0.31458484173E+02  0.31458484173E+02  0.00000000000E+00 0. -1.
         25    2    1    2    0    0  0.25027971930E+02  0.33285561037E+02  0.16379475160E+03  0.21026017191E+03  0.12508513617E+03 0.  0.
          5    1    3    3  502    0  0.70786578346E+02  0.18786152996E+02  0.13629591581E+03  0.15478277774E+03  0.41800000000E+01 0.  1.
         -5    1    3    3    0  502 -0.45758606416E+02  0.14499408041E+02  0.27498835786E+02  0.55477394173E+02  0.41800000000E+01 0.  1.
        -11    1    1    2    0    0  0.15996268328E+02  0.20927772097E+02  0.14417362357E+03  0.14656017870E+03  0.00000000000E+00 0.  1.
         11    1    1    2    0    0 -0.41024240258E+02 -0.54213333134E+02  0.15727877655E+03  0.17134376946E+03  0.00000000000E+00 0. -1.
</event>
<event>
 7    1  0.2820496E-009  0.1631746E+03  0.7561462E-02  0.1185159E+00
          1   -1    0    0  501    0  0.00000000000E+00  0.00000000000E+00  0.40519119895E+02  0.40519119895E+02  0.00000000000E+00 0. -1.
         -1   -1    0    0    0  501 -0.00000000000E+00 -0.00000000000E+00 -0.72823390392E+03  0.72823390392E+03  0.00000000000E+00 0.  1.
         25    2    1    2    0    0 -0.19683894384E+01 -0.13093101742E+03 -0.40229741660E+03  0.44117777777E+03  0.12509122396E+03 0.  0.
          5    1    3    3  502    0  0.47182663179E+02 -0.10902741369E+03 -0.20851156056E+03  0.24001609098E+03  0.41800000000E+01 0. -1.
         -5    1    3    3    0  502 -0.49151052617E+02 -0.21903603727E+02 -0.19378585604E+03  0.20116168679E+03  0.41800000000E+01 0. -1.
        -11    1    1    2    0    0 -0.18727907299E+02  0.13147344124E+03 -0.27259501003E+03  0.30322275600E+03  0.00000000000E+00 0.  1.
         11    1    1    2    0    0  0.20696296737E+02 -0.54242382396E+00 -0.12822357391E+02  0.24352490044E+02  0.00000000000E+00 0. -1.
</event>
<event>
 7    1  0.2820496E-009  0.8640348E+02  0.7561462E-02  0.1311803E+00
         -2   -1    0    0    0  501 -0.00000000000E+00  0.00000000000E+00  0.12612666738E+03  0.12612666738E+03  0.00000000000E+00 0.  1.
          2   -1    0    0  501    0  0.00000000000E+00 -0.00000000000E+00 -0.10255676949E+03  0.10255676949E+03  0.00000000000E+00 0. -1.
         25    2    1    2    0    0  0.30697921148E+02  0.12752591484E+01  0.62927903115E+01  0.12896421212E+03  0.12509268624E+03 0.  0.
          5    1    3    3  502    0  0.29143315690E+02 -0.49199554084E+02  0.38372518454E+02  0.68991677353E+02  0.41800000000E+01 0. -1.
         -5    1    3    3    0  502  0.15546054577E+01  0.50474813232E+02 -0.32079728143E+02  0.59972534769E+02  0.41800000000E+01 0. -1.
        -11    1    1    2    0    0 -0.26269284781E+01  0.25720407406E+02  0.45011052071E+02  0.51907946587E+02  0.00000000000E+00 0.  1.
         11    1    1    2    0    0 -0.28070992670E+02 -0.26995666555E+02 -0.27733944498E+02  0.47811278163E+02  0.00000000000E+00 0. -1.
</event>
<event>
 7    1  0.2820496E-009  0.1225366E+03  0.7561462E-02  0.1238970E+00
         -1   -1    0    0    0  501 -0.00000000000E+00  0.00000000000E+00  0.33402091961E+03  0.33402091961E+03  0.00000000000E+00 0.  1.
          1   -1    0    0  501    0  0.00000000000E+00 -0.00000000000E+00 -0.49799808335E+02  0.49799808335E+02  0.00000000000E+00 0. -1.
         25    2    1    2    0    0 -0.25629049393E+02 -0.62921232887E+02  0.16392866520E+03  0.21710771616E+03  0.12508886209E+03 0.  0.
          5    1    3    3  502    0 -0.59176823076E+02 -0.79540644567E+02  0.14287556242E+03  0.17395260637E+03  0.41800000000E+01 0. -1.
         -5    1    3    3    0  502  0.33547773683E+02  0.16619411680E+02  0.21053102782E+02  0.43155109783E+02  0.41800000000E+01 0. -1.
        -11    1    1    2    0    0 -0.27841192285E+02  0.42769444870E+02  0.28125949561E+02  0.58270287807E+02  0.00000000000E+00 0. -1.
         11    1    1    2    0    0  0.53470241678E+02  0.20151788016E+02  0.92166496515E+02  0.10844272398E+03  0.00000000000E+00 0.  1.
</event>
<event>
 7    1  0.2820496E-009  0.1063388E+03  0.7561462E-02  0.1267504E+00
         -1   -1    0    0    0  501 -0.00000000000E+00  0.00000000000E+00  0.98515162663E+02  0.98515162663E+02  0.00000000000E+00 0.  1.
          1   -1    0    0  501    0  0.00000000000E+00 -0.00000000000E+00 -0.17392597584E+03  0.17392597584E+03  0.00000000000E+00 0. -1.
         25    2    1    2    0    0 -0.84005826298E+01 -0.53460278838E+02  0.64913321358E+01  0.13645664004E+03  0.12509878503E+03 0.  0.
          5    1    3    3  502    0 -0.42975992237E+02 -0.56936968303E+02 -0.37130725161E+02  0.80528984964E+02  0.41800000000E+01 0. -1.
         -5    1    3    3    0  502  0.34575409607E+02  0.34766894652E+01  0.43622057297E+02  0.55927655073E+02  0.41800000000E+01 0. -1.
        -11    1    1    2    0    0 -0.36789392993E+02  0.48329915506E+02 -0.32699549212E+02  0.68981886668E+02  0.00000000000E+00 0.  1.
         11    1    1    2    0    0  0.45189975622E+02  0.51303633326E+01 -0.49202596100E+02  0.67002611797E+02  0.00000000000E+00 0. -1.
</event>
<event>
 7    1  0.2820496E-009  0.1009246E+03  0.7561462E-02  0.1278364E+00
         -1   -1    0    0    0  501 -0.00000000000E+00  0.00000000000E+00  0.35463883144E+02  0.35463883144E+02  0.00000000000E+00 0.  1.
          1   -1    0    0  501    0  0.00000000000E+00 -0.00000000000E+00 -0.45680788451E+03  0.45680788451E+03  0.00000000000E+00 0. -1.
         25    2    1    2    0    0  0.43366046241E+02 -0.44158440162E+02 -0.26536245735E+03  0.29982396384E+03  0.12508634505E+03 0.  0.
          5    1    3    3  502    0  0.49989555607E+02  0.27745795137E+01 -0.24135470965E+03  0.24652833962E+03  0.41800000000E+01 0.  1.
         -5    1    3    3    0  502 -0.66235093665E+01 -0.46933019675E+02 -0.24007747696E+02  0.53295624226E+02  0.41800000000E+01 0.  1.
        -11    1    1    2    0    0  0.24652072037E+02  0.20335301380E+02 -0.17746688882E+02  0.36553988896E+02  0.00000000000E+00 0.  1.
         11    1    1    2    0    0 -0.68018118277E+02  0.23823138782E+02 -0.13823485513E+03  0.15589381492E+03  0.00000000000E+00 0. -1.
</event>
<event>
 7    1  0.3866618E-009  0.1236200E+03  0.7561462E-02  0.1237242E+00
          2   -1    0    0  501    0  0.00000000000E+00  0.00000000000E+00  0.71324149579E+03  0.71324149579E+03  0.00000000000E+00 0. -1.
         -2   -1    0    0    0  501 -0.00000000000E+00 -0.00000000000E+00 -0.23808231103E+02  0.23808231103E+02  0.00000000000E+00 0.  1.
         25    2    1    2    0    0  0.70943131681E+02  0.67274149225E+01  0.38027136121E+03  0.40661015310E+03  0.12508925774E+03 0.  0.
          5    1    3    3  502    0  0.88307327909E+02  0.42476680471E+02  0.31652793101E+03  0.33137570227E+03  0.41800000000E+01 0. -1.
         -5    1    3    3    0  502 -0.17364196228E+02 -0.35749265549E+02  0.63743430206E+02  0.75234450834E+02  0.41800000000E+01 0. -1.
        -11    1    1    2    0    0 -0.13931374831E+02 -0.40570849157E+02  0.68591954875E+02  0.80900761922E+02  0.00000000000E+00 0.  1.
         11    1    1    2    0    0 -0.57011756850E+02  0.33843434235E+02  0.24056994860E+03  0.24953881187E+03  0.00000000000E+00 0. -1.
</event>
<event>
 7    1  0.2820496E-009  0.1419990E+03  0.7561462E-02  0.1210664E+00
         -2   -1    0    0    0  501 -0.00000000000E+00  0.00000000000E+00  0.44053865212E+02  0.44053865212E+02  0.00000000000E+00 0.  1.
          2   -1    0    0  501    0  0.00000000000E+00 -0.00000000000E+00 -0.56930473242E+03  0.56930473242E+03  0.00000000000E+00 0. -1.
         25    2    1    2    0    0  0.10873826786E+03 -0.23349681909E+02 -0.26796237766E+03  0.31594403564E+03  0.12509028450E+03 0.  0.
          5    1    3    3  502    0  0.11001551367E+03  0.97892017349E+00 -0.26955664958E+03  0.29117457180E+03  0.41800000000E+01 0. -1.
         -5    1    3    3    0  502 -0.12772458061E+01 -0.24328602083E+02  0.15942719187E+01  0.24769463843E+02  0.41800000000E+01 0. -1.
        -11    1    1    2    0    0 -0.89819460254E+02 -0.28302273896E+02 -0.16412738881E+03  0.18922566925E+03  0.00000000000E+00 0. -1.
         11    1    1    2    0    0 -0.18918807605E+02  0.51651955805E+02 -0.93161100744E+02  0.10818889274E+03  0.00000000000E+00 0.  1.
</event>
<event>
 7    1  0.2820496E-009  0.1383284E+03  0.7561462E-02  0.1215596E+00
         -2   -1    0    0    0  501 -0.00000000000E+00  0.00000000000E+00  0.57859507151E+02  0.57859507151E+02  0.00000000000E+00 0.  1.
          2   -1    0    0  501    0  0.00000000000E+00 -0.00000000000E+00 -0.42595167689E+03  0.42595167689E+03  0.00000000000E+00 0. -1.
         25    2    1    2    0    0 -0.22179394512E+01 -0.88349538408E+02 -0.30175272885E+03  0.33839917523E+03  0.12509489292E+03 0.  0.
          5    1    3    3  502    0 -0.56892825058E+02 -0.70193494048E+02 -0.22372560459E+03  0.24131833477E+03  0.41800000000E+01 0.  1.
         -5    1    3    3    0  502  0.54674885607E+02 -0.18156044360E+02 -0.78027124267E+02  0.97080840459E+02  0.41800000000E+01 0.  1.
        -11    1    1    2    0    0  0.44702380809E+02  0.22415541303E+02 -0.17339491097E+02  0.52928416691E+02  0.00000000000E+00 0.  1.
         11    1    1    2    0    0 -0.42484441358E+02  0.65933997104E+02 -0.48999949789E+02  0.92483592118E+02  0.00000000000E+00 0. -1.
</event>
<event>
 7    1  0.2820496E-009  0.1691014E+03  0.7561462E-02  0.1178788E+00
         -2   -1    0    0    0  501 -0.00000000000E+00  0.00000000000E+00  0.67301888291E+02  0.67301888291E+02  0.00000000000E+00 0.  1.
          2   -1    0    0  501    0  0.00000000000E+00 -0.00000000000E+00 -0.47269292956E+03  0.47269292956E+03  0.00000000000E+00 0. -1.
         25    2    1    2    0    0 -0.78808796323E+02  0.12142924238E+03 -0.20982102164E+03  0.28395118238E+03  0.12509006984E+03 0.  0.
          5    1    3    3  502    0 -0.10300840210E+03  0.11759703866E+03 -0.20625658048E+03  0.25884173504E+03  0.41800000000E+01 0. -1.
         -5    1    3    3    0  502  0.24199605780E+02  0.38322037189E+01 -0.35644411545E+01  0.25109447345E+02  0.41800000000E+01 0. -1.
        -11    1    1    2    0    0  0.44784232051E+02 -0.11351032561E+03 -0.11268190507E+03  0.16609465131E+03  0.00000000000E+00 0.  1.
         11    1    1    2    0    0  0.34024564272E+02 -0.79189167643E+01 -0.82888114555E+02  0.89948984158E+02  0.00000000000E+00 0. -1.
</event>
<event>
 7    1  0.2820496E-009  0.1268392E+03  0.7561462E-02  0.1232223E+00
          1   -1    0    0  501    0  0.00000000000E+00  0.00000000000E+00  0.89731226667E+02  0.89731226667E+02  0.00000000000E+00 0. -1.
         -1   -1    0    0    0  501 -0.00000000000E+00 -0.00000000000E+00 -0.25442118333E+03  0.25442118333E+03  0.00000000000E+00 0.  1.
         25    2    1    2    0    0 -0.53286155263E+02 -0.45488650069E+02 -0.17749952541E+03  0.22817169862E+03  0.12509041091E+03 0.  0.
          5    1    3    3  502    0  0.74832964160E+00  0.38456700710E+02 -0.78478986441E+02  0.87498008775E+02  0.41800000000E+01 0.  1.
         -5    1    3    3    0  502 -0.54034484905E+02 -0.83945350779E+02 -0.99020538970E+02  0.14067368984E+03  0.41800000000E+01 0.  1.
        -11    1    1    2    0    0  0.74632992249E+02  0.53965392175E+02  0.74849909570E+01  0.92403312572E+02  0.00000000000E+00 0.  1.
         11    1    1    2    0    0 -0.21346836986E+02 -0.84767421060E+01  0.53245777874E+01  0.23577398810E+02  0.00000000000E+00 0. -1.
</event>
<event>
 7    1  0.2820496E-009  0.9914777E+02  0.7561462E-02  0.1282098E+00
          4   -1    0    0  501    0  0.00000000000E+00  0.00000000000E+00  0.34508259591E+03  0.34508259591E+03  0.00000000000E+00 0. -1.
         -4   -1    0    0    0  501 -0.00000000000E+00 -0.00000000000E+00 -0.40823006959E+02  0.40823006959E+02  0.00000000000E+00 0.  1.
         25    2    1    2    0    0 -0.17706039476E+02  0.71104618219E+00  0.10036796079E+03  0.16135651292E+03  0.12509271476E+03 0.  0.
          5    1    3    3  502    0 -0.61000628430E+02 -0.18746249935E+02  0.18403790103E+02  0.66548256518E+02  0.41800000000E+01 0. -1.
         -5    1    3    3    0  502  0.43294588954E+02  0.19457296117E+02  0.81964170690E+02  0.94808256401E+02  0.41800000000E+01 0. -1.
        -11    1    1    2    0    0 -0.31971437667E+02  0.13972053222E+02  0.42167114334E+02  0.54730764922E+02  0.00000000000E+00 0.  1.
         11    1    1    2    0    0  0.49677477143E+02 -0.14683099404E+02  0.16172451383E+03  0.16981832503E+03  0.00000000000E+00 0. -1.
</event>
<event>
 7    1  0.2820496E-009  0.9495445E+02  0.7561462E-02  0.1291279E+00
          2   -1    0    0  501    0  0.00000000000E+00  0.00000000000E+00  0.49133862226E+03  0.49133862226E+03  0.00000000000E+00 0. -1.
         -2   -1    0    0    0  501 -0.00000000000E+00 -0.00000000000E+00 -0.24104709031E+02  0.24104709031E+02  0.00000000000E+00 0.  1.
         25    2    1    2    0    0  0.24982620037E+02 -0.64315854990E+01  0.28197289126E+03  0.30955094185E+03  0.12509027779E+03 0.  0.
          5    1    3    3  502    0  0.43806777995E+02  0.35862802028E+02  0.59354825388E+02  0.82131857793E+02  0.41800000000E+01 0. -1.
         -5    1    3    3    0  502 -0.18824157958E+02 -0.42294387527E+02  0.22261806587E+03  0.22741908406E+03  0.41800000000E+01 0. -1.
        -11    1    1    2    0    0 -0.50787698234E+02  0.23249362660E+02  0.91499365223E+02  0.10720101209E+03  0.00000000000E+00 0.  1.
         11    1    1    2    0    0  0.25805078197E+02 -0.16817777161E+02  0.93761656747E+02  0.98691377361E+02  0.00000000000E+00 0. -1.
</event>
<event>
 7    1  0.2820496E-009  0.8354672E+02  0.7561462E-02  0.1319277E+00
         -1   -1    0    0    0  501 -0.00000000000E+00  0.00000000000E+00  0.31360070648E+03  0.31360070648E+03  0.00000000000E+00 0.  1.
          1   -1    0    0  501    0  0.00000000000E+00 -0.00000000000E+00 -0.51470225614E+02  0.51470225614E+02  0.00000000000E+00 0. -1.
         25    2    1    2    0    0 -0.90461865898E+00  0.41107702444E+02  0.21835797177E+03  0.25498764119E+03  0.12509129382E+03 0.  0.
          5    1    3    3  502    0 -0.51080739725E+02  0.48933320617E+02  0.17230029562E+03  0.18630237816E+03  0.41800000000E+01 0.  1.
         -5    1    3    3    0  502  0.50176121066E+02 -0.78256181731E+01  0.46057676151E+02  0.68685263029E+02  0.41800000000E+01 0.  1.
        -11    1    1    2    0    0  0.88872541757E+01 -0.31791081340E+02 -0.24252068411E+02  0.40961188481E+02  0.00000000000E+00 0. -1.
         11    1    1    2    0    0 -0.79826355167E+01 -0.93166211044E+01  0.68024577503E+02  0.69122102421E+02  0.00000000000E+00 0.  1.
</event>
<event>
 7    1  0.2820496E-009  0.1289951E+03  0.7561462E-02  0.1228954E+00
          1   -1    0    0  501    0  0.00000000000E+00  0.00000000000E+00  0.47395870496E+02  0.47395870496E+02  0.00000000000E+00 0. -1.
         -1   -1    0    0    0  501 -0.00000000000E+00 -0.00000000000E+00 -0.41443579412E+03  0.41443579412E+03  0.00000000000E+00 0.  1.
         25    2    1    2    0    0  0.88487115439E+02  0.11305264055E+02 -0.21396921357E+03  0.26341600152E+03  0.12508951557E+03 0.  0.
          5    1    3    3  502    0  0.10380796878E+03  0.43156200393E+02 -0.12823457369E+03  0.17058760301E+03  0.41800000000E+01 0. -1.
         -5    1    3    3    0  502 -0.15320853338E+02 -0.31850936338E+02 -0.85734639888E+02  0.92828398507E+02  0.41800000000E+01 0. -1.
        -11    1    1    2    0    0 -0.77748829269E+02  0.17036025195E+02 -0.14749394906E+03  0.16759943800E+03  0.00000000000E+00 0.  1.
         11    1    1    2    0    0 -0.10738286170E+02 -0.28341289250E+02 -0.55767609898E+01  0.30816225099E+02  0.00000000000E+00 0. -1.
</event>
<event>
 7    1  0.2820496E-009  0.9729114E+02  0.7561462E-02  0.1286098E+00
          3   -1    0    0  501    0  0.00000000000E+00  0.00000000000E+00  0.92766585657E+02  0.92766585657E+02  0.00000000000E+00 0. -1.
         -3   -1    0    0    0  501 -0.00000000000E+00 -0.00000000000E+00 -0.20093528680E+03  0.20093528680E+03  0.00000000000E+00 0.  1.
         25    2    1    2    0    0  0.42466084211E+02  0.29078689001E+02  0.10850464790E+02  0.13570136138E+03  0.12509271934E+03 0.  0.
          5    1    3    3  502    0 -0.12494910053E+02  0.63309162961E+02  0.24934823988E+02  0.69306498536E+02  0.41800000000E+01 0.  1.
         -5    1    3    3    0  502  0.54960994263E+02 -0.34230473960E+02 -0.14084359198E+02  0.66394862843E+02  0.41800000000E+01 0.  1.
        -11    1    1    2    0    0  0.69882177830E+01 -0.96148420589E+01  0.11830030879E+02  0.16769913720E+02  0.00000000000E+00 0. -1.
         11    1    1    2    0    0 -0.49454301994E+02 -0.19463846942E+02 -0.13084919681E+03  0.14123059736E+03  0.00000000000E+00 0.  1.
</event>
<event>
 7    1  0.2820496E-009  0.1035699E+03  0.7561462E-02  0.1272963E+00
         -1   -1    0    0    0  501 -0.00000000000E+00  0.00000000000E+00  0.28492013546E+02  0.28492013546E+02  0.00000000000E+00 0.  1.
          1   -1    0    0  501    0  0.00000000000E+00 -0.00000000000E+00 -0.48983255985E+03  0.48983255985E+03  0.00000000000E+00 0. -1.
         25    2    1    2    0    0  0.49596655799E+01  0.46982523726E+02 -0.26908828909E+03  0.30047921061E+03  0.12508913968E+03 0.  0.
          5    1    3    3  502    0  0.16480982792E+02  0.83519617157E+02 -0.12476394293E+03  0.15109819026E+03  0.41800000000E+01 0.  1.
         -5    1    3    3    0  502 -0.11521317212E+02 -0.36537093431E+02 -0.14432434616E+03  0.14938102035E+03  0.41800000000E+01 0.  1.
        -11    1    1    2    0    0  0.22722612792E+02 -0.50584320615E+02 -0.17812770986E+03  0.18655983395E+03  0.00000000000E+00 0. -1.
         11    1    1    2    0    0 -0.27682278372E+02  0.36017968885E+01 -0.14124547361E+02  0.31285528840E+02  0.00000000000E+00 0.  1.
</event>
<event>
 7    1  0.2820496E-009  0.1009492E+03  0.7561462E-02  0.1278313E+00
         -1   -1    0    0    0  501 -0.00000000000E+00  0.00000000000E+00  0.33928157731E+02  0.33928157731E+02  0.00000000000E+00 0.  1.
          1   -1    0    0  501    0  0.00000000000E+00 -0.00000000000E+00 -0.36727604811E+03  0.36727604811E+03  0.00000000000E+00 0. -1.
         25    2    1    2    0    0  0.18105093532E+02 -0.26182385582E+02 -0.27652460261E+03  0.30516751683E+03  0.12509214905E+03 0.  0.
          5    1    3    3  502    0  0.17781718579E+02  0.49275651154E+02 -0.13198598992E+03  0.14206355355E+03  0.41800000000E+01 0.  1.
         -5    1    3    3    0  502  0.32337495253E+00 -0.75458036736E+02 -0.14453861269E+03  0.16310396328E+03  0.41800000000E+01 0.  1.
        -11    1    1    2    0    0 -0.27358697421E+02 -0.15247620649E+02 -0.10100500731E+02  0.32909092589E+02  0.00000000000E+00 0.  1.
         11    1    1    2    0    0  0.92536038891E+01  0.41430006231E+02 -0.46722787034E+02  0.63127596417E+02  0.00000000000E+00 0. -1.
</event>
<event>
 7    1  0.2820496E-009  0.1140594E+03  0.7561462E-02  0.1253232E+00
         -2   -1    0    0    0  501 -0.00000000000E+00  0.00000000000E+00  0.11693852729E+02  0.11693852729E+02  0.00000000000E+00 0.  1.
          2   -1    0    0  501    0  0.00000000000E+00 -0.00000000000E+00 -0.11419753356E+04  0.11419753356E+04  0.00000000000E+00 0. -1.
         25    2    1    2    0    0 -0.86074525408E+01  0.32533224543E+02 -0.64605516937E+03  0.65891305503E+03  0.12508650315E+03 0.  0.
          5    1    3    3  502    0 -0.65332866948E+02  0.23958361226E+02 -0.29135898403E+03  0.29958290430E+03  0.41800000000E+01 0.  1.
         -5    1    3    3    0  502  0.56725414407E+02  0.85748633166E+01 -0.35469618534E+03  0.35933015072E+03  0.41800000000E+01 0.  1.
        -11    1    1    2    0    0 -0.42108440815E+02 -0.26637953633E+02 -0.21132214699E+03  0.21711690669E+03  0.00000000000E+00 0.  1.
         11    1    1    2    0    0  0.50715893355E+02 -0.58952709101E+01 -0.27290416654E+03  0.27763922665E+03  0.00000000000E+00 0. -1.
</event>
<event>
 7    1  0.2820496E-009  0.1149749E+03  0.7561462E-02  0.1251625E+00
         -2   -1    0    0    0  501 -0.00000000000E+00  0.00000000000E+00  0.37196908505E+02  0.37196908505E+02  0.00000000000E+00 0. -1.
          2   -1    0    0  501    0  0.00000000000E+00 -0.00000000000E+00 -0.13085673086E+04  0.13085673086E+04  0.00000000000E+00 0.  1.
         25    2    1    2    0    0  0.68730824292E+01  0.90326220168E+02 -0.11741277679E+04  0.11842412826E+04  0.12508131322E+03 0.  0.
          5    1    3    3  502    0  0.13639805993E+02 -0.21546800048E+02 -0.51435244899E+03  0.51500118746E+03  0.41800000000E+01 0.  1.
         -5    1    3    3    0  502 -0.67667235633E+01  0.11187302022E+03 -0.65977531888E+03  0.66924009518E+03  0.41800000000E+01 0.  1.
        -11    1    1    2    0    0 -0.12017968706E+02 -0.66565639800E+02 -0.69306082941E+01  0.67995950652E+02  0.00000000000E+00 0. -1.
         11    1    1    2    0    0  0.51448862772E+01 -0.23760580368E+02 -0.90312023915E+02  0.93526983795E+02  0.00000000000E+00 0.  1.
</event>
<event>
 7    1  0.2820496E-009  0.1773429E+03  0.7561462E-02  0.1170400E+00
         -3   -1    0    0    0  501 -0.00000000000E+00  0.00000000000E+00  0.54688061961E+02  0.54688061961E+02  0.00000000000E+00 0.  1.
          3   -1    0    0  501    0  0.00000000000E+00 -0.00000000000E+00 -0.61514222776E+03  0.61514222776E+03  0.00000000000E+00 0. -1.
         25    2    1    2    0    0 -0.84070063553E+02 -0.11593782403E+03 -0.23057382406E+03  0.29886686002E+03  0.12509099507E+03 0.  0.
          5    1    3    3  502    0  0.25116869375E+02  0.34347446651E+01 -0.51169549874E+02  0.57257749104E+02  0.41800000000E+01 0.  1.
         -5    1    3    3    0  502 -0.10918693293E+03 -0.11937256869E+03 -0.17940427419E+03  0.24160911091E+03  0.41800000000E+01 0.  1.
        -11    1    1    2    0    0  0.21337096862E+02 -0.12138209337E+02 -0.28997790124E+02  0.37993152811E+02  0.00000000000E+00 0.  1.
         11    1    1    2    0    0  0.62732966690E+02  0.12807603336E+03 -0.30088255161E+03  0.33297027690E+03  0.00000000000E+00 0. -1.
</event>
<event>
 7    1  0.2820496E-009  0.2447167E+03  0.7561462E-02  0.1116690E+00
          3   -1    0    0  501    0  0.00000000000E+00  0.00000000000E+00  0.11231342555E+04  0.11231342555E+04  0.00000000000E+00 0. -1.
         -3   -1    0    0    0  501 -0.00000000000E+00 -0.00000000000E+00 -0.64194193201E+02  0.64194193201E+02  0.00000000000E+00 0.  1.
         25    2    1    2    0    0  0.31934738622E+01  0.22820758105E+03  0.74763919953E+03  0.79164408641E+03  0.12508832296E+03 0.  0.
          5    1    3    3  502    0 -0.50118102315E+02  0.62800495319E+02  0.16409868586E+03  0.18276098460E+03  0.41800000000E+01 0. -1.
         -5    1    3    3    0  502  0.53311576177E+02  0.16540708573E+03  0.58354051367E+03  0.60888310180E+03  0.41800000000E+01 0. -1.
        -11    1    1    2    0    0 -0.29286072722E+02 -0.14538141896E+03  0.24516089420E+03  0.28652625548E+03  0.00000000000E+00 0. -1.
         11    1    1    2    0    0  0.26092598860E+02 -0.82826162093E+02  0.66139968577E+02  0.10915810683E+03  0.00000000000E+00 0.  1.
</event>
<event>
 7    1  0.2820496E-009  0.9022056E+02  0.7561462E-02  0.1302318E+00
          1   -1    0    0  501    0  0.00000000000E+00  0.00000000000E+00  0.17970791037E+03  0.17970791037E+03  0.00000000000E+00 0. -1.
         -1   -1    0    0    0  501 -0.00000000000E+00 -0.00000000000E+00 -0.80631393026E+02  0.80631393026E+02  0.00000000000E+00 0.  1.
         25    2    1    2    0    0 -0.11588642583E+02  0.50327816130E+02  0.71740228853E+02  0.15317382924E+03  0.12509346831E+03 0.  0.
          5    1    3    3  502    0  0.34085341312E+02 -0.33207649656E+01 -0.18070820016E+02  0.38946949923E+02  0.41800000000E+01 0. -1.
         -5    1    3    3    0  502 -0.45673983895E+02  0.53648581096E+02  0.89811048869E+02  0.11422687931E+03  0.41800000000E+01 0. -1.
        -11    1    1    2    0    0  0.28442484598E+02 -0.51105246473E+02 -0.16020710080E+02  0.60641440440E+02  0.00000000000E+00 0.  1.
         11    1    1    2    0    0 -0.16853842015E+02  0.77743034263E+00  0.43356998572E+02  0.46524033722E+02  0.00000000000E+00 0. -1.
</event>
<event>
 7    1  0.2820496E-009  0.1055049E+03  0.7561462E-02  0.1269128E+00
         -1   -1    0    0    0  501 -0.00000000000E+00  0.00000000000E+00  0.47381106092E+02  0.47381106092E+02  0.00000000000E+00 0.  1.
          1   -1    0    0  501    0  0.00000000000E+00 -0.00000000000E+00 -0.33091899792E+03  0.33091899792E+03  0.00000000000E+00 0. -1.
         25    2    1    2    0    0  0.30491965159E+02  0.34427155256E+02 -0.88975892157E+02  0.16023637066E+03  0.12507596147E+03 0.  0.
          5    1    3    3  502    0  0.51352735424E+02 -0.20550592756E+02 -0.84547275231E+02  0.10111945632E+03  0.41800000000E+01 0.  1.
         -5    1    3    3    0  502 -0.20860770266E+02  0.54977748011E+02 -0.44286169258E+01  0.59116914334E+02  0.41800000000E+01 0.  1.
        -11    1    1    2    0    0  0.29310933985E+02 -0.42949482563E+01 -0.80751772298E+02  0.86014104430E+02  0.00000000000E+00 0. -1.
         11    1    1    2    0    0 -0.59802899143E+02 -0.30132206999E+02 -0.11381022737E+03  0.13204962892E+03  0.00000000000E+00 0.  1.
</event>
<event>
 7    1  0.2820496E-009  0.1118419E+03  0.7561462E-02  0.1257196E+00
          2   -1    0    0  501    0  0.00000000000E+00  0.00000000000E+00  0.50843254819E+03  0.50843254819E+03  0.00000000000E+00 0. -1.
         -2   -1    0    0    0  501 -0.00000000000E+00 -0.00000000000E+00 -0.28741746787E+02  0.28741746787E+02  0.00000000000E+00 0.  1.
         25    2    1    2    0    0 -0.41828024165E+02 -0.38448420188E+02  0.31307472395E+03  0.34189483964E+03  0.12509370077E+03 0.  0.
          5    1    3    3  502    0 -0.67862931566E+02  0.21981081958E+02  0.16391271316E+03  0.17881106056E+03  0.41800000000E+01 0. -1.
         -5    1    3    3    0  502  0.26034907401E+02 -0.60429502147E+02  0.14916201080E+03  0.16308377908E+03  0.41800000000E+01 0. -1.
        -11    1    1    2    0    0  0.17645003929E+02 -0.17803221545E+02  0.10672471830E+03  0.10962876611E+03  0.00000000000E+00 0. -1.
         11    1    1    2    0    0  0.24183020236E+02  0.56251641734E+02  0.59891359142E+02  0.85650689229E+02  0.00000000000E+00 0.  1.
</event>
<event>
 7    1  0.2932153E-009  0.1150872E+03  0.7561462E-02  0.1251429E+00
         -2   -1    0    0    0  501 -0.00000000000E+00  0.00000000000E+00  0.29437592561E+02  0.29437592561E+02  0.00000000000E+00 0.  1.
          2   -1    0    0  501    0  0.00000000000E+00 -0.00000000000E+00 -0.68393462848E+03  0.68393462848E+03  0.00000000000E+00 0. -1.
         25    2    1    2    0    0  0.90069557491E+02  0.34468188964E+00 -0.31902639425E+03  0.35431157873E+03  0.12508481363E+03 0.  0.
          5    1    3    3  502    0 -0.12413284614E+01  0.14757736100E+02 -0.21311477243E+03  0.21366962886E+03  0.41800000000E+01 0. -1.
         -5    1    3    3    0  502  0.91310885952E+02 -0.14413054210E+02 -0.10591162182E+03  0.14064194986E+03  0.41800000000E+01 0. -1.
        -11    1    1    2    0    0 -0.30168756289E+02  0.39946988882E+02 -0.87632908994E+02  0.10092295336E+03  0.00000000000E+00 0.  1.
         11    1    1    2    0    0 -0.59900801202E+02 -0.40291670771E+02 -0.24783773268E+03  0.25813768896E+03  0.00000000000E+00 0. -1.
</event>
<event>
 7    1  0.2820496E-009  0.1821145E+03  0.7561462E-02  0.1165772E+00
         -2   -1    0    0    0  501 -0.00000000000E+00  0.00000000000E+00  0.17518753668E+02  0.17518753668E+02  0.00000000000E+00 0.  1.
          2   -1    0    0  501    0  0.00000000000E+00 -0.00000000000E+00 -0.27594836244E+04  0.27594836244E+04  0.00000000000E+00 0. -1.
         25    2    1    2    0    0  0.15036802555E+03  0.54925367926E+02 -0.20558484871E+04  0.20658626802E+04  0.12509305507E+03 0.  0.
          5    1    3    3  502    0  0.10895941488E+03 -0.19307670572E+02 -0.88028213112E+03  0.88721983916E+03  0.41800000000E+01 0.  1.
         -5    1    3    3    0  502  0.41408610667E+02  0.74233038498E+02 -0.11755663559E+04  0.11786428410E+04  0.41800000000E+01 0.  1.
        -11    1    1    2    0    0 -0.12275803894E+03 -0.20823688945E+02 -0.61576005148E+03  0.62822257453E+03  0.00000000000E+00 0. -1.
         11    1    1    2    0    0 -0.27609986604E+02 -0.34101678981E+02 -0.70356332233E+02  0.82917123412E+02  0.00000000000E+00 0.  1.
</event>
<event>
 7    1  0.2820496E-009  0.1140203E+03  0.7561462E-02  0.1253301E+00
         -1   -1    0    0    0  501 -0.00000000000E+00  0.00000000000E+00  0.82906815378E+02  0.82906815378E+02  0.00000000000E+00 0.  1.
          1   -1    0    0  501    0  0.00000000000E+00 -0.00000000000E+00 -0.18955898358E+03  0.18955898358E+03  0.00000000000E+00 0. -1.
         25    2    1    2    0    0  0.59505618326E+02 -0.21087180069E+02 -0.51725851907E+02  0.14936262134E+03  0.12509213053E+03 0.  0.
          5    1    3    3  502    0  0.94170537949E+02 -0.24608761490E+02 -0.15008356196E+02  0.98571824145E+02  0.41800000000E+01 0. -1.
         -5    1    3    3    0  502 -0.34664919622E+02  0.35215814209E+01 -0.36717495710E+02  0.50790797192E+02  0.41800000000E+01 0. -1.
        -11    1    1    2    0    0 -0.54179179479E+02 -0.17219371568E+02 -0.11469000453E+01  0.56861284068E+02  0.00000000000E+00 0.  1.
         11    1    1    2    0    0 -0.53264388476E+01  0.38306551637E+02 -0.53779416245E+02  0.66241893548E+02  0.00000000000E+00 0. -1.
</event>
<event>
 7    1  0.2820496E-009  0.1168499E+03  0.7561462E-02  0.1248386E+00
         -2   -1    0    0    0  501 -0.00000000000E+00  0.00000000000E+00  0.54249894601E+02  0.54249894601E+02  0.00000000000E+00 0. -1.
          2   -1    0    0  501    0  0.00000000000E+00 -0.00000000000E+00 -0.33476925860E+03  0.33476925860E+03  0.00000000000E+00 0.  1.
         25    2    1    2    0    0 -0.87080332410E+02  0.42696988349E+01 -0.13187350091E+03  0.20159126286E+03  0.12508877808E+03 0.  0.
          5    1    3    3  502    0 -0.67404275220E+02  0.57070660019E+02 -0.10969144146E+03  0.14089031650E+03  0.41800000000E+01 0.  1.
         -5    1    3    3    0  502 -0.19676057190E+02 -0.52800961184E+02 -0.22182059446E+02  0.60700946366E+02  0.41800000000E+01 0.  1.
        -11    1    1    2    0    0  0.21097225793E+02  0.61552790613E+01 -0.10581857984E+03  0.10807660356E+03  0.00000000000E+00 0.  1.
         11    1    1    2    0    0  0.65983106617E+02 -0.10424977896E+02 -0.42827283247E+02  0.79351286778E+02  0.00000000000E+00 0. -1.
</event>
<event>
 7    1  0.2820496E-009  0.1143986E+03  0.7561462E-02  0.1252635E+00
         -2   -1    0    0    0  501 -0.00000000000E+00  0.00000000000E+00  0.47785070924E+02  0.47785070924E+02  0.00000000000E+00 0.  1.
          2   -1    0    0  501    0  0.00000000000E+00 -0.00000000000E+00 -0.43583391833E+03  0.43583391833E+03  0.00000000000E+00 0. -1.
         25    2    1    2    0    0 -0.32284877648E+02  0.53060227951E+02 -0.32740523835E+03  0.35594597645E+03  0.12508256047E+03 0.  0.
          5    1    3    3  502    0 -0.41309030603E+02 -0.29777129928E+02 -0.80700177100E+02  0.95514943649E+02  0.41800000000E+01 0.  1.
         -5    1    3    3    0  502  0.90241529555E+01  0.82837357879E+02 -0.24670506125E+03  0.26043103280E+03  0.41800000000E+01 0.  1.
        -11    1    1    2    0    0  0.40570769149E+02 -0.66841540466E+02 -0.15448167776E+02  0.79702099902E+02  0.00000000000E+00 0.  1.
         11    1    1    2    0    0 -0.82858915013E+01  0.13781312515E+02 -0.45195441282E+02  0.47970912908E+02  0.00000000000E+00 0. -1.
</event>
<event>
 7    1  0.2882400E-009  0.1059742E+03  0.7561462E-02  0.1268212E+00
          1   -1    0    0  501    0  0.00000000000E+00  0.00000000000E+00  0.10833248793E+04  0.10833248793E+04  0.00000000000E+00 0. -1.
         -1   -1    0    0    0  501 -0.00000000000E+00 -0.00000000000E+00 -0.15585521964E+02  0.15585521964E+02  0.00000000000E+00 0.  1.
         25    2    1    2    0    0  0.58999038855E+01  0.32823924360E+02  0.85697329250E+03  0.86669463735E+03  0.12507658240E+03 0.  0.
          5    1    3    3  502    0  0.58735789809E+02  0.13511837194E+02  0.25389546954E+03  0.26098437616E+03  0.41800000000E+01 0. -1.
         -5    1    3    3    0  502 -0.52835885924E+02  0.19312087166E+02  0.60307782297E+03  0.60571026119E+03  0.41800000000E+01 0. -1.
        -11    1    1    2    0    0  0.41414466263E+02 -0.10063099041E+02  0.69725766280E+02  0.81719682216E+02  0.00000000000E+00 0. -1.
         11    1    1    2    0    0 -0.47314370149E+02 -0.22760825319E+02  0.14104029858E+03  0.15049608173E+03  0.00000000000E+00 0.  1.
</event>
<event>
 7    1  0.2820496E-009  0.2696135E+03  0.7561462E-02  0.1101501E+00
          2   -1    0    0  501    0  0.00000000000E+00  0.00000000000E+00  0.49212691204E+03  0.49212691204E+03  0.00000000000E+00 0. -1.
         -2   -1    0    0    0  501 -0.00000000000E+00 -0.00000000000E+00 -0.15619641983E+03  0.15619641983E+03  0.00000000000E+00 0.  1.
         25    2    1    2    0    0  0.15540417036E+03  0.19569568986E+03  0.22279978416E+03  0.35740023786E+03  0.12509167441E+03 0.  0.
          5    1    3    3  502    0  0.37088004250E+01  0.80558866078E+02  0.29385621915E+02  0.85932958053E+02  0.41800000000E+01 0.  1.
         -5    1    3    3    0  502  0.15169536993E+03  0.11513682379E+03  0.19341416224E+03  0.27146727981E+03  0.41800000000E+01 0.  1.
        -11    1    1    2    0    0  0.91769427640E+00 -0.62808572394E+02  0.24441042376E+02  0.67402696396E+02  0.00000000000E+00 0. -1.
         11    1    1    2    0    0 -0.15632186463E+03 -0.13288711747E+03  0.88689665672E+02  0.22352039761E+03  0.00000000000E+00 0.  1.
</event>
<event>
 7    1  0.2820496E-009  0.1637877E+03  0.7561462E-02  0.1184486E+00
          2   -1    0    0  501    0  0.00000000000E+00  0.00000000000E+00  0.10818876094E+03  0.10818876094E+03  0.00000000000E+00 0. -1.
         -2   -1    0    0    0  501 -0.00000000000E+00 -0.00000000000E+00 -0.45815647189E+03  0.45815647189E+03  0.00000000000E+00 0.  1.
         25    2    1    2    0    0 -0.13734404447E+03  0.77034329879E+02 -0.32633405500E+03  0.38332526693E+03  0.12508665109E+03 0.  0.
          5    1    3    3  502    0 -0.39621043743E+02  0.37279092193E+02 -0.24234400490E+03  0.24841023918E+03  0.41800000000E+01 0.  1.
         -5    1    3    3    0  502 -0.97723000728E+02  0.39755237686E+02 -0.83990050106E+02  0.13491502775E+03  0.41800000000E+01 0.  1.
        -11    1    1    2    0    0  0.84401416630E+02 -0.14742081664E+02 -0.47357446998E+02  0.97896148480E+02  0.00000000000E+00 0.  1.
         11    1    1    2    0    0  0.52942627840E+02 -0.62292248215E+02  0.23723791050E+02  0.85123817420E+02  0.00000000000E+00 0. -1.
</event>
<event>
 7    1  0.2820496E-009  0.1992773E+03  0.7561462E-02  0.1150350E+00
          2   -1    0    0  501    0  0.00000000000E+00  0.00000000000E+00  0.75744911256E+03  0.75744911256E+03  0.00000000000E+00 0. -1.
         -2   -1    0    0    0  501 -0.00000000000E+00 -0.00000000000E+00 -0.61517849082E+02  0.61517849082E+02  0.00000000000E+00 0.  1.
         25    2    1    2    0    0  0.85099707930E+02  0.14839580224E+03  0.22216495299E+03  0.30703038729E+03  0.12508844061E+03 0.  0.
          5    1    3    3  502    0  0.10291847518E+03  0.68077771032E+02  0.96199246267E+02  0.15652016747E+03  0.41800000000E+01 0.  1.
         -5    1    3    3    0  502 -0.17818767246E+02  0.80318031205E+02  0.12596570672E+03  0.15051021983E+03  0.41800000000E+01 0.  1.
        -11    1    1    2    0    0  0.18533630437E+02 -0.30984869432E+02  0.11350970431E+03  0.11911343570E+03  0.00000000000E+00 0. -1.
         11    1    1    2    0    0 -0.10363333837E+03 -0.11741093281E+03  0.36025660618E+03  0.39282313865E+03  0.00000000000E+00 0.  1.
</event>
<event>
 7    1  0.2820496E-009  0.1473830E+03  0.7561462E-02  0.1203726E+00
          1   -1    0    0  501    0  0.00000000000E+00  0.00000000000E+00  0.16074415107E+03  0.16074415107E+03  0.00000000000E+00 0. -1.
         -1   -1    0    0    0  501 -0.00000000000E+00 -0.00000000000E+00 -0.14062736955E+03  0.14062736955E+03  0.00000000000E+00 0.  1.
         25    2    1    2    0    0  0.27469416581E+02  0.96744196286E+02 -0.37092712731E+01  0.16054862667E+03  0.12509234377E+03 0.  0.
          5    1    3    3  502    0 -0.47854726576E+02  0.19913897913E+02 -0.88561886581E+01  0.52749811975E+02  0.41800000000E+01 0. -1.
         -5    1    3    3    0  502  0.75324143158E+02  0.76830298373E+02  0.51469173850E+01  0.10779881469E+03  0.41800000000E+01 0. -1.
        -11    1    1    2    0    0  0.17572855723E+02  0.92951890501E+01  0.15692292533E+02  0.25326939070E+02  0.00000000000E+00 0. -1.
         11    1    1    2    0    0 -0.45042272304E+02 -0.10603938534E+03  0.81337602580E+01  0.11549595488E+03  0.00000000000E+00 0.  1.
</event>
<event>
 7    1  0.2820496E-009  0.9474795E+02  0.7561462E-02  0.1291745E+00
          2   -1    0    0  501    0  0.00000000000E+00  0.00000000000E+00  0.26097244602E+03  0.26097244602E+03  0.00000000000E+00 0. -1.
         -2   -1    0    0    0  501 -0.00000000000E+00 -0.00000000000E+00 -0.49550324688E+02  0.49550324688E+02  0.00000000000E+00 0.  1.
         25    2    1    2    0    0 -0.10593253512E+02  0.23975322806E+02  0.89052873937E+02  0.15581404377E+03  0.12514219414E+03 0.  0.
          5    1    3    3  502    0 -0.25785160388E+02  0.61185801384E+02  0.93938505737E+02  0.11511078163E+03  0.41800000000E+01 0.  1.
         -5    1    3    3    0  502  0.15191906875E+02 -0.37210478578E+02 -0.48856317999E+01  0.40703262137E+02  0.41800000000E+01 0.  1.
        -11    1    1    2    0    0 -0.30304482751E+02  0.71824921032E+01  0.12791471984E+02  0.33668555406E+02  0.00000000000E+00 0. -1.
         11    1    1    2    0    0  0.40897736263E+02 -0.31157814909E+02  0.10957777541E+03  0.12104017154E+03  0.00000000000E+00 0.  1.
</event>
<event>
 7    1  0.2820496E-009  0.9121645E+02  0.7561462E-02  0.1299932E+00
          1   -1    0    0  501    0  0.00000000000E+00  0.00000000000E+00  0.17487355783E+02  0.17487355783E+02  0.00000000000E+00 0. -1.
         -1   -1    0    0    0  501 -0.00000000000E+00 -0.00000000000E+00 -0.73555280712E+03  0.73555280712E+03  0.00000000000E+00 0.  1.
         25    2    1    2    0    0 -0.10730165424E+02 -0.15428013489E+02 -0.31851720524E+03  0.34271356660E+03  0.12508484580E+03 0.  0.
          5    1    3    3  502    0  0.29536462880E+02 -0.33405460713E+02 -0.28134587195E+03  0.28488822283E+03  0.41800000000E+01 0.  1.
         -5    1    3    3    0  502 -0.40266628304E+02  0.17977447225E+02 -0.37171333295E+02  0.57825343775E+02  0.41800000000E+01 0.  1.
        -11    1    1    2    0    0  0.82783311444E+01  0.54035678744E+02 -0.22564907354E+03  0.23217641941E+03  0.00000000000E+00 0. -1.
         11    1    1    2    0    0  0.24518342796E+01 -0.38607665256E+02 -0.17389917256E+03  0.17815017689E+03  0.00000000000E+00 0.  1.
</event>
<event>
 7    1  0.2820496E-009  0.9022037E+02  0.7561462E-02  0.1302319E+00
         -1   -1    0    0    0  501 -0.00000000000E+00  0.00000000000E+00  0.19065894413E+03  0.19065894413E+03  0.00000000000E+00 0.  1.
          1   -1    0    0  501    0  0.00000000000E+00 -0.00000000000E+00 -0.30855774502E+03  0.30855774502E+03  0.00000000000E+00 0. -1.
         25    2    1    2    0    0  0.37687013448E+01 -0.89785420968E+01 -0.28365630484E+03  0.31016905245E+03  0.12509646075E+03 0.  0.
          5    1    3    3  502    0  0.30978246205E+02 -0.47566583711E+02 -0.64843312111E+02  0.86280699750E+02  0.41800000000E+01 0.  1.
         -5    1    3    3    0  502 -0.27209544860E+02  0.38588041614E+02 -0.21881299273E+03  0.22388835270E+03  0.41800000000E+01 0.  1.
        -11    1    1    2    0    0  0.35217053276E+02  0.11518237584E+02  0.13299536727E+03  0.13806041559E+03  0.00000000000E+00 0.  1.
         11    1    1    2    0    0 -0.38985754621E+02 -0.25396954873E+01  0.32762136683E+02  0.50987221110E+02  0.00000000000E+00 0. -1.
</event>
<event>
 7    1  0.2820496E-009  0.1097129E+03  0.7561462E-02  0.1261102E+00
          1   -1    0    0  501    0  0.00000000000E+00  0.00000000000E+00  0.78235865522E+03  0.78235865522E+03  0.00000000000E+00 0.  1.
         -1   -1    0    0    0  501 -0.00000000000E+00 -0.00000000000E+00 -0.18272085339E+02  0.18272085339E+02  0.00000000000E+00 0. -1.
         25    2    1    2    0    0 -0.10370840435E+02  0.46728359862E+02  0.47580979174E+03  0.49430138813E+03  0.12509120850E+03 0.  0.
          5    1    3    3  502    0  0.30722063667E+01 -0.36657416431E+02  0.64340395167E+02  0.74231822567E+02  0.41800000000E+01 0. -1.
         -5    1    3    3    0  502 -0.13443046802E+02  0.83385776293E+02  0.41146939658E+03  0.42006956557E+03  0.41800000000E+01 0. -1.
        -11    1    1    2    0    0  0.35558334598E+02  0.90014357413E+01  0.16094892926E+03  0.16507567609E+03  0.00000000000E+00 0.  1.
         11    1    1    2    0    0 -0.25187494163E+02 -0.55729795603E+02  0.12732784888E+03  0.14125367634E+03  0.00000000000E+00 0. -1.
</event>
<event>
 7    1  0.2820496E-009  0.1433365E+03  0.7561462E-02  0.1208909E+00
         -1   -1    0    0    0  501 -0.00000000000E+00  0.00000000000E+00  0.27556299021E+02  0.27556299021E+02  0.00000000000E+00 0.  1.
          1   -1    0    0  501    0  0.00000000000E+00 -0.00000000000E+00 -0.10114600124E+04  0.10114600124E+04  0.00000000000E+00 0. -1.
         25    2    1    2    0    0  0.43878485472E+02 -0.11987091712E+03 -0.53719504713E+03  0.56614589647E+03  0.12509316194E+03 0.  0.
          5    1    3    3  502    0  0.39979044695E+02 -0.13604060926E+03 -0.52792334331E+03  0.54664970520E+03  0.41800000000E+01 0. -1.
         -5    1    3    3    0  502  0.38994407770E+01  0.16169692136E+02 -0.92717038192E+01  0.19496191266E+02  0.41800000000E+01 0. -1.
        -11    1    1    2    0    0 -0.21379748088E+02  0.61549118054E+02 -0.92239156282E+02  0.11293117157E+03  0.00000000000E+00 0.  1.
         11    1    1    2    0    0 -0.22498737385E+02  0.58321799068E+02 -0.35446950999E+03  0.35993924341E+03  0.00000000000E+00 0. -1.
</event>
<event>
 6    1  0.2820496E-009  0.1136472E+03  0.7561462E-02  0.1253961E+00
          2   -1    0    0  501    0  0.00000000000E+00  0.00000000000E+00  0.71251634266E+03  0.71251634266E+03  0.00000000000E+00 0.  1.
         -2   -1    0    0    0  501 -0.00000000000E+00 -0.00000000000E+00 -0.43784984174E+02  0.43784984174E+02  0.00000000000E+00 0. -1.
          5    1    1    2  502    0 -0.15988593466E+02 -0.83287019701E+02  0.10340126987E+03  0.13379707688E+03  0.41800000000E+01 0. -1.
         -5    1    1    2    0  502  0.37675015243E+02  0.11885952716E+02 -0.75630029837E+01  0.40439511121E+02  0.41800000000E+01 0. -1.
        -11    1    1    2    0    0 -0.43921580860E+02  0.23421230045E+02  0.29864484459E+03  0.30276459912E+03  0.00000000000E+00 0. -1.
         11    1    1    2    0    0  0.22235159083E+02  0.47979836940E+02  0.27424824701E+03  0.27930013971E+03  0.00000000000E+00 0.  1.
</event>
<event>
 7    1  0.2820496E-009  0.1233506E+03  0.7561462E-02  0.1237670E+00
         -1   -1    0    0    0  501 -0.00000000000E+00  0.00000000000E+00  0.22075477562E+02  0.22075477562E+02  0.00000000000E+00 0.  1.
          1   -1    0    0  501    0  0.00000000000E+00 -0.00000000000E+00 -0.99830573446E+03  0.99830573446E+03  0.00000000000E+00 0. -1.
         25    2    1    2    0    0 -0.19370792570E+01  0.90439244702E+02 -0.68789757385E+03  0.70500634858E+03  0.12509144724E+03 0.  0.
          5    1    3    3  502    0  0.37409838776E+02  0.47180129447E+02 -0.12234213387E+03  0.13642041919E+03  0.41800000000E+01 0. -1.
         -5    1    3    3    0  502 -0.39346918033E+02  0.43259115255E+02 -0.56555543998E+03  0.56858592939E+03  0.41800000000E+01 0. -1.
        -11    1    1    2    0    0 -0.33591784046E+02 -0.34682434548E+01 -0.72287297270E+02  0.79786527776E+02  0.00000000000E+00 0.  1.
         11    1    1    2    0    0  0.35528863303E+02 -0.86971001247E+02 -0.21604538577E+03  0.23558833566E+03  0.00000000000E+00 0. -1.
</event>
<event>
 7    1  0.2820496E-009  0.1189219E+03  0.7561462E-02  0.1244886E+00
          1   -1    0    0  501    0  0.00000000000E+00  0.00000000000E+00  0.51486585098E+03  0.51486585098E+03  0.00000000000E+00 0. -1.
         -1   -1    0    0    0  501 -0.00000000000E+00 -0.00000000000E+00 -0.43712883360E+02  0.43712883360E+02  0.00000000000E+00 0.  1.
         25    2    1    2    0    0 -0.38814371355E+02  0.85023527260E+02  0.37533126250E+03  0.40651680773E+03  0.12508718059E+03 0.  0.
          5    1    3    3  502    0  0.25575656614E+02  0.13842195825E+02  0.23269053008E+03  0.23453800499E+03  0.41800000000E+01 0.  1.
         -5    1    3    3    0  502 -0.64390027969E+02  0.71181331435E+02  0.14264073241E+03  0.17197880273E+03  0.41800000000E+01 0.  1.
        -11    1    1    2    0    0 -0.84335422559E+01 -0.56653872651E+02  0.25447527773E+02  0.62676651084E+02  0.00000000000E+00 0.  1.
         11    1    1    2    0    0  0.47247913611E+02 -0.28369654609E+02  0.70374177354E+02  0.89385275529E+02  0.00000000000E+00 0. -1.
</event>
<event>
 7    1  0.2820496E-009  0.1290713E+03  0.7561462E-02  0.1228840E+00
          1   -1    0    0  501    0  0.00000000000E+00  0.00000000000E+00  0.37685767726E+03  0.37685767726E+03  0.00000000000E+00 0. -1.
         -1   -1    0    0    0  501 -0.00000000000E+00 -0.00000000000E+00 -0.13164197728E+03  0.13164197728E+03  0.00000000000E+00 0.  1.
         25    2    1    2    0    0  0.10159403337E+03 -0.62562052881E+02  0.30237550819E+03  0.34830237650E+03  0.12509292323E+03 0.  0.
          5    1    3    3  502    0  0.83370697809E+02 -0.45642012833E+02  0.79435555962E+02  0.12394089938E+03  0.41800000000E+01 0.  1.
         -5    1    3    3    0  502  0.18223335565E+02 -0.16920040049E+02  0.22293995223E+03  0.22436147711E+03  0.41800000000E+01 0.  1.
        -11    1    1    2    0    0 -0.74797306530E+02  0.58039227136E+01  0.41671342289E+00  0.75023304600E+02  0.00000000000E+00 0. -1.
         11    1    1    2    0    0 -0.26796726845E+02  0.56758130168E+02 -0.57576521627E+02  0.85173973445E+02  0.00000000000E+00 0.  1.
</event>
<event>
 7    1  0.2820496E-009  0.9881892E+02  0.7561462E-02  0.1282799E+00
          1   -1    0    0  501    0  0.00000000000E+00  0.00000000000E+00  0.12595684268E+04  0.12595684268E+04  0.00000000000E+00 0. -1.
         -1   -1    0    0    0  501 -0.00000000000E+00 -0.00000000000E+00 -0.20814988978E+02  0.20814988978E+02  0.00000000000E+00 0.  1.
         25    2    1    2    0    0  0.66806639234E+02  0.53507035513E+02  0.98994893756E+03  0.10014852527E+04  0.12509069733E+03 0.  0.
          5    1    3    3  502    0  0.30537098034E+02  0.53433657199E+02  0.17208768555E+03  0.18280950193E+03  0.41800000000E+01 0.  1.
         -5    1    3    3    0  502  0.36269541200E+02  0.73378313309E-01  0.81786125201E+03  0.81867575079E+03  0.41800000000E+01 0.  1.
        -11    1    1    2    0    0 -0.24158474338E+02  0.72392637315E+01  0.73142274651E+01  0.26259031686E+02  0.00000000000E+00 0.  1.
         11    1    1    2    0    0 -0.42648164896E+02 -0.60746299244E+02  0.24149027277E+03  0.25263913134E+03  0.00000000000E+00 0. -1.
</event>
<event>
 7    1  0.2820496E-009  0.2726538E+03  0.7561462E-02  0.1099770E+00
         -2   -1    0    0    0  501 -0.00000000000E+00  0.00000000000E+00  0.36061487967E+02  0.36061487967E+02  0.00000000000E+00 0. -1.
          2   -1    0    0  501    0  0.00000000000E+00 -0.00000000000E+00 -0.26005994305E+04  0.26005994305E+04  0.00000000000E+00 0.  1.
         25    2    1    2    0    0  0.44407324100E+02  0.25489921744E+03 -0.18302042910E+04  0.18526310529E+04  0.12509376389E+03 0.  0.
          5    1    3    3  502    0  0.82514255576E+02  0.11755753026E+03 -0.10000440196E+04  0.10103137576E+04  0.41800000000E+01 0. -1.
         -5    1    3    3    0  502 -0.38106931475E+02  0.13734168717E+03 -0.83016027142E+03  0.84231729527E+03  0.41800000000E+01 0. -1.
        -11    1    1    2    0    0 -0.81544458048E+01 -0.79867369829E+02 -0.36487908541E+03  0.37360679694E+03  0.00000000000E+00 0.  1.
         11    1    1    2    0    0 -0.36252878295E+02 -0.17503184761E+03 -0.36945456612E+03  0.41042306866E+03  0.00000000000E+00 0. -1.
</event>
<event>
 7    1  0.2820496E-009  0.1323326E+03  0.7561462E-02  0.1224035E+00
          1   -1    0    0  501    0  0.00000000000E+00  0.00000000000E+00  0.93142803250E+03  0.93142803250E+03  0.00000000000E+00 0. -1.
         -1   -1    0    0    0  501 -0.00000000000E+00 -0.00000000000E+00 -0.32433247429E+02  0.32433247429E+02  0.00000000000E+00 0.  1.
         25    2    1    2    0    0 -0.11735304171E+03 -0.12916308805E+01  0.28844814643E+03  0.33559815156E+03  0.12510148456E+03 0.  0.
          5    1    3    3  502    0 -0.10377721959E+03  0.11417062224E+02  0.95014689397E+02  0.14122791585E+03  0.41800000000E+01 0.  1.
         -5    1    3    3    0  502 -0.13575822121E+02 -0.12708693105E+02  0.19343345704E+03  0.19437023570E+03  0.41800000000E+01 0.  1.
        -11    1    1    2    0    0 -0.53967365670E+01  0.16564939743E+02  0.30061666807E+02  0.34745155137E+02  0.00000000000E+00 0.  1.
         11    1    1    2    0    0  0.12274977828E+03 -0.15273308863E+02  0.58048497183E+03  0.59351797323E+03  0.00000000000E+00 0. -1.
</event>
<event>
 7    1  0.2820496E-009  0.1030385E+03  0.7561462E-02  0.1274033E+00
         -2   -1    0    0    0  501 -0.00000000000E+00  0.00000000000E+00  0.24135436448E+02  0.24135436448E+02  0.00000000000E+00 0.  1.
          2   -1    0    0  501    0  0.00000000000E+00 -0.00000000000E+00 -0.67059717748E+03  0.67059717748E+03  0.00000000000E+00 0. -1.
         25    2    1    2    0    0 -0.66365384096E+01 -0.24590016072E+02 -0.52553747459E+03  0.54081896122E+03  0.12508716594E+03 0.  0.
          5    1    3    3  502    0 -0.59653677201E+02  0.55106861332E+01 -0.17557653080E+03  0.18556271024E+03  0.41800000000E+01 0. -1.
         -5    1    3    3    0  502  0.53017138791E+02 -0.30100702205E+02 -0.34996094380E+03  0.35525625098E+03  0.41800000000E+01 0. -1.
        -11    1    1    2    0    0  0.24775137480E+01  0.54580568671E+02 -0.10791826695E+03  0.12096085686E+03  0.00000000000E+00 0. -1.
         11    1    1    2    0    0  0.41590246616E+01 -0.29990552600E+02 -0.13005999491E+02  0.32952795847E+02  0.00000000000E+00 0.  1.
</event>
<event>
 7    1  0.2820496E-009  0.1011421E+03  0.7561462E-02  0.1277913E+00
         -1   -1    0    0    0  501 -0.00000000000E+00  0.00000000000E+00  0.71749547441E+02  0.71749547441E+02  0.00000000000E+00 0.  1.
          1   -1    0    0  501    0  0.00000000000E+00 -0.00000000000E+00 -0.26837169703E+03  0.26837169703E+03  0.00000000000E+00 0. -1.
         25    2    1    2    0    0 -0.64092551933E+02  0.62262743114E+02 -0.88518558183E+02  0.17739105222E+03  0.12509015098E+03 0.  0.
          5    1    3    3  502    0 -0.64044555408E+02  0.47104257805E+02  0.76197472342E+01  0.79975303242E+02  0.41800000000E+01 0.  1.
         -5    1    3    3    0  502 -0.47996525610E-01  0.15158485309E+02 -0.96138305418E+02  0.97415748979E+02  0.41800000000E+01 0.  1.
        -11    1    1    2    0    0  0.27406327912E+02  0.72496852467E+01  0.87717233072E+00  0.28362548847E+02  0.00000000000E+00 0.  1.
         11    1    1    2    0    0  0.36686224022E+02 -0.69512428361E+02 -0.10898076374E+03  0.13436764341E+03  0.00000000000E+00 0. -1.
</event>
<event>
 7    1  0.2820496E-009  0.1473439E+03  0.7561462E-02  0.1203775E+00
          1   -1    0    0  501    0  0.00000000000E+00  0.00000000000E+00  0.62982472322E+02  0.62982472322E+02  0.00000000000E+00 0. -1.
         -1   -1    0    0    0  501 -0.00000000000E+00 -0.00000000000E+00 -0.36863598872E+03  0.36863598872E+03  0.00000000000E+00 0.  1.
         25    2    1    2    0    0  0.34492648886E+02  0.90385666834E+02 -0.21064666568E+03  0.26339867771E+03  0.12509010378E+03 0.  0.
          5    1    3    3  502    0  0.79406380557E+02  0.39876803529E+02 -0.13703849308E+03  0.16337855955E+03  0.41800000000E+01 0.  1.
         -5    1    3    3    0  502 -0.44913731672E+02  0.50508863305E+02 -0.73608172592E+02  0.10002011816E+03  0.41800000000E+01 0.  1.
        -11    1    1    2    0    0  0.31607334102E+02 -0.53975943382E+02 -0.52134196028E+02  0.81427270791E+02  0.00000000000E+00 0. -1.
         11    1    1    2    0    0 -0.66099982988E+02 -0.36409723452E+02 -0.42872654697E+02  0.86792512543E+02  0.00000000000E+00 0.  1.
</event>
<event>
 7    1  0.2820496E-009  0.1138865E+03  0.7561462E-02  0.1253537E+00
         -1   -1    0    0    0  501 -0.00000000000E+00  0.00000000000E+00  0.27313088736E+03  0.27313088736E+03  0.00000000000E+00 0.  1.
          1   -1    0    0  501    0  0.00000000000E+00 -0.00000000000E+00 -0.83239367208E+02  0.83239367208E+02  0.00000000000E+00 0. -1.
         25    2    1    2    0    0  0.41596832216E+02  0.15727839639E+02  0.21267839443E+03  0.25071382722E+03  0.12509061641E+03 0.  0.
          5    1    3    3  502    0 -0.36006554955E+02 -0.17879748193E+02  0.33348835935E+02  0.52400139823E+02  0.41800000000E+01 0. -1.
         -5    1    3    3    0  502  0.77603387171E+02  0.33607587832E+02  0.17932955849E+03  0.19831368740E+03  0.41800000000E+01 0. -1.
        -11    1    1    2    0    0  0.13034594420E+02 -0.40611451297E+02 -0.44324954317E+01  0.42881670256E+02  0.00000000000E+00 0. -1.
         11    1    1    2    0    0 -0.54631426636E+02  0.24883611659E+02 -0.18354378843E+02  0.62774757094E+02  0.00000000000E+00 0.  1.
</event>
<event>
 7    1  0.2820496E-009  0.1046045E+03  0.7561462E-02  0.1270901E+00
          1   -1    0    0  501    0  0.00000000000E+00  0.00000000000E+00  0.12584273458E+04  0.12584273458E+04  0.00000000000E+00 0. -1.
         -1   -1    0    0    0  501 -0.00000000000E+00 -0.00000000000E+00 -0.13764288207E+02  0.13764288207E+02  0.00000000000E+00 0.  1.
         25    2    1    2    0    0 -0.55945547878E+02  0.18664777288E+02  0.93059228995E+03  0.94081288006E+03  0.12509431219E+03 0.  0.
          5    1    3    3  502    0 -0.76496033223E+02  0.42464492760E+02  0.84506903275E+03  0.84959638580E+03  0.41800000000E+01 0.  1.
         -5    1    3    3    0  502  0.20550485344E+02 -0.23799715472E+02  0.85523257199E+02  0.91216494267E+02  0.41800000000E+01 0.  1.
        -11    1    1    2    0    0  0.47444374185E+02 -0.43054311044E+02  0.28659537896E+03  0.29366912262E+03  0.00000000000E+00 0. -1.
         11    1    1    2    0    0  0.85011736937E+01  0.24389533757E+02  0.27475388686E+02  0.37709631323E+02  0.00000000000E+00 0.  1.
</event>
<event>
 7    1  0.2820496E-009  0.9517183E+02  0.7561462E-02  0.1290790E+00
         -3   -1    0    0    0  501 -0.00000000000E+00  0.00000000000E+00  0.51429565300E+03  0.51429565300E+03  0.00000000000E+00 0.  1.
          3   -1    0    0  501    0  0.00000000000E+00 -0.00000000000E+00 -0.44268569923E+02  0.44268569923E+02  0.00000000000E+00 0. -1.
         25    2    1    2    0    0  0.52037832927E+02  0.23025179628E+02  0.41793228442E+03  0.43994686233E+03  0.12509097636E+03 0.  0.
          5    1    3    3  502    0 -0.12280231920E+02  0.47585703561E+02  0.29404405992E+03  0.29815194927E+03  0.41800000000E+01 0.  1.
         -5    1    3    3    0  502  0.64318064846E+02 -0.24560523932E+02  0.12388822450E+03  0.14179491306E+03  0.41800000000E+01 0.  1.
        -11    1    1    2    0    0 -0.24244729799E+02 -0.34342169649E+02 -0.15385767799E+02  0.44765091198E+02  0.00000000000E+00 0. -1.
         11    1    1    2    0    0 -0.27793103128E+02  0.11316990021E+02  0.67480566459E+02  0.73852269391E+02  0.00000000000E+00 0.  1.
</event>
<event>
 7    1  0.2820496E-009  0.1144598E+03  0.7561462E-02  0.1252527E+00
         -2   -1    0    0    0  501 -0.00000000000E+00  0.00000000000E+00  0.13193505864E+04  0.13193505864E+04  0.00000000000E+00 0. -1.
          2   -1    0    0  501    0  0.00000000000E+00 -0.00000000000E+00 -0.12391023488E+02  0.12391023488E+02  0.00000000000E+00 0.  1.
         25    2    1    2    0    0 -0.51510684912E+02  0.19105805358E+02  0.93898679247E+03  0.94887433214E+03  0.12509164362E+03 0.  0.
          5    1    3    3  502    0 -0.37127596853E+02 -0.51676252467E+02  0.39935403514E+03  0.40441316904E+03  0.41800000000E+01 0.  1.
         -5    1    3    3    0  502 -0.14383088059E+02  0.70782057825E+02  0.53963275734E+03  0.54446116310E+03  0.41800000000E+01 0.  1.
        -11    1    1    2    0    0 -0.84507265152E+01 -0.30603048549E+02  0.51048981372E+02  0.60116219594E+02  0.00000000000E+00 0.  1.
         11    1    1    2    0    0  0.59961411428E+02  0.11497243191E+02  0.31692378909E+03  0.32275105817E+03  0.00000000000E+00 0. -1.
</event>
<event>
 7    1  0.2820496E-009  0.1203396E+03  0.7561462E-02  0.1242538E+00
         -2   -1    0    0    0  501 -0.00000000000E+00  0.00000000000E+00  0.15639917495E+03  0.15639917495E+03  0.00000000000E+00 0.  1.
          2   -1    0    0  501    0  0.00000000000E+00 -0.00000000000E+00 -0.10263888706E+03  0.10263888706E+03  0.00000000000E+00 0. -1.
         25    2    1    2    0    0  0.51925616870E+01  0.60211028247E+02  0.56380397492E+01  0.13903748779E+03  0.12508918778E+03 0.  0.
          5    1    3    3  502    0 -0.14033884542E+02 -0.36622639312E+02 -0.45412018640E+01  0.39702172987E+02  0.41800000000E+01 0.  1.
         -5    1    3    3    0  502  0.19226446229E+02  0.96833667558E+02  0.10179241613E+02  0.99335314804E+02  0.41800000000E+01 0.  1.
        -11    1    1    2    0    0 -0.59868418196E+01  0.20680523477E+02 -0.63833681685E+01  0.22456039621E+02  0.00000000000E+00 0. -1.
         11    1    1    2    0    0  0.79428013260E+00 -0.80891551724E+02  0.54505616312E+02  0.97544534603E+02  0.00000000000E+00 0.  1.
</event>
<event>
 7    1  0.2820496E-009  0.8481559E+02  0.7561462E-02  0.1315915E+00
         -2   -1    0    0    0  501 -0.00000000000E+00  0.00000000000E+00  0.20721648640E+02  0.20721648640E+02  0.00000000000E+00 0.  1.
          2   -1    0    0  501    0  0.00000000000E+00 -0.00000000000E+00 -0.56867380871E+03  0.56867380871E+03  0.00000000000E+00 0. -1.
         25    2    1    2    0    0  0.97833941326E-01  0.55634313605E+01 -0.31527561864E+03  0.33923146725E+03  0.12509321054E+03 0.  0.
          5    1    3    3  502    0 -0.21417519459E+02  0.48023684440E+02 -0.61618285320E+02  0.81112698715E+02  0.41800000000E+01 0. -1.
         -5    1    3    3    0  502  0.21515353400E+02 -0.42460253080E+02 -0.25365733332E+03  0.25811876853E+03  0.41800000000E+01 0. -1.
        -11    1    1    2    0    0 -0.34291306456E+02  0.88416177678E+00 -0.33417186227E+02  0.47889286650E+02  0.00000000000E+00 0.  1.
         11    1    1    2    0    0  0.34193472515E+02 -0.64475931373E+01 -0.19925935520E+03  0.20227470345E+03  0.00000000000E+00 0. -1.
</event>
<event>
 7    1  0.2820496E-009  0.1080126E+03  0.7561462E-02  0.1264295E+00
         -1   -1    0    0    0  501 -0.00000000000E+00  0.00000000000E+00  0.11520867217E+04  0.11520867217E+04  0.00000000000E+00 0.  1.
          1   -1    0    0  501    0  0.00000000000E+00 -0.00000000000E+00 -0.10520392527E+02  0.10520392527E+02  0.00000000000E+00 0. -1.
         25    2    1    2    0    0  0.13487333847E+02  0.68041033836E+01  0.66797171678E+03  0.67975168001E+03  0.12509167861E+03 0.  0.
          5    1    3    3  502    0  0.37172689661E+02  0.55999208626E+02  0.28285575620E+03  0.29076205295E+03  0.41800000000E+01 0.  1.
         -5    1    3    3    0  502 -0.23685355814E+02 -0.49195105242E+02  0.38511596059E+03  0.38898962706E+03  0.41800000000E+01 0.  1.
        -11    1    1    2    0    0 -0.22252700306E+02 -0.47414131938E+02  0.24865106844E+03  0.25410752924E+03  0.00000000000E+00 0. -1.
         11    1    1    2    0    0  0.87653664592E+01  0.40610028555E+02  0.22494354393E+03  0.22874790496E+03  0.00000000000E+00 0.  1.
</event>
<event>
 7    1  0.2820496E-009  0.1374286E+03  0.7561462E-02  0.1216831E+00
          1   -1    0    0  501    0  0.00000000000E+00  0.00000000000E+00  0.91219753586E+02  0.91219753586E+02  0.00000000000E+00 0. -1.
         -1   -1    0    0    0  501 -0.00000000000E+00 -0.00000000000E+00 -0.21972390887E+03  0.21972390887E+03  0.00000000000E+00 0.  1.
         25    2    1    2    0    0 -0.75666676823E+02  0.45843505954E+02 -0.96206975610E+02  0.18091254945E+03  0.12508595193E+03 0.  0.
          5    1    3    3  502    0 -0.10548072054E+03  0.56165736261E+02 -0.86691374071E+02  0.14769441111E+03  0.41800000000E+01 0. -1.
         -5    1    3    3    0  502  0.29814043721E+02 -0.10322230307E+02 -0.95156015394E+01  0.33218138331E+02  0.41800000000E+01 0. -1.
        -11    1    1    2    0    0  0.86907842046E+02 -0.11923778356E+02 -0.10940613362E+02  0.88401620574E+02  0.00000000000E+00 0.  1.
         11    1    1    2    0    0 -0.11241165223E+02 -0.33919727598E+02 -0.21356566312E+02  0.41629492436E+02  0.00000000000E+00 0. -1.
</event>
<event>
 7    1  0.2820496E-009  0.8887546E+02  0.7561462E-02  0.1305598E+00
          2   -1    0    0  501    0  0.00000000000E+00  0.00000000000E+00  0.23024685110E+03  0.23024685110E+03  0.00000000000E+00 0. -1.
         -2   -1    0    0    0  501 -0.00000000000E+00 -0.00000000000E+00 -0.10632319905E+03  0.10632319905E+03  0.00000000000E+00 0.  1.
         25    2    1    2    0    0  0.60559820848E+02  0.74783251368E+01  0.16782127633E+03  0.21802488217E+03  0.12508977260E+03 0.  0.
          5    1    3    3  502    0  0.47199683572E+02  0.23141899133E+02  0.40250012145E+01  0.52886961149E+02  0.41800000000E+01 0. -1.
         -5    1    3    3    0  502  0.13360137276E+02 -0.15663573996E+02  0.16379627511E+03  0.16513792102E+03  0.41800000000E+01 0. -1.
        -11    1    1    2    0    0 -0.72545751840E+02  0.18959184264E+02 -0.12910310590E+02  0.76085563003E+02  0.00000000000E+00 0. -1.
         11    1    1    2    0    0  0.11985930992E+02 -0.26437509400E+02 -0.30987313684E+02  0.42459604972E+02  0.00000000000E+00 0.  1.
</event>
<event>
 7    1  0.2820496E-009  0.7180530E+02  0.7561462E-02  0.1354059E+00
         -1   -1    0    0    0  501 -0.00000000000E+00  0.00000000000E+00  0.94207914999E+02  0.94207914999E+02  0.00000000000E+00 0.  1.
          1   -1    0    0  501    0  0.00000000000E+00 -0.00000000000E+00 -0.14653122955E+03  0.14653122955E+03  0.00000000000E+00 0. -1.
         25    2    1    2    0    0  0.38385911243E+02 -0.25772914115E+02 -0.31004399140E+02  0.13693771805E+03  0.12511172837E+03 0.  0.
          5    1    3    3  502    0  0.38914297011E+02  0.14737371525E+02 -0.69359268870E+02  0.80991932990E+02  0.41800000000E+01 0.  1.
         -5    1    3    3    0  502 -0.52838576862E+00 -0.40510285640E+02  0.38354869730E+02  0.55945785061E+02  0.41800000000E+01 0.  1.
        -11    1    1    2    0    0  0.81560198046E+01  0.74361308594E+01  0.30102425846E+02  0.32062014020E+02  0.00000000000E+00 0.  1.
         11    1    1    2    0    0 -0.46541931047E+02  0.18336783256E+02 -0.51421341255E+02  0.71739412475E+02  0.00000000000E+00 0. -1.
</event>
<event>
 7    1  0.2820496E-009  0.1470941E+03  0.7561462E-02  0.1204090E+00
          2   -1    0    0  501    0  0.00000000000E+00  0.00000000000E+00  0.14212747952E+03  0.14212747952E+03  0.00000000000E+00 0. -1.
         -2   -1    0    0    0  501 -0.00000000000E+00 -0.00000000000E+00 -0.20190455452E+03  0.20190455452E+03  0.00000000000E+00 0.  1.
         25    2    1    2    0    0 -0.11410743047E+03 -0.14516449194E+02 -0.93173796479E+02  0.19380100811E+03  0.12508493678E+03 0.  0.
          5    1    3    3  502    0 -0.91882015788E+02  0.38287625514E+02 -0.21452044337E+02  0.10191128347E+03  0.41800000000E+01 0.  1.
         -5    1    3    3    0  502 -0.22225414678E+02 -0.52804074708E+02 -0.71721752142E+02  0.91889724636E+02  0.41800000000E+01 0.  1.
        -11    1    1    2    0    0  0.73636912940E+02  0.45135335509E+02 -0.51212561290E+01  0.86520637557E+02  0.00000000000E+00 0.  1.
         11    1    1    2    0    0  0.40470517525E+02 -0.30618886316E+02  0.38517977606E+02  0.63710388374E+02  0.00000000000E+00 0. -1.
</event>
<event>
 7    1  0.2820496E-009  0.8176486E+02  0.7561462E-02  0.1324116E+00
         -2   -1    0    0    0  501 -0.00000000000E+00  0.00000000000E+00  0.19475040365E+03  0.19475040365E+03  0.00000000000E+00 0.  1.
          2   -1    0    0  501    0  0.00000000000E+00 -0.00000000000E+00 -0.75703248021E+02  0.75703248021E+02  0.00000000000E+00 0. -1.
         25    2    1    2    0    0 -0.39475152012E+02 -0.76349315204E+01  0.10671975667E+03  0.16927421133E+03  0.12509225537E+03 0.  0.
          5    1    3    3  502    0 -0.61996000417E+02  0.14883713951E+02  0.67253844059E+01  0.64247429552E+02  0.41800000000E+01 0. -1.
         -5    1    3    3    0  502  0.22520848405E+02 -0.22518645472E+02  0.99994372260E+02  0.10502678178E+03  0.41800000000E+01 0. -1.
        -11    1    1    2    0    0 -0.10335135381E+02 -0.10283093498E+02  0.39193225434E+02  0.41817053401E+02  0.00000000000E+00 0.  1.
         11    1    1    2    0    0  0.49810287393E+02  0.17918025018E+02 -0.26865826474E+02  0.59362386937E+02  0.00000000000E+00 0. -1.
</event>
<event>
 7    1  0.2820496E-009  0.1817027E+03  0.7561462E-02  0.1166165E+00
         -1   -1    0    0    0  501 -0.00000000000E+00  0.00000000000E+00  0.60715302194E+02  0.60715302194E+02  0.00000000000E+00 0.  1.
          1   -1    0    0  501    0  0.00000000000E+00 -0.00000000000E+00 -0.57735167667E+03  0.57735167667E+03  0.00000000000E+00 0. -1.
         25    2    1    2    0    0  0.12134533710E+03 -0.92902339795E+02 -0.27058041386E+03  0.33498805805E+03  0.12509077941E+03 0.  0.
          5    1    3    3  502    0  0.18757018386E+02 -0.91443755238E+02 -0.14865659998E+03  0.17558486047E+03  0.41800000000E+01 0.  1.
         -5    1    3    3    0  502  0.10258831871E+03 -0.14585845576E+01 -0.12192381388E+03  0.15940319757E+03  0.41800000000E+01 0.  1.
        -11    1    1    2    0    0 -0.87256168276E+02  0.24143017372E+02 -0.82818890338E+02  0.12270082635E+03  0.00000000000E+00 0.  1.
         11    1    1    2    0    0 -0.34089168821E+02  0.68759322423E+02 -0.16323707028E+03  0.18037809447E+03  0.00000000000E+00 0. -1.
</event>
<event>
 7    1  0.2820496E-009  0.9004726E+02  0.7561462E-02  0.1302737E+00
         -3   -1    0    0    0  501 -0.00000000000E+00  0.00000000000E+00  0.35245135300E+03  0.35245135300E+03  0.00000000000E+00 0.  1.
          3   -1    0    0  501    0  0.00000000000E+00 -0.00000000000E+00 -0.87721927327E+02  0.87721927327E+02  0.00000000000E+00 0. -1.
         25    2    1    2    0    0 -0.39690305228E+02 -0.35148405917E+02  0.29918117666E+03  0.32858525175E+03  0.12509260743E+03 0.  0.
          5    1    3    3  502    0  0.38076699169E+02 -0.27974780632E+02  0.57360553563E+02  0.74432041998E+02  0.41800000000E+01 0. -1.
         -5    1    3    3    0  502 -0.77767004397E+02 -0.71736252848E+01  0.24182062310E+03  0.25415320975E+03  0.41800000000E+01 0. -1.
        -11    1    1    2    0    0  0.10771827512E+02  0.17574149570E+02  0.31393685534E+02  0.37555911552E+02  0.00000000000E+00 0.  1.
         11    1    1    2    0    0  0.28918477717E+02  0.17574256346E+02 -0.65845436525E+02  0.74032117021E+02  0.00000000000E+00 0. -1.
</event>
<event>
 7    1  0.2820496E-009  0.1727077E+03  0.7561462E-02  0.1175053E+00
          3   -1    0    0  501    0  0.00000000000E+00  0.00000000000E+00  0.85429171421E+02  0.85429171421E+02  0.00000000000E+00 0. -1.
         -3   -1    0    0    0  501 -0.00000000000E+00 -0.00000000000E+00 -0.41900271909E+03  0.41900271909E+03  0.00000000000E+00 0.  1.
         25    2    1    2    0    0 -0.62235477098E+02  0.14100796337E+03 -0.18681691535E+03  0.27258823264E+03  0.12508910572E+03 0.  0.
          5    1    3    3  502    0  0.23671750242E+02  0.71628553536E+02 -0.31234683125E+02  0.81756218548E+02  0.41800000000E+01 0.  1.
         -5    1    3    3    0  502 -0.85907227341E+02  0.69379409830E+02 -0.15558223223E+03  0.19083201409E+03  0.41800000000E+01 0.  1.
        -11    1    1    2    0    0 -0.34715009599E+01 -0.31194965222E+02  0.66343935109E+01  0.32081027904E+02  0.00000000000E+00 0. -1.
         11    1    1    2    0    0  0.65706978058E+02 -0.10981299814E+03 -0.15339102583E+03  0.19976262997E+03  0.00000000000E+00 0.  1.
</event>
<event>
 7    1  0.2820496E-009  0.1137054E+03  0.7561462E-02  0.1253858E+00
          4   -1    0    0  501    0  0.00000000000E+00  0.00000000000E+00  0.48858177139E+03  0.48858177139E+03  0.00000000000E+00 0. -1.
         -4   -1    0    0    0  501 -0.00000000000E+00 -0.00000000000E+00 -0.41468117629E+02  0.41468117629E+02  0.00000000000E+00 0.  1.
         25    2    1    2    0    0  0.48624560711E+02  0.74810586228E+02  0.16601328298E+03  0.22620605489E+03  0.12509115647E+03 0.  0.
          5    1    3    3  502    0 -0.18426956765E+02  0.18688836977E+02  0.12806907942E+03  0.13079750329E+03  0.41800000000E+01 0. -1.
         -5    1    3    3    0  502  0.67051517476E+02  0.56121749250E+02  0.37944203559E+02  0.95408551600E+02  0.41800000000E+01 0. -1.
        -11    1    1    2    0    0 -0.52052143658E+02 -0.16100034982E+02  0.16383928196E+03  0.17266136539E+03  0.00000000000E+00 0. -1.
         11    1    1    2    0    0  0.34275829478E+01 -0.58710551246E+02  0.11726108883E+03  0.13118246874E+03  0.00000000000E+00 0.  1.
</event>
<event>
 7    1  0.2820496E-009  0.1027613E+03  0.7561462E-02  0.1274594E+00
          2   -1    0    0  501    0  0.00000000000E+00  0.00000000000E+00  0.14093174654E+03  0.14093174654E+03  0.00000000000E+00 0. -1.
         -2   -1    0    0    0  501 -0.00000000000E+00 -0.00000000000E+00 -0.12312750845E+03  0.12312750845E+03  0.00000000000E+00 0.  1.
         25    2    1    2    0    0 -0.13690744122E+02 -0.44353510511E+02  0.69268542501E+02  0.15033133398E+03  0.12508680436E+03 0.  0.
          5    1    3    3  502    0  0.37158163546E+02  0.17067591316E+02 -0.48459586378E+01  0.41388253244E+02  0.41800000000E+01 0.  1.
         -5    1    3    3    0  502 -0.50848907668E+02 -0.61421101827E+02  0.74114501139E+02  0.10894308073E+03  0.41800000000E+01 0.  1.
        -11    1    1    2    0    0 -0.25418698333E+02 -0.25585237695E-01 -0.48192016951E+02  0.54484689384E+02  0.00000000000E+00 0.  1.
         11    1    1    2    0    0  0.39109442455E+02  0.44379095749E+02 -0.32722874679E+01  0.59243231629E+02  0.00000000000E+00 0. -1.
</event>
<event>
 7    1  0.2820496E-009  0.1572649E+03  0.7561462E-02  0.1191820E+00
          1   -1    0    0  501    0  0.00000000000E+00  0.00000000000E+00  0.10371018159E+04  0.10371018159E+04  0.00000000000E+00 0. -1.
         -1   -1    0    0    0  501 -0.00000000000E+00 -0.00000000000E+00 -0.35582825195E+02  0.35582825195E+02  0.00000000000E+00 0.  1.
         25    2    1    2    0    0  0.80942765595E+02  0.12045886374E+03  0.70388779748E+03  0.72949818266E+03  0.12508995922E+03 0.  0.
          5    1    3    3  502    0  0.74745568885E+01  0.63153356271E+02  0.10091498445E+03  0.11935460567E+03  0.41800000000E+01 0.  1.
         -5    1    3    3    0  502  0.73468208706E+02  0.57305507466E+02  0.60297281303E+03  0.61014357698E+03  0.41800000000E+01 0.  1.
        -11    1    1    2    0    0 -0.57427844379E+02 -0.31466911559E+02  0.19311954616E+03  0.20391979536E+03  0.00000000000E+00 0. -1.
         11    1    1    2    0    0 -0.23514921215E+02 -0.88991952178E+02  0.10451164707E+03  0.13926666308E+03  0.00000000000E+00 0.  1.
</event>
<event>
 7    1  0.2820496E-009  0.1866190E+03  0.7561462E-02  0.1161547E+00
          1   -1    0    0  501    0  0.00000000000E+00  0.00000000000E+00  0.14657253478E+03  0.14657253478E+03  0.00000000000E+00 0. -1.
         -1   -1    0    0    0  501 -0.00000000000E+00 -0.00000000000E+00 -0.28240673075E+03  0.28240673075E+03  0.00000000000E+00 0.  1.
         25    2    1    2    0    0  0.16372797525E+03 -0.45382006769E+02 -0.97148051444E+02  0.23227617744E+03  0.12509237502E+03 0.  0.
          5    1    3    3  502    0  0.78839621223E+02  0.34802604433E+02 -0.72867229919E+02  0.11293366525E+03  0.41800000000E+01 0.  1.
         -5    1    3    3    0  502  0.84888354032E+02 -0.80184611202E+02 -0.24280821525E+02  0.11934251220E+03  0.41800000000E+01 0.  1.
        -11    1    1    2    0    0 -0.13203638456E+03  0.40024698645E+02 -0.67446537288E+02  0.15357284506E+03  0.00000000000E+00 0.  1.
         11    1    1    2    0    0 -0.31691590695E+02  0.53573081243E+01  0.28760392759E+02  0.43130243018E+02  0.00000000000E+00 0. -1.
</event>
<event>
 7    1  0.2820496E-009  0.1709113E+03  0.7561462E-02  0.1176901E+00
          1   -1    0    0  501    0  0.00000000000E+00  0.00000000000E+00  0.16229501345E+03  0.16229501345E+03  0.00000000000E+00 0. -1.
         -1   -1    0    0    0  501 -0.00000000000E+00 -0.00000000000E+00 -0.37377197933E+03  0.37377197933E+03  0.00000000000E+00 0.  1.
         25    2    1    2    0    0 -0.12329325343E+03 -0.10297960505E+03 -0.26978002363E+03  0.33798548087E+03  0.12508756424E+03 0.  0.
          5    1    3    3  502    0 -0.56817870247E+02 -0.42890383613E+02 -0.22250266179E+02  0.74702089201E+02  0.41800000000E+01 0.  1.
         -5    1    3    3    0  502 -0.66475383185E+02 -0.60089221438E+02 -0.24752975746E+03  0.26328339167E+03  0.41800000000E+01 0.  1.
        -11    1    1    2    0    0  0.59260834209E+02 -0.32884193107E+00  0.47704828540E+02  0.76076969407E+02  0.00000000000E+00 0. -1.
         11    1    1    2    0    0  0.64032419224E+02  0.10330844698E+03  0.10598229215E+02  0.12200454251E+03  0.00000000000E+00 0.  1.
</event>
<event>
 7    1  0.2820496E-009  0.1066639E+03  0.7561462E-02  0.1266876E+00
         -2   -1    0    0    0  501 -0.00000000000E+00  0.00000000000E+00  0.11420216218E+04  0.11420216218E+04  0.00000000000E+00 0.  1.
          2   -1    0    0  501    0  0.00000000000E+00 -0.00000000000E+00 -0.10479012817E+02  0.10479012817E+02  0.00000000000E+00 0. -1.
         25    2    1    2    0    0  0.18928523312E+02  0.11591747168E+02  0.73830036462E+03  0.74915993662E+03  0.12514201787E+03 0.  0.
          5    1    3    3  502    0 -0.18576873492E+02  0.59761157784E+02  0.45677113222E+03  0.46105730212E+03  0.41800000000E+01 0.  1.
         -5    1    3    3    0  502  0.37505396804E+02 -0.48169410617E+02  0.28152923240E+03  0.28810263450E+03  0.41800000000E+01 0.  1.
        -11    1    1    2    0    0  0.18337015441E+01  0.36753785711E+02  0.14652075017E+03  0.15107128600E+03  0.00000000000E+00 0.  1.
         11    1    1    2    0    0 -0.20762224856E+02 -0.48345532879E+02  0.24672149416E+03  0.25226941196E+03  0.00000000000E+00 0. -1.
</event>
<event>
 7    1  0.2820496E-009  0.1409420E+03  0.7561462E-02  0.1212067E+00
         -3   -1    0    0    0  501 -0.00000000000E+00  0.00000000000E+00  0.59024449764E+03  0.59024449764E+03  0.00000000000E+00 0.  1.
          3   -1    0    0  501    0  0.00000000000E+00 -0.00000000000E+00 -0.58448189298E+02  0.58448189298E+02  0.00000000000E+00 0. -1.
         25    2    1    2    0    0  0.56357940994E+02  0.12701152861E+03  0.38308978044E+03  0.42627830271E+03  0.12508903056E+03 0.  0.
          5    1    3    3  502    0  0.41780595183E+02  0.92376632687E+02  0.37382260197E+03  0.38734980385E+03  0.41800000000E+01 0.  1.
         -5    1    3    3    0  502  0.14577345811E+02  0.34634895919E+02  0.92671784738E+01  0.38928498855E+02  0.41800000000E+01 0.  1.
        -11    1    1    2    0    0 -0.17765678017E+02 -0.79155747662E+02  0.13790172112E+03  0.15999417612E+03  0.00000000000E+00 0. -1.
         11    1    1    2    0    0 -0.38592262977E+02 -0.47855780944E+02  0.10804806778E+02  0.62420208114E+02  0.00000000000E+00 0.  1.
</event>
<event>
 7    1  0.2820496E-009  0.1476814E+03  0.7561462E-02  0.1203351E+00
          1   -1    0    0  501    0  0.00000000000E+00  0.00000000000E+00  0.17554053582E+03  0.17554053582E+03  0.00000000000E+00 0. -1.
         -1   -1    0    0    0  501 -0.00000000000E+00 -0.00000000000E+00 -0.15675522718E+03  0.15675522718E+03  0.00000000000E+00 0.  1.
         25    2    1    2    0    0 -0.34154790705E+01 -0.10326748789E+03  0.79749790376E+02  0.18078855750E+03  0.12509449991E+03 0.  0.
          5    1    3    3  502    0 -0.14551514420E+02 -0.12902670757E+03  0.48731748105E+02  0.13875119283E+03  0.41800000000E+01 0.  1.
         -5    1    3    3    0  502  0.11136035350E+02  0.25759219685E+02  0.31018042272E+02  0.42037364670E+02  0.41800000000E+01 0.  1.
        -11    1    1    2    0    0  0.42433446260E+02  0.24055740006E+02 -0.10824293470E+02  0.49964400505E+02  0.00000000000E+00 0.  1.
         11    1    1    2    0    0 -0.39017967189E+02  0.79211747882E+02 -0.50140188272E+02  0.10154280499E+03  0.00000000000E+00 0. -1.
</event>
<event>
 7    1  0.2820496E-009  0.9198090E+02  0.7561462E-02  0.1298124E+00
          2   -1    0    0  501    0  0.00000000000E+00  0.00000000000E+00  0.20426239837E+03  0.20426239837E+03  0.00000000000E+00 0. -1.
         -2   -1    0    0    0  501 -0.00000000000E+00 -0.00000000000E+00 -0.64493697039E+02  0.64493697039E+02  0.00000000000E+00 0.  1.
         25    2    1    2    0    0  0.33898502060E+01  0.32557548096E+02  0.55519473092E+02  0.14071842062E+03  0.12509107477E+03 0.  0.
          5    1    3    3  502    0 -0.35869093579E+02  0.33791672964E+02 -0.21680552482E+02  0.53999886961E+02  0.41800000000E+01 0.  1.
         -5    1    3    3    0  502  0.39258943785E+02 -0.12341248681E+01  0.77200025574E+02  0.86718533659E+02  0.41800000000E+01 0.  1.
        -11    1    1    2    0    0 -0.51845212903E+01  0.30995860959E+02  0.38562963987E+02  0.49746606408E+02  0.00000000000E+00 0. -1.
         11    1    1    2    0    0  0.17946710843E+01 -0.63553409056E+02  0.45686264251E+02  0.78291068380E+02  0.00000000000E+00 0.  1.
</event>
<event>
 7    1  0.2820496E-009  0.2444740E+03  0.7561462E-02  0.1116848E+00
          2   -1    0    0  501    0  0.00000000000E+00  0.00000000000E+00  0.20941449725E+03  0.20941449725E+03  0.00000000000E+00 0. -1.
         -2   -1    0    0    0  501 -0.00000000000E+00 -0.00000000000E+00 -0.34464252408E+03  0.34464252408E+03  0.00000000000E+00 0.  1.
         25    2    1    2    0    0  0.15479419257E+03 -0.16002227408E+03 -0.17572286911E+03  0.30998756226E+03  0.12508154050E+03 0.  0.
          5    1    3    3  502    0  0.96910205854E+00 -0.78678275595E+02 -0.35272316998E+02  0.86329710736E+02  0.41800000000E+01 0. -1.
         -5    1    3    3    0  502  0.15382509052E+03 -0.81343998481E+02 -0.14045055211E+03  0.22365785153E+03  0.41800000000E+01 0. -1.
        -11    1    1    2    0    0 -0.53444058609E+02  0.11167114808E+03 -0.25018706990E+01  0.12382637874E+03  0.00000000000E+00 0. -1.
         11    1    1    2    0    0 -0.10135013396E+03  0.48351125991E+02  0.42996712986E+02  0.12024308033E+03  0.00000000000E+00 0.  1.
</event>
<event>
 7    1  0.2820496E-009  0.2511978E+03  0.7561462E-02  0.1112550E+00
         -2   -1    0    0    0  501 -0.00000000000E+00  0.00000000000E+00  0.12709011830E+03  0.12709011830E+03  0.00000000000E+00 0.  1.
          2   -1    0    0  501    0  0.00000000000E+00 -0.00000000000E+00 -0.57986344694E+03  0.57986344694E+03  0.00000000000E+00 0. -1.
         25    2    1    2    0    0  0.11079606547E+03 -0.21944808201E+03 -0.19100335291E+03  0.33550303505E+03  0.12508707719E+03 0.  0.
          5    1    3    3  502    0  0.21446635534E+02 -0.82973842152E+01 -0.74918137368E+02  0.78479325094E+02  0.41800000000E+01 0.  1.
         -5    1    3    3    0  502  0.89349429931E+02 -0.21115069780E+03 -0.11608521554E+03  0.25702370995E+03  0.41800000000E+01 0.  1.
        -11    1    1    2    0    0 -0.92796397646E+02  0.20952373676E+03 -0.19276387962E+03  0.29944829431E+03  0.00000000000E+00 0.  1.
         11    1    1    2    0    0 -0.17999667819E+02  0.99243452528E+01 -0.69006096109E+02  0.72002235872E+02  0.00000000000E+00 0. -1.
</event>
<event>
 7    1  0.2820496E-009  0.1466666E+03  0.7561462E-02  0.1204630E+00
          1   -1    0    0  501    0  0.00000000000E+00  0.00000000000E+00  0.67517520725E+03  0.67517520725E+03  0.00000000000E+00 0. -1.
         -1   -1    0    0    0  501 -0.00000000000E+00 -0.00000000000E+00 -0.38177322518E+02  0.38177322518E+02  0.00000000000E+00 0.  1.
         25    2    1    2    0    0  0.69605981608E+02  0.71286685669E+02  0.30625370665E+03  0.34549357056E+03  0.12509072802E+03 0.  0.
          5    1    3    3  502    0 -0.21504961309E+00 -0.32040149661E+02  0.39749859127E+02  0.51226371502E+02  0.41800000000E+01 0.  1.
         -5    1    3    3    0  502  0.69821031221E+02  0.10332683533E+03  0.26650384752E+03  0.29426719906E+03  0.41800000000E+01 0.  1.
        -11    1    1    2    0    0  0.98377841861E+01 -0.54069821067E+02  0.23920434049E+03  0.24543643588E+03  0.00000000000E+00 0. -1.
         11    1    1    2    0    0 -0.79443765794E+02 -0.17216864602E+02  0.91539837593E+02  0.12242252332E+03  0.00000000000E+00 0.  1.
</event>
<event>
 7    1  0.2820496E-009  0.1867279E+03  0.7561462E-02  0.1161446E+00
          2   -1    0    0  501    0  0.00000000000E+00  0.00000000000E+00  0.17582725190E+03  0.17582725190E+03  0.00000000000E+00 0. -1.
         -2   -1    0    0    0  501 -0.00000000000E+00 -0.00000000000E+00 -0.21422896784E+03  0.21422896784E+03  0.00000000000E+00 0.  1.
         25    2    1    2    0    0  0.13913549911E+03 -0.78135366467E+02 -0.42505705384E+02  0.20716771999E+03  0.12509159288E+03 0.  0.
          5    1    3    3  502    0  0.95709448443E+02 -0.11090643829E+03 -0.42542474061E+02  0.15260364044E+03  0.41800000000E+01 0. -1.
         -5    1    3    3    0  502  0.43426050665E+02  0.32771071825E+02  0.36768676930E-01  0.54564079547E+02  0.41800000000E+01 0. -1.
        -11    1    1    2    0    0 -0.85712188185E+02  0.10809219809E+02 -0.28491867441E+02  0.90968153475E+02  0.00000000000E+00 0.  1.
         11    1    1    2    0    0 -0.53423310923E+02  0.67326146659E+02  0.32595856890E+02  0.91920346280E+02  0.00000000000E+00 0. -1.
</event>
<event>
 7    1  0.2820496E-009  0.1207227E+03  0.7561462E-02  0.1241910E+00
          2   -1    0    0  501    0  0.00000000000E+00  0.00000000000E+00  0.39380877608E+03  0.39380877608E+03  0.00000000000E+00 0. -1.
         -2   -1    0    0    0  501 -0.00000000000E+00 -0.00000000000E+00 -0.42031955011E+02  0.42031955011E+02  0.00000000000E+00 0.  1.
         25    2    1    2    0    0 -0.48067268230E+02  0.37186698613E+02  0.14465998961E+03  0.20066743316E+03  0.12509034059E+03 0.  0.
          5    1    3    3  502    0 -0.83404105186E+02  0.54275449888E+02  0.10390171928E+03  0.14392744315E+03  0.41800000000E+01 0. -1.
         -5    1    3    3    0  502  0.35336836956E+02 -0.17088751275E+02  0.40758270336E+02  0.56739990015E+02  0.41800000000E+01 0. -1.
        -11    1    1    2    0    0 -0.20981811674E+02 -0.24349365144E+02  0.27454615035E+02  0.42271549424E+02  0.00000000000E+00 0.  1.
         11    1    1    2    0    0  0.69049079904E+02 -0.12837333470E+02  0.17966221642E+03  0.19290174850E+03  0.00000000000E+00 0. -1.
</event>
<event>
 7    1  0.2820496E-009  0.1109873E+03  0.7561462E-02  0.1258752E+00
          1   -1    0    0  501    0  0.00000000000E+00  0.00000000000E+00  0.14949379172E+03  0.14949379172E+03  0.00000000000E+00 0. -1.
         -1   -1    0    0    0  501 -0.00000000000E+00 -0.00000000000E+00 -0.10889651561E+03  0.10889651561E+03  0.00000000000E+00 0.  1.
         25    2    1    2    0    0 -0.20339891851E+02  0.25990389193E+02 -0.36211780599E+02  0.13434815777E+03  0.12509565505E+03 0.  0.
          5    1    3    3  502    0 -0.68874429260E+02 -0.16871728674E+01 -0.27245517890E+01  0.69075532142E+02  0.41800000000E+01 0.  1.
         -5    1    3    3    0  502  0.48534537410E+02  0.27677562060E+02 -0.33487228810E+02  0.65272625629E+02  0.41800000000E+01 0.  1.
        -11    1    1    2    0    0  0.10483746196E+02 -0.60311882596E+02  0.42506328424E+02  0.74526640020E+02  0.00000000000E+00 0.  1.
         11    1    1    2    0    0  0.98561456542E+01  0.34321493404E+02  0.34302728288E+02  0.49515509536E+02  0.00000000000E+00 0. -1.
</event>
<event>
 7    1  0.2820496E-009  0.1177084E+03  0.7561462E-02  0.1246926E+00
          1   -1    0    0  501    0  0.00000000000E+00  0.00000000000E+00  0.13589924173E+03  0.13589924173E+03  0.00000000000E+00 0. -1.
         -1   -1    0    0    0  501 -0.00000000000E+00 -0.00000000000E+00 -0.13815815903E+03  0.13815815903E+03  0.00000000000E+00 0.  1.
         25    2    1    2    0    0  0.49424796069E+02  0.19807358379E+02  0.63391845376E+02  0.15000494665E+03  0.12509123089E+03 0.  0.
          5    1    3    3  502    0 -0.34456979915E+02  0.31610103243E+02  0.40896003920E+02  0.62261044229E+02  0.41800000000E+01 0. -1.
         -5    1    3    3    0  502  0.83881775984E+02 -0.11802744864E+02  0.22495841456E+02  0.87743902417E+02  0.41800000000E+01 0. -1.
        -11    1    1    2    0    0 -0.12019216209E+02 -0.52574872543E+02 -0.44872782784E+02  0.70158003222E+02  0.00000000000E+00 0. -1.
         11    1    1    2    0    0 -0.37405579860E+02  0.32767514164E+02 -0.20777979885E+02  0.53894450895E+02  0.00000000000E+00 0.  1.
</event>
<event>
 7    1  0.2820496E-009  0.7384159E+02  0.7561462E-02  0.1347496E+00
         -2   -1    0    0    0  501 -0.00000000000E+00  0.00000000000E+00  0.76912214646E+02  0.76912214646E+02  0.00000000000E+00 0.  1.
          2   -1    0    0  501    0  0.00000000000E+00 -0.00000000000E+00 -0.19292368935E+03  0.19292368935E+03  0.00000000000E+00 0. -1.
         25    2    1    2    0    0 -0.19952193988E+02  0.32113098965E+02 -0.11082118513E+03  0.17133344524E+03  0.12507786860E+03 0.  0.
          5    1    3    3  502    0  0.14480326610E+02  0.10758957842E+01 -0.12243350302E+03  0.12336236246E+03  0.41800000000E+01 0. -1.
         -5    1    3    3    0  502 -0.34432520598E+02  0.31037203181E+02  0.11612317893E+02  0.47971082778E+02  0.41800000000E+01 0. -1.
        -11    1    1    2    0    0  0.18813155822E+02  0.23669075397E+02 -0.25065931304E+02  0.39274175666E+02  0.00000000000E+00 0. -1.
         11    1    1    2    0    0  0.11390381666E+01 -0.55782174361E+02  0.19875641722E+02  0.59228283094E+02  0.00000000000E+00 0.  1.
</event>
<event>
 7    1  0.2820496E-009  0.1031018E+03  0.7561462E-02  0.1273905E+00
          1   -1    0    0  501    0  0.00000000000E+00  0.00000000000E+00  0.20624592995E+03  0.20624592995E+03  0.00000000000E+00 0. -1.
         -1   -1    0    0    0  501 -0.00000000000E+00 -0.00000000000E+00 -0.60098433976E+02  0.60098433976E+02  0.00000000000E+00 0.  1.
         25    2    1    2    0    0  0.18172033777E+02 -0.12905856611E+02  0.63498184990E+02  0.14203534064E+03  0.12508091200E+03 0.  0.
          5    1    3    3  502    0  0.40980193699E+02  0.38907509864E+02 -0.26777936742E+00  0.56663168859E+02  0.41800000000E+01 0.  1.
         -5    1    3    3    0  502 -0.22808159922E+02 -0.51813366475E+02  0.63765964357E+02  0.85372171783E+02  0.41800000000E+01 0.  1.
        -11    1    1    2    0    0 -0.18964178910E+02 -0.37680260859E+02  0.40122485064E+02  0.58217316563E+02  0.00000000000E+00 0.  1.
         11    1    1    2    0    0  0.79214513333E+00  0.50586117470E+02  0.42526825922E+02  0.66091706723E+02  0.00000000000E+00 0. -1.
</event>
<event>
 7    1  0.2820496E-009  0.9247577E+02  0.7561462E-02  0.1296965E+00
          1   -1    0    0  501    0  0.00000000000E+00  0.00000000000E+00  0.36828936621E+02  0.36828936621E+02  0.00000000000E+00 0. -1.
         -1   -1    0    0    0  501 -0.00000000000E+00 -0.00000000000E+00 -0.36820961138E+03  0.36820961138E+03  0.00000000000E+00 0.  1.
         25    2    1    2    0    0 -0.84580238883E+01  0.24440872863E+02 -0.24229963268E+03  0.27390320121E+03  0.12507980333E+03 0.  0.
          5    1    3    3  502    0  0.27442781998E+02  0.44702123548E+02 -0.36661373249E+02  0.64132010899E+02  0.41800000000E+01 0.  1.
         -5    1    3    3    0  502 -0.35900805886E+02 -0.20261250684E+02 -0.20563825943E+03  0.20977119031E+03  0.41800000000E+01 0.  1.
        -11    1    1    2    0    0 -0.37980155694E+02 -0.23070831326E+02 -0.22128817665E+02  0.49643126975E+02  0.00000000000E+00 0. -1.
         11    1    1    2    0    0  0.46438179582E+02 -0.13700415368E+01 -0.66952224417E+02  0.81492219820E+02  0.00000000000E+00 0.  1.
</event>
<event>
 7    1  0.2820496E-009  0.1197777E+03  0.7561462E-02  0.1243464E+00
          3   -1    0    0  501    0  0.00000000000E+00  0.00000000000E+00  0.68325212744E+03  0.68325212744E+03  0.00000000000E+00 0. -1.
         -3   -1    0    0    0  501 -0.00000000000E+00 -0.00000000000E+00 -0.24696525578E+02  0.24696525578E+02  0.00000000000E+00 0.  1.
         25    2    1    2    0    0 -0.67468223989E+01  0.60800751037E+02  0.26611039002E+03  0.30033845245E+03  0.12508475287E+03 0.  0.
          5    1    3    3  502    0  0.54421868814E+02  0.13694712828E+02  0.71903578823E+02  0.91306527763E+02  0.41800000000E+01 0. -1.
         -5    1    3    3    0  502 -0.61168691213E+02  0.47106038209E+02  0.19420681120E+03  0.20903192468E+03  0.41800000000E+01 0. -1.
        -11    1    1    2    0    0  0.18276761980E+02  0.18396143356E+02  0.15198314946E+03  0.15417955713E+03  0.00000000000E+00 0.  1.
         11    1    1    2    0    0 -0.11529939581E+02 -0.79196894392E+02  0.24046206237E+03  0.25343064343E+03  0.00000000000E+00 0. -1.
</event>
<event>
 7    1  0.2820496E-009  0.8670400E+02  0.7561462E-02  0.1311036E+00
         -1   -1    0    0    0  501 -0.00000000000E+00  0.00000000000E+00  0.23719901648E+03  0.23719901648E+03  0.00000000000E+00 0.  1.
          1   -1    0    0  501    0  0.00000000000E+00 -0.00000000000E+00 -0.69118623117E+02  0.69118623117E+02  0.00000000000E+00 0. -1.
         25    2    1    2    0    0 -0.63616034733E+02  0.22153593012E+02  0.85359231817E+02  0.16574414989E+03  0.12508854147E+03 0.  0.
          5    1    3    3  502    0 -0.60464385383E+02 -0.38965915981E+01 -0.14474591698E+02  0.62434858298E+02  0.41800000000E+01 0.  1.
         -5    1    3    3    0  502 -0.31516493505E+01  0.26050184610E+02  0.99833823515E+02  0.10330929159E+03  0.41800000000E+01 0.  1.
        -11    1    1    2    0    0  0.63800770031E+02 -0.35327135778E+02  0.96861669039E+02  0.12124655751E+03  0.00000000000E+00 0.  1.
         11    1    1    2    0    0 -0.18473529741E+00  0.13173542766E+02 -0.14140507490E+02  0.19326932199E+02  0.00000000000E+00 0. -1.
</event>
<event>
 7    1  0.2820496E-009  0.1119265E+03  0.7561462E-02  0.1257043E+00
         -1   -1    0    0    0  501 -0.00000000000E+00  0.00000000000E+00  0.22280547569E+03  0.22280547569E+03  0.00000000000E+00 0.  1.
          1   -1    0    0  501    0  0.00000000000E+00 -0.00000000000E+00 -0.66866631566E+02  0.66866631566E+02  0.00000000000E+00 0. -1.
         25    2    1    2    0    0  0.38148104352E+02 -0.40594452167E+02  0.94312421008E+02  0.16626905772E+03  0.12508948552E+03 0.  0.
          5    1    3    3  502    0 -0.69008947733E+01 -0.67504730089E+02  0.12713341657E+02  0.69163663792E+02  0.41800000000E+01 0.  1.
         -5    1    3    3    0  502  0.45048999125E+02  0.26910277922E+02  0.81599079350E+02  0.97105393933E+02  0.41800000000E+01 0.  1.
        -11    1    1    2    0    0 -0.48222473968E+02 -0.11986432070E+02  0.13690361064E+02  0.51541318720E+02  0.00000000000E+00 0. -1.
         11    1    1    2    0    0  0.10074369616E+02  0.52580884237E+02  0.47936062055E+02  0.71861730814E+02  0.00000000000E+00 0.  1.
</event>
<event>
 7    1  0.2820496E-009  0.1073457E+03  0.7561462E-02  0.1265566E+00
          2   -1    0    0  501    0  0.00000000000E+00  0.00000000000E+00  0.62055097563E+02  0.62055097563E+02  0.00000000000E+00 0. -1.
         -2   -1    0    0    0  501 -0.00000000000E+00 -0.00000000000E+00 -0.24038120844E+03  0.24038120844E+03  0.00000000000E+00 0.  1.
         25    2    1    2    0    0  0.17293096708E+02 -0.21902222207E+02 -0.15796671585E+03  0.20341872621E+03  0.12508771452E+03 0.  0.
          5    1    3    3  502    0 -0.38452537826E+02 -0.43204107722E+02 -0.11798376765E+03  0.13146419443E+03  0.41800000000E+01 0. -1.
         -5    1    3    3    0  502  0.55745634534E+02  0.21301885516E+02 -0.39982948207E+02  0.71954531778E+02  0.41800000000E+01 0. -1.
        -11    1    1    2    0    0 -0.54127757850E+02  0.25568836390E+02 -0.11549841476E+02  0.60967027173E+02  0.00000000000E+00 0.  1.
         11    1    1    2    0    0  0.36834661142E+02 -0.36666141836E+01 -0.88095535486E+01  0.38050552621E+02  0.00000000000E+00 0. -1.
</event>
<event>
 7    1  0.2820496E-009  0.1023591E+03  0.7561462E-02  0.1275412E+00
         -2   -1    0    0    0  501 -0.00000000000E+00  0.00000000000E+00  0.57044814861E+02  0.57044814861E+02  0.00000000000E+00 0.  1.
          2   -1    0    0  501    0  0.00000000000E+00 -0.00000000000E+00 -0.21879997690E+03  0.21879997690E+03  0.00000000000E+00 0. -1.
         25    2    1    2    0    0  0.24433843818E+02  0.23079498363E+02 -0.76754937507E+02  0.15054183283E+03  0.12506736997E+03 0.  0.
          5    1    3    3  502    0  0.38121932950E+02  0.68363778021E+02 -0.64454325358E+02  0.10148261119E+03  0.41800000000E+01 0. -1.
         -5    1    3    3    0  502 -0.13688089132E+02 -0.45284279658E+02 -0.12300612149E+02  0.49059221635E+02  0.41800000000E+01 0. -1.
        -11    1    1    2    0    0  0.25475748201E+02 -0.79892425745E+01 -0.13502977311E+01  0.26733219920E+02  0.00000000000E+00 0.  1.
         11    1    1    2    0    0 -0.49909592019E+02 -0.15090255788E+02 -0.83649926800E+02  0.98569739012E+02  0.00000000000E+00 0. -1.
</event>
<event>
 7    1  0.2820496E-009  0.6334411E+02  0.7561462E-02  0.1384311E+00
          1   -1    0    0  501    0  0.00000000000E+00  0.00000000000E+00  0.14146915013E+03  0.14146915013E+03  0.00000000000E+00 0. -1.
         -1   -1    0    0    0  501 -0.00000000000E+00 -0.00000000000E+00 -0.12322167792E+03  0.12322167792E+03  0.00000000000E+00 0.  1.
         25    2    1    2    0    0  0.49786789471E+02  0.23032661600E+02  0.61316402803E+02  0.14971920994E+03  0.12508761996E+03 0.  0.
          5    1    3    3  502    0  0.33082377068E+02  0.25185136049E+02 -0.33356916077E+02  0.53468598266E+02  0.41800000000E+01 0.  1.
         -5    1    3    3    0  502  0.16704412403E+02 -0.21524744499E+01  0.94673318880E+02  0.96250611675E+02  0.41800000000E+01 0.  1.
        -11    1    1    2    0    0 -0.10135722719E+02 -0.25879918840E+02 -0.64195003439E+02  0.69953567033E+02  0.00000000000E+00 0.  1.
         11    1    1    2    0    0 -0.39651066752E+02  0.28472572399E+01  0.21126072844E+02  0.45018051070E+02  0.00000000000E+00 0. -1.
</event>
<event>
 7    1  0.2820496E-009  0.9188778E+02  0.7561462E-02  0.1298343E+00
          2   -1    0    0  501    0  0.00000000000E+00  0.00000000000E+00  0.50249779320E+02  0.50249779320E+02  0.00000000000E+00 0. -1.
         -2   -1    0    0    0  501 -0.00000000000E+00 -0.00000000000E+00 -0.35225580743E+03  0.35225580743E+03  0.00000000000E+00 0.  1.
         25    2    1    2    0    0  0.72516465040E+02 -0.23854113882E+02 -0.17557758068E+03  0.22869841583E+03  0.12509125514E+03 0.  0.
          5    1    3    3  502    0  0.40741076361E+02  0.45968601082E+01  0.64324551274E+01  0.41711093307E+02  0.41800000000E+01 0. -1.
         -5    1    3    3    0  502  0.31775388680E+02 -0.28450973990E+02 -0.18201003581E+03  0.18698732252E+03  0.41800000000E+01 0. -1.
        -11    1    1    2    0    0 -0.43554963276E+02 -0.19378201445E+02 -0.13625405906E+02  0.49580250133E+02  0.00000000000E+00 0. -1.
         11    1    1    2    0    0 -0.28961501764E+02  0.43232315327E+02 -0.11280304152E+03  0.12422692079E+03  0.00000000000E+00 0.  1.
</event>
<event>
 7    1  0.2820496E-009  0.7818550E+02  0.7561462E-02  0.1334281E+00
         -4   -1    0    0    0  501 -0.00000000000E+00  0.00000000000E+00  0.15748005076E+03  0.15748005076E+03  0.00000000000E+00 0.  1.
          4   -1    0    0  501    0  0.00000000000E+00 -0.00000000000E+00 -0.91192742700E+02  0.91192742700E+02  0.00000000000E+00 0. -1.
         25    2    1    2    0    0  0.26428043961E+02 -0.27454241141E+02  0.73562227291E+02  0.15003606814E+03  0.12508894274E+03 0.  0.
          5    1    3    3  502    0  0.39125744212E+02 -0.22607083901E+02 -0.24073484159E+02  0.51370313823E+02  0.41800000000E+01 0. -1.
         -5    1    3    3    0  502 -0.12697700252E+02 -0.48471572400E+01  0.97635711449E+02  0.98665754318E+02  0.41800000000E+01 0. -1.
        -11    1    1    2    0    0 -0.53216236469E+02 -0.64005516751E+01  0.47842829728E+01  0.53812863232E+02  0.00000000000E+00 0.  1.
         11    1    1    2    0    0  0.26788192508E+02  0.33854792816E+02 -0.12059202204E+02  0.44823862086E+02  0.00000000000E+00 0. -1.
</event>
<event>
 7    1  0.2820496E-009  0.9891131E+02  0.7561462E-02  0.1282602E+00
          2   -1    0    0  501    0  0.00000000000E+00  0.00000000000E+00  0.38467567073E+03  0.38467567073E+03  0.00000000000E+00 0.  1.
         -2   -1    0    0    0  501 -0.00000000000E+00 -0.00000000000E+00 -0.45775750506E+02  0.45775750506E+02  0.00000000000E+00 0. -1.
         25    2    1    2    0    0 -0.13908531603E+02 -0.37556244008E+02  0.30285283521E+03  0.33010910519E+03  0.12509301668E+03 0.  0.
          5    1    3    3  502    0  0.37838337430E+02  0.20888730792E+02  0.54152196467E+02  0.69411898373E+02  0.41800000000E+01 0. -1.
         -5    1    3    3    0  502 -0.51746869033E+02 -0.58444974800E+02  0.24870063874E+03  0.26069720682E+03  0.41800000000E+01 0. -1.
        -11    1    1    2    0    0 -0.18225829187E+02  0.40043495315E+02  0.48778254040E+02  0.65688510668E+02  0.00000000000E+00 0.  1.
         11    1    1    2    0    0  0.32134360790E+02 -0.24872513065E+01 -0.12731169022E+02  0.34653805377E+02  0.00000000000E+00 0. -1.
</event>
<event>
 7    1  0.2820496E-009  0.1000736E+03  0.7561462E-02  0.1280141E+00
          2   -1    0    0  501    0  0.00000000000E+00  0.00000000000E+00  0.31236305863E+03  0.31236305863E+03  0.00000000000E+00 0. -1.
         -2   -1    0    0    0  501 -0.00000000000E+00 -0.00000000000E+00 -0.41047775624E+02  0.41047775624E+02  0.00000000000E+00 0.  1.
         25    2    1    2    0    0 -0.26120799632E+01  0.32061843945E+02  0.13434287125E+03  0.18636184161E+03  0.12509174294E+03 0.  0.
          5    1    3    3  502    0  0.54131477158E+02  0.44887110030E+02  0.66238521136E+02  0.96695830047E+02  0.41800000000E+01 0.  1.
         -5    1    3    3    0  502 -0.56743557121E+02 -0.12825266085E+02  0.68104350117E+02  0.89666011564E+02  0.41800000000E+01 0.  1.
        -11    1    1    2    0    0  0.25463827245E+02  0.67448591665E+01  0.39832350111E+01  0.26641429847E+02  0.00000000000E+00 0.  1.
         11    1    1    2    0    0 -0.22851747282E+02 -0.38806703112E+02  0.13298917674E+03  0.14040756280E+03  0.00000000000E+00 0. -1.
</event>
<event>
 7    1  0.2820496E-009  0.1078761E+03  0.7561462E-02  0.1264554E+00
         -1   -1    0    0    0  501 -0.00000000000E+00  0.00000000000E+00  0.35629403286E+02  0.35629403286E+02  0.00000000000E+00 0.  1.
          1   -1    0    0  501    0  0.00000000000E+00 -0.00000000000E+00 -0.44823068696E+03  0.44823068696E+03  0.00000000000E+00 0. -1.
         25    2    1    2    0    0 -0.51004243031E+02  0.81470581364E+01 -0.30952747176E+03  0.33781966427E+03  0.12508821859E+03 0.  0.
          5    1    3    3  502    0  0.26004174305E+02  0.21885506942E+02 -0.20144174355E+03  0.20433169343E+03  0.41800000000E+01 0. -1.
         -5    1    3    3    0  502 -0.77008417337E+02 -0.13738448806E+02 -0.10808572821E+03  0.13348797084E+03  0.41800000000E+01 0. -1.
        -11    1    1    2    0    0  0.74403050253E+02  0.78673597735E+01 -0.69770163929E+02  0.10230144188E+03  0.00000000000E+00 0.  1.
         11    1    1    2    0    0 -0.23398807222E+02 -0.16014417910E+02 -0.33303647986E+02  0.43738984094E+02  0.00000000000E+00 0. -1.
</event>
<event>
 7    1  0.2820496E-009  0.1075705E+03  0.7561462E-02  0.1265136E+00
          1   -1    0    0  501    0  0.00000000000E+00  0.00000000000E+00  0.18162363707E+03  0.18162363707E+03  0.00000000000E+00 0. -1.
         -1   -1    0    0    0  501 -0.00000000000E+00 -0.00000000000E+00 -0.10164844070E+03  0.10164844070E+03  0.00000000000E+00 0.  1.
         25    2    1    2    0    0 -0.21229317520E+01 -0.71099542544E+02  0.17729481079E+01  0.14392969246E+03  0.12511179496E+03 0.  0.
          5    1    3    3  502    0  0.19900174106E+02 -0.92170913586E+02 -0.30644738970E+02  0.99237425739E+02  0.41800000000E+01 0.  1.
         -5    1    3    3    0  502 -0.22023105858E+02  0.21071371043E+02  0.32417687078E+02  0.44692266722E+02  0.41800000000E+01 0.  1.
        -11    1    1    2    0    0  0.16981599790E+02 -0.37517499558E+00 -0.13807214175E+02  0.21889601435E+02  0.00000000000E+00 0.  1.
         11    1    1    2    0    0 -0.14858668038E+02  0.71474717539E+02  0.92009462435E+02  0.11745278388E+03  0.00000000000E+00 0. -1.
</event>
<event>
 7    1  0.2820496E-009  0.1996112E+03  0.7561462E-02  0.1150067E+00
         -2   -1    0    0    0  501 -0.00000000000E+00  0.00000000000E+00  0.15383949674E+03  0.15383949674E+03  0.00000000000E+00 0.  1.
          2   -1    0    0  501    0  0.00000000000E+00 -0.00000000000E+00 -0.27220255691E+03  0.27220255691E+03  0.00000000000E+00 0. -1.
         25    2    1    2    0    0 -0.14757197325E+03  0.86638865302E+02 -0.93394189207E+02  0.23163312325E+03  0.12509056295E+03 0.  0.
          5    1    3    3  502    0 -0.77437163274E+02 -0.20568201962E+02 -0.56902921036E+02  0.98361476251E+02  0.41800000000E+01 0.  1.
         -5    1    3    3    0  502 -0.70134809981E+02  0.10720706726E+03 -0.36491268170E+02  0.13327164700E+03  0.41800000000E+01 0.  1.
        -11    1    1    2    0    0  0.31153178679E+02 -0.65443639129E+02 -0.23063014260E+02  0.76061114053E+02  0.00000000000E+00 0. -1.
         11    1    1    2    0    0  0.11641879458E+03 -0.21195226174E+02 -0.19058567108E+01  0.11834781634E+03  0.00000000000E+00 0.  1.
</event>
<event>
 7    1  0.2820496E-009  0.2161189E+03  0.7561462E-02  0.1136810E+00
         -1   -1    0    0    0  501 -0.00000000000E+00  0.00000000000E+00  0.22536652882E+03  0.22536652882E+03  0.00000000000E+00 0.  1.
          1   -1    0    0  501    0  0.00000000000E+00 -0.00000000000E+00 -0.28225406794E+03  0.28225406794E+03  0.00000000000E+00 0. -1.
         25    2    1    2    0    0 -0.18869142385E+03 -0.88349994188E+02 -0.12070882556E+03  0.27134950208E+03  0.12509898802E+03 0.  0.
          5    1    3    3  502    0 -0.78462365004E+01  0.26233722920E+00  0.22503248566E+02  0.24197124707E+02  0.41800000000E+01 0.  1.
         -5    1    3    3    0  502 -0.18084518735E+03 -0.88612331417E+02 -0.14321207412E+03  0.24715237738E+03  0.41800000000E+01 0.  1.
        -11    1    1    2    0    0  0.16956770371E+03  0.46388263919E+02  0.28298687526E+02  0.17806148625E+03  0.00000000000E+00 0.  1.
         11    1    1    2    0    0  0.19123720143E+02  0.41961730269E+02  0.35522598912E+02  0.58209608423E+02  0.00000000000E+00 0. -1.
</event>
<event>
 7    1  0.2820496E-009  0.7952073E+02  0.7561462E-02  0.1330417E+00
          2   -1    0    0  501    0  0.00000000000E+00  0.00000000000E+00  0.84226839953E+02  0.84226839953E+02  0.00000000000E+00 0. -1.
         -2   -1    0    0    0  501 -0.00000000000E+00 -0.00000000000E+00 -0.14414166981E+03  0.14414166981E+03  0.00000000000E+00 0.  1.
         25    2    1    2    0    0  0.17739278206E+02  0.95981162303E+01 -0.42312240192E+02  0.13357033579E+03  0.12507558957E+03 0.  0.
          5    1    3    3  502    0 -0.18938812379E+02  0.53618899386E+02 -0.49709902434E+02  0.75645302469E+02  0.41800000000E+01 0. -1.
         -5    1    3    3    0  502  0.36678090585E+02 -0.44020783156E+02  0.73976622419E+01  0.57925033321E+02  0.41800000000E+01 0. -1.
        -11    1    1    2    0    0 -0.19742482297E+02 -0.23405545276E+02  0.31393946520E+02  0.43853905584E+02  0.00000000000E+00 0. -1.
         11    1    1    2    0    0  0.20032040910E+01  0.13807429046E+02 -0.48996536185E+02  0.50944268388E+02  0.00000000000E+00 0.  1.
</event>
<event>
 7    1  0.2820496E-009  0.1531404E+03  0.7561462E-02  0.1196666E+00
         -1   -1    0    0    0  501 -0.00000000000E+00  0.00000000000E+00  0.18546903889E+03  0.18546903889E+03  0.00000000000E+00 0.  1.
          1   -1    0    0  501    0  0.00000000000E+00 -0.00000000000E+00 -0.16983676614E+03  0.16983676614E+03  0.00000000000E+00 0. -1.
         25    2    1    2    0    0 -0.11152439210E+03  0.79021607409E+01  0.91872898068E+02  0.19128033075E+03  0.12508957332E+03 0.  0.
          5    1    3    3  502    0 -0.73905205536E+01  0.48485993593E+02  0.54315369258E+02  0.73301726490E+02  0.41800000000E+01 0.  1.
         -5    1    3    3    0  502 -0.10413387155E+03 -0.40583832852E+02  0.37557528810E+02  0.11797860426E+03  0.41800000000E+01 0.  1.
        -11    1    1    2    0    0  0.11329733600E+03  0.21872006869E+02 -0.61489509404E+02  0.13075026117E+03  0.00000000000E+00 0.  1.
         11    1    1    2    0    0 -0.17729438960E+01 -0.29774167610E+02 -0.14751115909E+02  0.33275213110E+02  0.00000000000E+00 0. -1.
</event>
<event>
 7    1  0.2820496E-009  0.1325524E+03  0.7561462E-02  0.1223717E+00
          2   -1    0    0  501    0  0.00000000000E+00  0.00000000000E+00  0.22326377471E+03  0.22326377471E+03  0.00000000000E+00 0. -1.
         -2   -1    0    0    0  501 -0.00000000000E+00 -0.00000000000E+00 -0.87624843498E+02  0.87624843498E+02  0.00000000000E+00 0.  1.
         25    2    1    2    0    0 -0.72717526633E+02  0.42151119699E+02  0.40191912578E+02  0.15594881136E+03  0.12506033087E+03 0.  0.
          5    1    3    3  502    0 -0.83553570566E+02  0.77135348821E+02  0.31628493149E+02  0.11810544090E+03  0.41800000000E+01 0. -1.
         -5    1    3    3    0  502  0.10836043932E+02 -0.34984229122E+02  0.85634194287E+01  0.37843370458E+02  0.41800000000E+01 0. -1.
        -11    1    1    2    0    0  0.62724646769E+02 -0.64500002922E+02  0.49030153978E+02  0.10246261605E+03  0.00000000000E+00 0.  1.
         11    1    1    2    0    0  0.99928798644E+01  0.22348883223E+02  0.46416864658E+02  0.52477190797E+02  0.00000000000E+00 0. -1.
</event>
<event>
 7    1  0.2820496E-009  0.9356517E+02  0.7561462E-02  0.1294441E+00
          1   -1    0    0  501    0  0.00000000000E+00  0.00000000000E+00  0.67435437424E+02  0.67435437424E+02  0.00000000000E+00 0. -1.
         -1   -1    0    0    0  501 -0.00000000000E+00 -0.00000000000E+00 -0.27950062917E+03  0.27950062917E+03  0.00000000000E+00 0.  1.
         25    2    1    2    0    0 -0.79339060272E+02 -0.10300183525E+02 -0.82612328721E+02  0.16992532418E+03  0.12509611775E+03 0.  0.
          5    1    3    3  502    0 -0.61267702914E+02  0.58096132030E+01 -0.11426826906E+03  0.12985450605E+03  0.41800000000E+01 0.  1.
         -5    1    3    3    0  502 -0.18071357358E+02 -0.16109796728E+02  0.31655940341E+02  0.40070818138E+02  0.41800000000E+01 0.  1.
        -11    1    1    2    0    0  0.29998084928E+02 -0.25940169561E+02 -0.10290475226E+03  0.11028220860E+03  0.00000000000E+00 0.  1.
         11    1    1    2    0    0  0.49340975344E+02  0.36240353086E+02 -0.26548110772E+02  0.66728533816E+02  0.00000000000E+00 0. -1.
</event>
<event>
 7    1  0.2820496E-009  0.1713877E+03  0.7561462E-02  0.1176408E+00
          3   -1    0    0  501    0  0.00000000000E+00  0.00000000000E+00  0.46906029856E+03  0.46906029856E+03  0.00000000000E+00 0. -1.
         -3   -1    0    0    0  501 -0.00000000000E+00 -0.00000000000E+00 -0.12563408415E+03  0.12563408415E+03  0.00000000000E+00 0.  1.
         25    2    1    2    0    0  0.65842389988E+02  0.15364121817E+03  0.34684560225E+03  0.40483358231E+03  0.12509002089E+03 0.  0.
          5    1    3    3  502    0  0.52685076529E+02  0.55978347025E+02  0.49427396067E+02  0.91486788699E+02  0.41800000000E+01 0.  1.
         -5    1    3    3    0  502  0.13157313459E+02  0.97662871147E+02  0.29741820619E+03  0.31334679361E+03  0.41800000000E+01 0.  1.
        -11    1    1    2    0    0 -0.33037992170E+02 -0.76404409316E+02 -0.46695513835E+02  0.95444296330E+02  0.00000000000E+00 0.  1.
         11    1    1    2    0    0 -0.32804397817E+02 -0.77236808857E+02  0.43276125991E+02  0.94416504062E+02  0.00000000000E+00 0. -1.
</event>
<event>
 7    1  0.2820496E-009  0.1680701E+03  0.7561462E-02  0.1179875E+00
         -2   -1    0    0    0  501 -0.00000000000E+00  0.00000000000E+00  0.89663732204E+02  0.89663732204E+02  0.00000000000E+00 0.  1.
          2   -1    0    0  501    0  0.00000000000E+00 -0.00000000000E+00 -0.45726664007E+03  0.45726664007E+03  0.00000000000E+00 0. -1.
         25    2    1    2    0    0 -0.61949715494E+02  0.12669608921E+03 -0.62512033770E+02  0.19860825259E+03  0.12509123614E+03 0.  0.
          5    1    3    3  502    0  0.11541139774E+02  0.80998946122E+02 -0.75002967811E+02  0.11107180002E+03  0.41800000000E+01 0. -1.
         -5    1    3    3    0  502 -0.73490855268E+02  0.45697143093E+02  0.12490934042E+02  0.87536452567E+02  0.41800000000E+01 0. -1.
        -11    1    1    2    0    0  0.84588151504E+02 -0.83784741290E+02 -0.20425688960E+03  0.23642316976E+03  0.00000000000E+00 0.  1.
         11    1    1    2    0    0 -0.22638436010E+02 -0.42911347924E+02 -0.10083398449E+03  0.11189894993E+03  0.00000000000E+00 0. -1.
</event>
<event>
 7    1  0.2820496E-009  0.1795930E+03  0.7561462E-02  0.1168198E+00
         -1   -1    0    0    0  501 -0.00000000000E+00  0.00000000000E+00  0.67014279930E+02  0.67014279930E+02  0.00000000000E+00 0.  1.
          1   -1    0    0  501    0  0.00000000000E+00 -0.00000000000E+00 -0.48461360972E+03  0.48461360972E+03  0.00000000000E+00 0. -1.
         25    2    1    2    0    0  0.50720292997E+02  0.13459957388E+03 -0.23924661786E+03  0.30591004462E+03  0.12510962325E+03 0.  0.
          5    1    3    3  502    0  0.54267325710E+02 -0.14686233782E+01 -0.69707675103E+02  0.88451861838E+02  0.41800000000E+01 0. -1.
         -5    1    3    3    0  502 -0.35470327137E+01  0.13606819726E+03 -0.16953894276E+03  0.21745818278E+03  0.41800000000E+01 0. -1.
        -11    1    1    2    0    0 -0.75292119489E+02 -0.87492233305E+02 -0.11353608298E+03  0.16190811062E+03  0.00000000000E+00 0.  1.
         11    1    1    2    0    0  0.24571826493E+02 -0.47107340578E+02 -0.64816628951E+02  0.83809734412E+02  0.00000000000E+00 0. -1.
</event>
<event>
 7    1  0.2820496E-009  0.2083242E+03  0.7561462E-02  0.1142900E+00
         -1   -1    0    0    0  501 -0.00000000000E+00  0.00000000000E+00  0.11827832506E+03  0.11827832506E+03  0.00000000000E+00 0.  1.
          1   -1    0    0  501    0  0.00000000000E+00 -0.00000000000E+00 -0.87228082832E+03  0.87228082832E+03  0.00000000000E+00 0. -1.
         25    2    1    2    0    0 -0.15807362803E+03  0.10116654391E+03 -0.74876726381E+03  0.78199803437E+03  0.12508624590E+03 0.  0.
          5    1    3    3  502    0 -0.79404924921E+02  0.10590980865E+03 -0.32506717017E+03  0.35101020953E+03  0.41800000000E+01 0. -1.
         -5    1    3    3    0  502 -0.78668703108E+02 -0.47432647414E+01 -0.42370009364E+03  0.43098782484E+03  0.41800000000E+01 0. -1.
        -11    1    1    2    0    0  0.11390017334E+03 -0.24041704415E+02 -0.21016021979E+02  0.11829169970E+03  0.00000000000E+00 0. -1.
         11    1    1    2    0    0  0.44173454686E+02 -0.77124839491E+02  0.15780782524E+02  0.90269419310E+02  0.00000000000E+00 0.  1.
</event>
<event>
 7    1  0.2820496E-009  0.1375926E+03  0.7561462E-02  0.1216605E+00
          2   -1    0    0  501    0  0.00000000000E+00  0.00000000000E+00  0.10944648145E+04  0.10944648145E+04  0.00000000000E+00 0.  1.
         -2   -1    0    0    0  501 -0.00000000000E+00 -0.00000000000E+00 -0.19026805440E+02  0.19026805440E+02  0.00000000000E+00 0. -1.
         25    2    1    2    0    0 -0.81450008278E+02 -0.42381545725E+02  0.66787900089E+03  0.68566770923E+03  0.12509016104E+03 0.  0.
          5    1    3    3  502    0 -0.10536251248E+03 -0.10670341841E+02  0.57311832686E+03  0.58283548641E+03  0.41800000000E+01 0. -1.
         -5    1    3    3    0  502  0.23912504204E+02 -0.31711203884E+02  0.94760674029E+02  0.10283222283E+03  0.41800000000E+01 0. -1.
        -11    1    1    2    0    0  0.85448532629E+02 -0.12433997115E+01  0.24551549778E+03  0.25996318474E+03  0.00000000000E+00 0. -1.
         11    1    1    2    0    0 -0.39985243512E+01  0.43624945437E+02  0.16204351035E+03  0.16786072593E+03  0.00000000000E+00 0.  1.
</event>
<event>
 7    1  0.2820496E-009  0.1020659E+03  0.7561462E-02  0.1276011E+00
         -2   -1    0    0    0  501 -0.00000000000E+00  0.00000000000E+00  0.25914038059E+03  0.25914038059E+03  0.00000000000E+00 0.  1.
          2   -1    0    0  501    0  0.00000000000E+00 -0.00000000000E+00 -0.59837355221E+02  0.59837355221E+02  0.00000000000E+00 0. -1.
         25    2    1    2    0    0 -0.53112955888E+02  0.11546957147E+01  0.15264867428E+03  0.20437975957E+03  0.12508856445E+03 0.  0.
          5    1    3    3  502    0  0.28472069047E+02 -0.95299513767E+01  0.10481947830E+03  0.10911495828E+03  0.41800000000E+01 0.  1.
         -5    1    3    3    0  502 -0.81585024935E+02  0.10684647091E+02  0.47829195985E+02  0.95264801294E+02  0.41800000000E+01 0.  1.
        -11    1    1    2    0    0  0.25146499327E+02 -0.37758109308E+02  0.51085465334E+02  0.68320904673E+02  0.00000000000E+00 0.  1.
         11    1    1    2    0    0  0.27966456561E+02  0.36603413593E+02 -0.44311142499E+01  0.46277071566E+02  0.00000000000E+00 0. -1.
</event>
<event>
 7    1  0.2820496E-009  0.1334949E+03  0.7561462E-02  0.1222360E+00
          1   -1    0    0  501    0  0.00000000000E+00  0.00000000000E+00  0.70321622824E+03  0.70321622824E+03  0.00000000000E+00 0. -1.
         -1   -1    0    0    0  501 -0.00000000000E+00 -0.00000000000E+00 -0.28271107816E+02  0.28271107816E+02  0.00000000000E+00 0.  1.
         25    2    1    2    0    0 -0.96276004859E+02 -0.29614222314E+02  0.40030424107E+03  0.43131982020E+03  0.12508889081E+03 0.  0.
          5    1    3    3  502    0  0.27601188552E+02 -0.19981573320E+01  0.36534438552E+02  0.46022340689E+02  0.41800000000E+01 0. -1.
         -5    1    3    3    0  502 -0.12387719341E+03 -0.27616064982E+02  0.36376980252E+03  0.38529747951E+03  0.41800000000E+01 0. -1.
        -11    1    1    2    0    0  0.83707088930E+02  0.43767159233E+01  0.14489401750E+03  0.16739267812E+03  0.00000000000E+00 0.  1.
         11    1    1    2    0    0  0.12568915929E+02  0.25237506391E+02  0.12974686185E+03  0.13277483774E+03  0.00000000000E+00 0. -1.
</event>
<event>
 7    1  0.2820496E-009  0.3274882E+03  0.7561462E-02  0.1072254E+00
         -1   -1    0    0    0  501 -0.00000000000E+00  0.00000000000E+00  0.46517836260E+02  0.46517836260E+02  0.00000000000E+00 0.  1.
          1   -1    0    0  501    0  0.00000000000E+00 -0.00000000000E+00 -0.24969881826E+04  0.24969881826E+04  0.00000000000E+00 0. -1.
         25    2    1    2    0    0  0.23424598650E+03  0.20688298248E+03 -0.94192726524E+03  0.10002730316E+04  0.12508962396E+03 0.  0.
          5    1    3    3  502    0  0.18272458486E+03  0.84477346060E+02 -0.50764414728E+03  0.54611788890E+03  0.41800000000E+01 0.  1.
         -5    1    3    3    0  502  0.51521401639E+02  0.12240563641E+03 -0.43428311796E+03  0.45415514265E+03  0.41800000000E+01 0.  1.
        -11    1    1    2    0    0 -0.54820340298E+02 -0.12516488528E+02 -0.17875479849E+03  0.18739052852E+03  0.00000000000E+00 0.  1.
         11    1    1    2    0    0 -0.17942564620E+03 -0.19436649395E+03 -0.13297882827E+04  0.13558424588E+04  0.00000000000E+00 0. -1.
</event>
<event>
 7    1  0.2820496E-009  0.1272963E+03  0.7561462E-02  0.1231524E+00
         -1   -1    0    0    0  501 -0.00000000000E+00  0.00000000000E+00  0.29915802243E+02  0.29915802243E+02  0.00000000000E+00 0.  1.
          1   -1    0    0  501    0  0.00000000000E+00 -0.00000000000E+00 -0.67240993397E+03  0.67240993397E+03  0.00000000000E+00 0. -1.
         25    2    1    2    0    0 -0.74444524148E+02 -0.46174041862E+02 -0.40259715798E+03  0.43057163773E+03  0.12503373258E+03 0.  0.
          5    1    3    3  502    0 -0.97140127506E+02 -0.56682437814E+02 -0.22932174862E+03  0.25545066044E+03  0.41800000000E+01 0.  1.
         -5    1    3    3    0  502  0.22695603358E+02  0.10508395952E+02 -0.17327540936E+03  0.17512097729E+03  0.41800000000E+01 0.  1.
        -11    1    1    2    0    0  0.20816534691E+02  0.58130120799E+02 -0.70736158231E+02  0.93893786493E+02  0.00000000000E+00 0.  1.
         11    1    1    2    0    0  0.53627989457E+02 -0.11956078937E+02 -0.16916081551E+03  0.17786031199E+03  0.00000000000E+00 0. -1.
</event>
<event>
 7    1  0.2820496E-009  0.1639848E+03  0.7561462E-02  0.1184270E+00
          1   -1    0    0  501    0  0.00000000000E+00  0.00000000000E+00  0.28208118959E+03  0.28208118959E+03  0.00000000000E+00 0. -1.
         -1   -1    0    0    0  501 -0.00000000000E+00 -0.00000000000E+00 -0.10135168208E+03  0.10135168208E+03  0.00000000000E+00 0.  1.
         25    2    1    2    0    0 -0.69950814599E+02 -0.10774281275E+03  0.84247693211E+02  0.19810322961E+03  0.12508231534E+03 0.  0.
          5    1    3    3  502    0 -0.10461113208E+03 -0.93207355443E+02  0.75796217248E+02  0.15935381706E+03  0.41800000000E+01 0. -1.
         -5    1    3    3    0  502  0.34660317481E+02 -0.14535457307E+02  0.84514759626E+01  0.38749412550E+02  0.41800000000E+01 0. -1.
        -11    1    1    2    0    0  0.25911979464E+02  0.10238865887E+03  0.38704230479E+02  0.11248504613E+03  0.00000000000E+00 0. -1.
         11    1    1    2    0    0  0.44038835135E+02  0.53541538786E+01  0.57777583825E+02  0.72844595931E+02  0.00000000000E+00 0.  1.
</event>
<event>
 7    1  0.2820496E-009  0.7338536E+02  0.7561462E-02  0.1348945E+00
          2   -1    0    0  501    0  0.00000000000E+00  0.00000000000E+00  0.57546017655E+03  0.57546017655E+03  0.00000000000E+00 0. -1.
         -2   -1    0    0    0  501 -0.00000000000E+00 -0.00000000000E+00 -0.30193167834E+02  0.30193167834E+02  0.00000000000E+00 0.  1.
         25    2    1    2    0    0  0.42619950136E+02 -0.16026079166E+02  0.17989634786E+03  0.22379414295E+03  0.12509127500E+03 0.  0.
          5    1    3    3  502    0  0.12977357593E+02 -0.16928966725E+02 -0.15128584748E+02  0.26482979458E+02  0.41800000000E+01 0.  1.
         -5    1    3    3    0  502  0.29642592543E+02  0.90288755898E+00  0.19502493261E+03  0.19731116349E+03  0.41800000000E+01 0.  1.
        -11    1    1    2    0    0 -0.25747828775E+02 -0.33794086513E+02  0.70328314897E+02  0.82164851647E+02  0.00000000000E+00 0.  1.
         11    1    1    2    0    0 -0.16872121361E+02  0.49820165680E+02  0.29504234596E+03  0.29969434979E+03  0.00000000000E+00 0. -1.
</event>
<event>
 7    1  0.2820496E-009  0.1320956E+03  0.7561462E-02  0.1224379E+00
         -2   -1    0    0    0  501 -0.00000000000E+00  0.00000000000E+00  0.20682322958E+03  0.20682322958E+03  0.00000000000E+00 0.  1.
          2   -1    0    0  501    0  0.00000000000E+00 -0.00000000000E+00 -0.10329867049E+03  0.10329867049E+03  0.00000000000E+00 0. -1.
         25    2    1    2    0    0 -0.42695404478E+02 -0.67006372700E+02 -0.46500865641E+01  0.14826253446E+03  0.12508958499E+03 0.  0.
          5    1    3    3  502    0  0.30770896881E+02  0.17094657991E+02 -0.84810722877E+01  0.36448270382E+02  0.41800000000E+01 0. -1.
         -5    1    3    3    0  502 -0.73466301358E+02 -0.84101030692E+02  0.38309857236E+01  0.11181426407E+03  0.41800000000E+01 0. -1.
        -11    1    1    2    0    0  0.38025592064E+02 -0.10420195308E+02  0.19306084907E+02  0.43900467383E+02  0.00000000000E+00 0.  1.
         11    1    1    2    0    0  0.46698124141E+01  0.77426568008E+02  0.88868560754E+02  0.11795889823E+03  0.00000000000E+00 0. -1.
</event>
<event>
 7    1  0.2820496E-009  0.7141327E+02  0.7561462E-02  0.1355352E+00
          2   -1    0    0  501    0  0.00000000000E+00  0.00000000000E+00  0.14163102943E+03  0.14163102943E+03  0.00000000000E+00 0.  1.
         -2   -1    0    0    0  501 -0.00000000000E+00 -0.00000000000E+00 -0.91769308371E+02  0.91769308371E+02  0.00000000000E+00 0. -1.
         25    2    1    2    0    0 -0.10936243060E+02  0.45883281112E+02  0.34136171198E+02  0.13796852550E+03  0.12508060979E+03 0.  0.
          5    1    3    3  502    0  0.23430610464E+02  0.24168234252E+02 -0.40529371398E+02  0.52850727521E+02  0.41800000000E+01 0. -1.
         -5    1    3    3    0  502 -0.34366853524E+02  0.21715046859E+02  0.74665542596E+02  0.85117797977E+02  0.41800000000E+01 0. -1.
        -11    1    1    2    0    0  0.28197291457E+02 -0.41598823171E+02 -0.21124761617E+02  0.54514263162E+02  0.00000000000E+00 0. -1.
         11    1    1    2    0    0 -0.17261048396E+02 -0.42844579410E+01  0.36850311476E+02  0.40917549138E+02  0.00000000000E+00 0.  1.
</event>
<event>
 7    1  0.2820496E-009  0.1155959E+03  0.7561462E-02  0.1250545E+00
          2   -1    0    0  501    0  0.00000000000E+00  0.00000000000E+00  0.99664920216E+03  0.99664920216E+03  0.00000000000E+00 0.  1.
         -2   -1    0    0    0  501 -0.00000000000E+00 -0.00000000000E+00 -0.15140601405E+02  0.15140601405E+02  0.00000000000E+00 0. -1.
         25    2    1    2    0    0  0.57357379427E+02  0.12096344983E+02  0.56098017822E+03  0.57773865008E+03  0.12508795665E+03 0.  0.
          5    1    3    3  502    0 -0.13064674359E+02 -0.45132217421E+02  0.17995031169E+03  0.18603007780E+03  0.41800000000E+01 0. -1.
         -5    1    3    3    0  502  0.70422053786E+02  0.57228562403E+02  0.38102986652E+03  0.39170857228E+03  0.41800000000E+01 0. -1.
        -11    1    1    2    0    0 -0.68493268767E+02 -0.27808421675E+02  0.39612763317E+03  0.40296617469E+03  0.00000000000E+00 0.  1.
         11    1    1    2    0    0  0.11135889340E+02  0.15712076692E+02  0.24400789363E+02  0.31084978798E+02  0.00000000000E+00 0. -1.
</event>
<event>
 7    1  0.2820496E-009  0.1055329E+03  0.7561462E-02  0.1269073E+00
          1   -1    0    0  501    0  0.00000000000E+00  0.00000000000E+00  0.22282558524E+03  0.22282558524E+03  0.00000000000E+00 0. -1.
         -1   -1    0    0    0  501 -0.00000000000E+00 -0.00000000000E+00 -0.13406157300E+03  0.13406157300E+03  0.00000000000E+00 0.  1.
         25    2    1    2    0    0  0.69688951284E+02  0.29117622054E+02 -0.67451302021E+02  0.16093970192E+03  0.12509006221E+03 0.  0.
          5    1    3    3  502    0  0.50158139495E+02 -0.81496790552E+01 -0.96843097542E+02  0.10944548491E+03  0.41800000000E+01 0.  1.
         -5    1    3    3    0  502  0.19530811789E+02  0.37267301109E+02  0.29391795522E+02  0.51494217006E+02  0.41800000000E+01 0.  1.
        -11    1    1    2    0    0 -0.73532989488E+02  0.13706826761E+02  0.90419376799E+02  0.11734837597E+03  0.00000000000E+00 0.  1.
         11    1    1    2    0    0  0.38440382040E+01 -0.42824448815E+02  0.65795937453E+02  0.78599080346E+02  0.00000000000E+00 0. -1.
</event>
<event>
 7    1  0.3053049E-009  0.7668947E+02  0.7561462E-02  0.1338718E+00
          2   -1    0    0  501    0  0.00000000000E+00  0.00000000000E+00  0.22876453709E+03  0.22876453709E+03  0.00000000000E+00 0. -1.
         -2   -1    0    0    0  501 -0.00000000000E+00 -0.00000000000E+00 -0.56970609997E+02  0.56970609997E+02  0.00000000000E+00 0.  1.
         25    2    1    2    0    0 -0.17207121039E+02 -0.28572416327E+02  0.11682588784E+03  0.17437938134E+03  0.12508961818E+03 0.  0.
          5    1    3    3  502    0  0.19445848400E+02 -0.35695033326E+02  0.12865581297E+03  0.13498913673E+03  0.41800000000E+01 0.  1.
         -5    1    3    3    0  502 -0.36652969439E+02  0.71226169999E+01 -0.11829925127E+02  0.39390244606E+02  0.41800000000E+01 0.  1.
        -11    1    1    2    0    0 -0.25977097757E+02  0.85835850149E+01  0.57526769021E+02  0.63700994447E+02  0.00000000000E+00 0. -1.
         11    1    1    2    0    0  0.43184218795E+02  0.19988831312E+02 -0.25587297700E+01  0.47654771306E+02  0.00000000000E+00 0.  1.
</event>
<event>
 6    1  0.2820496E-009  0.3232027E+03  0.7561462E-02  0.1074185E+00
          3   -1    0    0  501    0  0.00000000000E+00  0.00000000000E+00  0.54040196512E+02  0.54040196512E+02  0.00000000000E+00 0. -1.
         -3   -1    0    0    0  501 -0.00000000000E+00 -0.00000000000E+00 -0.20659224584E+04  0.20659224584E+04  0.00000000000E+00 0.  1.
          5    1    1    2  502    0  0.81759890225E+02  0.15719990117E+03 -0.73526652428E+03  0.75632719289E+03  0.41800000000E+01 0.  1.
         -5    1    1    2    0  502  0.13090250343E+03  0.74759708738E+02 -0.36558245981E+03  0.39546489955E+03  0.41800000000E+01 0.  1.
        -11    1    1    2    0    0 -0.12340184322E+03 -0.16844203117E+03 -0.48034389687E+03  0.52376616160E+03  0.00000000000E+00 0. -1.
         11    1    1    2    0    0 -0.89260550431E+02 -0.63517578732E+02 -0.43068938088E+03  0.44440440083E+03  0.00000000000E+00 0.  1.
</event>
<event>
 7    1  0.2820496E-009  0.1236352E+03  0.7561462E-02  0.1237218E+00
          1   -1    0    0  501    0  0.00000000000E+00  0.00000000000E+00  0.69533328389E+03  0.69533328389E+03  0.00000000000E+00 0. -1.
         -1   -1    0    0    0  501 -0.00000000000E+00 -0.00000000000E+00 -0.36107436054E+02  0.36107436054E+02  0.00000000000E+00 0.  1.
         25    2    1    2    0    0  0.28494770489E+02  0.98717170115E+02  0.50074713591E+03  0.52626038607E+03  0.12508104653E+03 0.  0.
          5    1    3    3  502    0 -0.23802372444E+02  0.70578648599E+02  0.41633760226E+03  0.42296852132E+03  0.41800000000E+01 0. -1.
         -5    1    3    3    0  502  0.52297142932E+02  0.28138521516E+02  0.84409533651E+02  0.10329186475E+03  0.41800000000E+01 0. -1.
        -11    1    1    2    0    0 -0.15854017623E+02 -0.99225870511E+02  0.16321896780E+03  0.19167043252E+03  0.00000000000E+00 0. -1.
         11    1    1    2    0    0 -0.12640752866E+02  0.50870039637E+00 -0.47402558676E+01  0.13509901361E+02  0.00000000000E+00 0.  1.
</event>
<event>
 7    1  0.2820496E-009  0.9359208E+02  0.7561462E-02  0.1294379E+00
         -1   -1    0    0    0  501 -0.00000000000E+00  0.00000000000E+00  0.28051244788E+02  0.28051244788E+02  0.00000000000E+00 0.  1.
          1   -1    0    0  501    0  0.00000000000E+00 -0.00000000000E+00 -0.59566571187E+03  0.59566571187E+03  0.00000000000E+00 0. -1.
         25    2    1    2    0    0 -0.46069456401E+02  0.29034513920E+02 -0.41874445502E+03  0.44040771253E+03  0.12508651739E+03 0.  0.
          5    1    3    3  502    0 -0.65833091012E+01 -0.33377718903E+02 -0.28925495879E+03  0.29127875938E+03  0.41800000000E+01 0.  1.
         -5    1    3    3    0  502 -0.39486147299E+02  0.62412232823E+02 -0.12948949623E+03  0.14912895315E+03  0.41800000000E+01 0.  1.
        -11    1    1    2    0    0 -0.13373715111E+02 -0.93479880690E+01  0.50981395852E+01  0.17094799328E+02  0.00000000000E+00 0.  1.
         11    1    1    2    0    0  0.59443171512E+02 -0.19686525851E+02 -0.15396815164E+03  0.16621444480E+03  0.00000000000E+00 0. -1.
</event>
<event>
 7    1  0.2820496E-009  0.1003894E+03  0.7561462E-02  0.1279479E+00
          1   -1    0    0  501    0  0.00000000000E+00  0.00000000000E+00  0.18336059707E+03  0.18336059707E+03  0.00000000000E+00 0. -1.
         -1   -1    0    0    0  501 -0.00000000000E+00 -0.00000000000E+00 -0.73302456345E+02  0.73302456345E+02  0.00000000000E+00 0.  1.
         25    2    1    2    0    0  0.45993098574E+01  0.30955836902E+02  0.93110038348E+02  0.15903829407E+03  0.12507710523E+03 0.  0.
          5    1    3    3  502    0 -0.93997309238E+01 -0.36478918963E+02 -0.58992084238E+01  0.38358043878E+02  0.41800000000E+01 0.  1.
         -5    1    3    3    0  502  0.13999040781E+02  0.67434755865E+02  0.99009246771E+02  0.12068025020E+03  0.41800000000E+01 0.  1.
        -11    1    1    2    0    0  0.41107147589E+02 -0.52565444576E+01  0.17990526643E+02  0.45178400718E+02  0.00000000000E+00 0.  1.
         11    1    1    2    0    0 -0.45706457447E+02 -0.25699292445E+02 -0.10424242643E+01  0.52446358623E+02  0.00000000000E+00 0. -1.
</event>
<event>
 7    1  0.2820496E-009  0.1344652E+03  0.7561462E-02  0.1220977E+00
         -2   -1    0    0    0  501 -0.00000000000E+00  0.00000000000E+00  0.39782030162E+02  0.39782030162E+02  0.00000000000E+00 0. -1.
          2   -1    0    0  501    0  0.00000000000E+00 -0.00000000000E+00 -0.50191346129E+03  0.50191346129E+03  0.00000000000E+00 0.  1.
         25    2    1    2    0    0 -0.39575829864E+02 -0.79084193907E+02 -0.26627196912E+03  0.30719501627E+03  0.12508980951E+03 0.  0.
          5    1    3    3  502    0 -0.33450409495E+02 -0.11319751191E+03 -0.21147612827E+03  0.24222351625E+03  0.41800000000E+01 0.  1.
         -5    1    3    3    0  502 -0.61254203686E+01  0.34113317999E+02 -0.54795840849E+02  0.64971500013E+02  0.41800000000E+01 0.  1.
        -11    1    1    2    0    0 -0.16579612524E+02 -0.26027862985E+01 -0.81271030992E+02  0.82985773036E+02  0.00000000000E+00 0.  1.
         11    1    1    2    0    0  0.56155442388E+02  0.81686980205E+02 -0.11458843101E+03  0.15151470215E+03  0.00000000000E+00 0. -1.
</event>
<event>
 7    1  0.2820496E-009  0.1043539E+03  0.7561462E-02  0.1271398E+00
          2   -1    0    0  501    0  0.00000000000E+00  0.00000000000E+00  0.46074186661E+03  0.46074186661E+03  0.00000000000E+00 0. -1.
         -2   -1    0    0    0  501 -0.00000000000E+00 -0.00000000000E+00 -0.30458594957E+02  0.30458594957E+02  0.00000000000E+00 0.  1.
         25    2    1    2    0    0 -0.31172723725E+02  0.38117153273E+02  0.31299936774E+03  0.34064859255E+03  0.12509277887E+03 0.  0.
          5    1    3    3  502    0 -0.62010846786E+02  0.65334904358E+02  0.17923142128E+03  0.20063740833E+03  0.41800000000E+01 0.  1.
         -5    1    3    3    0  502  0.30838123060E+02 -0.27217751085E+02  0.13376794645E+03  0.14001118422E+03  0.41800000000E+01 0.  1.
        -11    1    1    2    0    0  0.48753500428E+02 -0.33026684335E+02  0.40139642641E+02  0.71266097083E+02  0.00000000000E+00 0.  1.
         11    1    1    2    0    0 -0.17580776702E+02 -0.50904689377E+01  0.77144261274E+02  0.79285771932E+02  0.00000000000E+00 0. -1.
</event>
<event>
 7    1  0.2820496E-009  0.6743497E+02  0.7561462E-02  0.1369039E+00
          2   -1    0    0  501    0  0.00000000000E+00  0.00000000000E+00  0.36882932011E+03  0.36882932011E+03  0.00000000000E+00 0. -1.
         -2   -1    0    0    0  501 -0.00000000000E+00 -0.00000000000E+00 -0.35816636100E+02  0.35816636100E+02  0.00000000000E+00 0.  1.
         25    2    1    2    0    0 -0.16267274149E+02 -0.45639030742E+01  0.26218196692E+03  0.29098493241E+03  0.12508954270E+03 0.  0.
          5    1    3    3  502    0 -0.11456848856E+01  0.33533490556E+02  0.24334307823E+03  0.24568095918E+03  0.41800000000E+01 0.  1.
         -5    1    3    3    0  502 -0.15121589264E+02 -0.38097393630E+02  0.18838888691E+02  0.45303973230E+02  0.41800000000E+01 0.  1.
        -11    1    1    2    0    0 -0.13435912368E+02 -0.18066101900E+02 -0.99894950419E+01  0.24631236067E+02  0.00000000000E+00 0.  1.
         11    1    1    2    0    0  0.29703186517E+02  0.22630004974E+02  0.80820212125E+02  0.89029787725E+02  0.00000000000E+00 0. -1.
</event>
<event>
 7    1  0.2820496E-009  0.1024675E+03  0.7561462E-02  0.1275191E+00
         -2   -1    0    0    0  501 -0.00000000000E+00  0.00000000000E+00  0.42156825636E+02  0.42156825636E+02  0.00000000000E+00 0.  1.
          2   -1    0    0  501    0  0.00000000000E+00 -0.00000000000E+00 -0.40858859211E+03  0.40858859211E+03  0.00000000000E+00 0. -1.
         25    2    1    2    0    0 -0.14614063061E+02 -0.34367144206E+02 -0.32259610445E+03  0.34800605107E+03  0.12508114781E+03 0.  0.
          5    1    3    3  502    0 -0.48777612269E+02 -0.66656879134E+02 -0.22152080890E+03  0.23645578058E+03  0.41800000000E+01 0. -1.
         -5    1    3    3    0  502  0.34163549208E+02  0.32289734928E+02 -0.10107529555E+03  0.11155027049E+03  0.41800000000E+01 0. -1.
        -11    1    1    2    0    0 -0.13845510022E+02  0.43099393750E+02  0.50017114590E+01  0.45544187411E+02  0.00000000000E+00 0.  1.
         11    1    1    2    0    0  0.28459573083E+02 -0.87322495436E+01 -0.48837373487E+02  0.57195179266E+02  0.00000000000E+00 0. -1.
</event>
<event>
 7    1  0.2820496E-009  0.1361643E+03  0.7561462E-02  0.1218585E+00
          2   -1    0    0  501    0  0.00000000000E+00  0.00000000000E+00  0.37962303372E+02  0.37962303372E+02  0.00000000000E+00 0.  1.
         -2   -1    0    0    0  501 -0.00000000000E+00 -0.00000000000E+00 -0.52304286408E+03  0.52304286408E+03  0.00000000000E+00 0. -1.
         25    2    1    2    0    0  0.12417770545E+02 -0.85668007315E+02 -0.22071867201E+03  0.26806187544E+03  0.12508888196E+03 0.  0.
          5    1    3    3  502    0 -0.98572133037E+01 -0.11359314735E+03 -0.18512993539E+03  0.21746524586E+03  0.41800000000E+01 0. -1.
         -5    1    3    3    0  502  0.22274983849E+02  0.27925140032E+02 -0.35588736616E+02  0.50596629583E+02  0.41800000000E+01 0. -1.
        -11    1    1    2    0    0 -0.49721456285E+02  0.44703631183E+02 -0.17997489031E+03  0.19199374729E+03  0.00000000000E+00 0. -1.
         11    1    1    2    0    0  0.37303685740E+02  0.40964376132E+02 -0.84386998390E+02  0.10094954472E+03  0.00000000000E+00 0.  1.
</event>
<event>
 7    1  0.2820496E-009  0.1723681E+03  0.7561462E-02  0.1175401E+00
          2   -1    0    0  501    0  0.00000000000E+00  0.00000000000E+00  0.54418981001E+03  0.54418981001E+03  0.00000000000E+00 0. -1.
         -2   -1    0    0    0  501 -0.00000000000E+00 -0.00000000000E+00 -0.59359181578E+02  0.59359181578E+02  0.00000000000E+00 0.  1.
         25    2    1    2    0    0 -0.12829049792E+03  0.47572841212E+02  0.32161073663E+03  0.37121864069E+03  0.12509271043E+03 0.  0.
          5    1    3    3  502    0 -0.14962807850E+03  0.22096127311E+02  0.27408375478E+03  0.31307535475E+03  0.41800000000E+01 0.  1.
         -5    1    3    3    0  502  0.21337580580E+02  0.25476713901E+02  0.47526981848E+02  0.58143285939E+02  0.41800000000E+01 0.  1.
        -11    1    1    2    0    0 -0.41823664004E+00 -0.30032755240E+02  0.10452680971E+02  0.31802513244E+02  0.00000000000E+00 0.  1.
         11    1    1    2    0    0  0.12870873456E+03 -0.17540085972E+02  0.15276721083E+03  0.20052783765E+03  0.00000000000E+00 0. -1.
</event>
<event>
 6    1  0.3212380E-009  0.2383924E+03  0.7561462E-02  0.1120868E+00
         -1   -1    0    0    0  501 -0.00000000000E+00  0.00000000000E+00  0.56232915682E+02  0.56232915682E+02  0.00000000000E+00 0.  1.
          1   -1    0    0  501    0  0.00000000000E+00 -0.00000000000E+00 -0.11145838979E+04  0.11145838979E+04  0.00000000000E+00 0. -1.
          5    1    1    2  502    0 -0.47431404816E+02  0.92348807627E+01 -0.43343801680E+02  0.65047511325E+02  0.41800000000E+01 0. -1.
         -5    1    1    2    0  502 -0.10223774043E+03 -0.16709778429E+03 -0.36495815839E+03  0.41422959196E+03  0.41800000000E+01 0. -1.
        -11    1    1    2    0    0  0.66624658817E+02  0.12762001162E+03 -0.45880660102E+03  0.48086298430E+03  0.00000000000E+00 0.  1.
         11    1    1    2    0    0  0.83044486427E+02  0.30242891909E+02 -0.19124242110E+03  0.21067672597E+03  0.00000000000E+00 0. -1.
</event>
<event>
 7    1  0.2820496E-009  0.1125891E+03  0.7561462E-02  0.1255849E+00
         -2   -1    0    0    0  501 -0.00000000000E+00  0.00000000000E+00  0.10026989060E+03  0.10026989060E+03  0.00000000000E+00 0.  1.
          2   -1    0    0  501    0  0.00000000000E+00 -0.00000000000E+00 -0.16217668765E+03  0.16217668765E+03  0.00000000000E+00 0. -1.
         25    2    1    2    0    0  0.54322671381E+02  0.23787240140E+02 -0.66059942610E+02  0.15338812340E+03  0.12508882829E+03 0.  0.
          5    1    3    3  502    0 -0.21391606843E+02 -0.19195048661E+02  0.16438748045E+02  0.33372976698E+02  0.41800000000E+01 0.  1.
         -5    1    3    3    0  502  0.75714278224E+02  0.42982288801E+02 -0.82498690655E+02  0.12001514670E+03  0.41800000000E+01 0.  1.
        -11    1    1    2    0    0 -0.56661391622E+02  0.23705397219E+02  0.16530516339E+01  0.61442588955E+02  0.00000000000E+00 0.  1.
         11    1    1    2    0    0  0.23387202404E+01 -0.47492637359E+02  0.25000939245E+01  0.47615865899E+02  0.00000000000E+00 0. -1.
</event>
<event>
 7    1  0.2820496E-009  0.1251624E+03  0.7561462E-02  0.1234816E+00
         -1   -1    0    0    0  501 -0.00000000000E+00  0.00000000000E+00  0.79949260281E+02  0.79949260281E+02  0.00000000000E+00 0.  1.
          1   -1    0    0  501    0  0.00000000000E+00 -0.00000000000E+00 -0.29011732053E+03  0.29011732053E+03  0.00000000000E+00 0. -1.
         25    2    1    2    0    0 -0.50549435730E+02  0.62042195631E+02 -0.19652232659E+03  0.24631992497E+03  0.12509197056E+03 0.  0.
          5    1    3    3  502    0 -0.62824965244E+02 -0.10559025334E+01 -0.34149996928E+02  0.71636484268E+02  0.41800000000E+01 0. -1.
         -5    1    3    3    0  502  0.12275529514E+02  0.63098098164E+02 -0.16237232966E+03  0.17468344071E+03  0.41800000000E+01 0. -1.
        -11    1    1    2    0    0  0.48953394852E+02  0.10754771516E+02 -0.74103688208E+01  0.50665703824E+02  0.00000000000E+00 0. -1.
         11    1    1    2    0    0  0.15960408777E+01 -0.72796967147E+02 -0.62353648347E+01  0.73080952011E+02  0.00000000000E+00 0.  1.
</event>
<event>
 7    1  0.2820496E-009  0.1404793E+03  0.7561462E-02  0.1212686E+00
         -2   -1    0    0    0  501 -0.00000000000E+00  0.00000000000E+00  0.85783260374E+02  0.85783260374E+02  0.00000000000E+00 0.  1.
          2   -1    0    0  501    0  0.00000000000E+00 -0.00000000000E+00 -0.28697779708E+03  0.28697779708E+03  0.00000000000E+00 0. -1.
         25    2    1    2    0    0 -0.49222684958E+02  0.85843686547E+02 -0.46016758832E+02  0.16600340356E+03  0.12509027406E+03 0.  0.
          5    1    3    3  502    0 -0.83484122591E+02  0.60323142326E+02 -0.11831343994E-01  0.10308226213E+03  0.41800000000E+01 0. -1.
         -5    1    3    3    0  502  0.34261437633E+02  0.25520544221E+02 -0.46004927488E+02  0.62921141433E+02  0.41800000000E+01 0. -1.
        -11    1    1    2    0    0  0.76631312502E+02 -0.65630875172E+02 -0.12918316953E+03  0.16391479836E+03  0.00000000000E+00 0.  1.
         11    1    1    2    0    0 -0.27408627544E+02 -0.20212811375E+02 -0.25994608345E+02  0.42842855537E+02  0.00000000000E+00 0. -1.
</event>
<event>
 7    1  0.2820496E-009  0.1263726E+03  0.7561462E-02  0.1232940E+00
         -1   -1    0    0    0  501 -0.00000000000E+00  0.00000000000E+00  0.56461651625E+02  0.56461651625E+02  0.00000000000E+00 0.  1.
          1   -1    0    0  501    0  0.00000000000E+00 -0.00000000000E+00 -0.45776384428E+03  0.45776384428E+03  0.00000000000E+00 0. -1.
         25    2    1    2    0    0  0.78786786856E+02  0.63127684933E+02 -0.31290348768E+03  0.35177754476E+03  0.12508551478E+03 0.  0.
          5    1    3    3  502    0  0.68707539482E+02  0.11512447958E+02 -0.55907307275E+02  0.89422378890E+02  0.41800000000E+01 0.  1.
         -5    1    3    3    0  502  0.10079247374E+02  0.51615236974E+02 -0.25699618040E+03  0.26235516587E+03  0.41800000000E+01 0.  1.
        -11    1    1    2    0    0 -0.52111443312E+02 -0.82255927807E+02 -0.43049006383E+02  0.10646528605E+03  0.00000000000E+00 0.  1.
         11    1    1    2    0    0 -0.26675343544E+02  0.19128242875E+02 -0.45349698597E+02  0.55982665098E+02  0.00000000000E+00 0. -1.
</event>
