<event>
 6    1  0.6597032E-006  0.9038259E+02  0.7561462E-02  0.1301928E+00
          1   -1    0    0  501    0  0.00000000000E+00  0.00000000000E+00  0.48921580627E+02  0.48921580627E+02  0.00000000000E+00 0. -1.
         -1   -1    0    0    0  501 -0.00000000000E+00 -0.00000000000E+00 -0.27062347829E+03  0.27062347829E+03  0.00000000000E+00 0.  1.
          5    1    1    2  502    0 -0.39425110810E+02 -0.13789195520E+02 -0.19962858497E+02  0.46480849765E+02  0.41800000000E+01 0.  1.
         -5    1    1    2    0  502  0.62949475571E+02 -0.57086980520E+01 -0.18530206253E+03  0.19583041767E+03  0.41800000000E+01 0.  1.
        -11    1    1    2    0    0  0.24441943200E+02  0.25643260886E+01 -0.62051382149E+01  0.25347348894E+02  0.00000000000E+00 0.  1.
         11    1    1    2    0    0 -0.47966307962E+02  0.16933567484E+02 -0.10231838428E+02  0.51886442592E+02  0.00000000000E+00 0. -1.
</event>
<event>
 6    1  0.6597032E-006  0.1574267E+03  0.7561462E-02  0.1191633E+00
          4   -1    0    0  501    0  0.00000000000E+00  0.00000000000E+00  0.10862856531E+03  0.10862856531E+03  0.00000000000E+00 0. -1.
         -4   -1    0    0    0  501 -0.00000000000E+00 -0.00000000000E+00 -0.23543624562E+03  0.23543624562E+03  0.00000000000E+00 0.  1.
          5    1    1    2  502    0 -0.22659307086E+02  0.13304245636E+03 -0.47005017398E+02  0.14297091820E+03  0.41800000000E+01 0. -1.
         -5    1    1    2    0  502  0.26485972393E+02 -0.16753033415E+02 -0.32903756914E+02  0.45632230729E+02  0.41800000000E+01 0. -1.
        -11    1    1    2    0    0 -0.35289204035E+02 -0.11078893972E+03 -0.36233858865E+02  0.12178838046E+03  0.00000000000E+00 0. -1.
         11    1    1    2    0    0  0.31462538728E+02 -0.55004832191E+01 -0.10665047132E+02  0.33673281533E+02  0.00000000000E+00 0.  1.
</event>
<event>
 6    1  0.6597032E-006  0.8342584E+02  0.7561462E-02  0.1319601E+00
         -1   -1    0    0    0  501 -0.00000000000E+00  0.00000000000E+00  0.99495541545E+02  0.99495541545E+02  0.00000000000E+00 0.  1.
          1   -1    0    0  501    0  0.00000000000E+00 -0.00000000000E+00 -0.14705577414E+03  0.14705577414E+03  0.00000000000E+00 0. -1.
          5    1    1    2  502    0  0.10731496241E+02 -0.24941987078E+02  0.60630685896E+02  0.66564406429E+02  0.41800000000E+01 0.  1.
         -5    1    1    2    0  502 -0.32980079139E+02  0.35257268061E+02 -0.39662031095E+02  0.62620361558E+02  0.41800000000E+01 0.  1.
        -11    1    1    2    0    0  0.35184352009E+02  0.31453918321E+02 -0.17914280725E+02  0.50479788608E+02  0.00000000000E+00 0.  1.
         11    1    1    2    0    0 -0.12935769110E+02 -0.41769199305E+02 -0.50614606670E+02  0.66886759089E+02  0.00000000000E+00 0. -1.
</event>
<event>
 6    1  0.6597032E-006  0.1082147E+03  0.7561462E-02  0.1263912E+00
          1   -1    0    0  501    0  0.00000000000E+00  0.00000000000E+00  0.86580032214E+03  0.86580032214E+03  0.00000000000E+00 0. -1.
         -1   -1    0    0    0  501 -0.00000000000E+00 -0.00000000000E+00 -0.19085998794E+02  0.19085998794E+02  0.00000000000E+00 0.  1.
          5    1    1    2  502    0  0.39819912508E+02 -0.18661634604E+02  0.42937707361E+02  0.61603580673E+02  0.41800000000E+01 0.  1.
         -5    1    1    2    0  502 -0.58274550703E+02 -0.37827948928E+02  0.30599839506E+03  0.31381422396E+03  0.41800000000E+01 0.  1.
        -11    1    1    2    0    0  0.37677602496E+01 -0.22244725443E+02  0.54048458960E+02  0.58568419334E+02  0.00000000000E+00 0.  1.
         11    1    1    2    0    0  0.14686877945E+02  0.78734308975E+02  0.44372976196E+03  0.45090009696E+03  0.00000000000E+00 0. -1.
</event>
<event>
 6    1  0.6597032E-006  0.1060565E+03  0.7561462E-02  0.1268052E+00
         -3   -1    0    0    0  501 -0.00000000000E+00  0.00000000000E+00  0.52505914097E+03  0.52505914097E+03  0.00000000000E+00 0.  1.
          3   -1    0    0  501    0  0.00000000000E+00 -0.00000000000E+00 -0.69165554973E+02  0.69165554973E+02  0.00000000000E+00 0. -1.
          5    1    1    2  502    0  0.14628804253E+02  0.35664135536E+02  0.36987112232E+03  0.37189790535E+03  0.41800000000E+01 0. -1.
         -5    1    1    2    0  502  0.60007263181E+02 -0.15775973853E+02  0.79725265422E+02  0.10111055005E+03  0.41800000000E+01 0. -1.
        -11    1    1    2    0    0 -0.84325261305E+02 -0.36528053967E+02  0.24086666702E+02  0.95001136486E+02  0.00000000000E+00 0.  1.
         11    1    1    2    0    0  0.96891938707E+01  0.16639892283E+02 -0.17789468445E+02  0.26215104055E+02  0.00000000000E+00 0. -1.
</event>
<event>
 6    1  0.6597032E-006  0.1311586E+03  0.7561462E-02  0.1225747E+00
         -1   -1    0    0    0  501 -0.00000000000E+00  0.00000000000E+00  0.85625958156E+03  0.85625958156E+03  0.00000000000E+00 0.  1.
          1   -1    0    0  501    0  0.00000000000E+00 -0.00000000000E+00 -0.24514206037E+02  0.24514206037E+02  0.00000000000E+00 0. -1.
          5    1    1    2  502    0  0.16182681918E+02 -0.26503868528E+02  0.19935326895E+03  0.20180072468E+03  0.41800000000E+01 0.  1.
         -5    1    1    2    0  502  0.20668699765E+01  0.11227798091E+03  0.29794310823E+03  0.31843081681E+03  0.41800000000E+01 0.  1.
        -11    1    1    2    0    0 -0.31982133269E+02 -0.24391777842E+00  0.18548315194E+03  0.18822039209E+03  0.00000000000E+00 0.  1.
         11    1    1    2    0    0  0.13732581375E+02 -0.85530194601E+02  0.14896584641E+03  0.17232185403E+03  0.00000000000E+00 0. -1.
</event>
<event>
 6    1  0.6597032E-006  0.1090146E+03  0.7561462E-02  0.1262406E+00
          2   -1    0    0  501    0  0.00000000000E+00  0.00000000000E+00  0.12419066788E+03  0.12419066788E+03  0.00000000000E+00 0. -1.
         -2   -1    0    0    0  501 -0.00000000000E+00 -0.00000000000E+00 -0.16199751327E+03  0.16199751327E+03  0.00000000000E+00 0.  1.
          5    1    1    2  502    0 -0.22072219773E+02  0.25582954639E+02  0.44622679375E+02  0.56127768247E+02  0.41800000000E+01 0. -1.
         -5    1    1    2    0  502 -0.60297689995E+02  0.96804112425E+01 -0.81798552151E+02  0.10216651758E+03  0.41800000000E+01 0. -1.
        -11    1    1    2    0    0 -0.16877735841E+02 -0.12345406808E+02  0.13746790057E+02  0.25024813151E+02  0.00000000000E+00 0. -1.
         11    1    1    2    0    0  0.99247645609E+02 -0.22917959074E+02 -0.14377762672E+02  0.10286908217E+03  0.00000000000E+00 0.  1.
</event>
<event>
 6    1  0.6597032E-006  0.8794911E+02  0.7561462E-02  0.1307896E+00
          4   -1    0    0  501    0  0.00000000000E+00  0.00000000000E+00  0.77672464734E+02  0.77672464734E+02  0.00000000000E+00 0. -1.
         -4   -1    0    0    0  501 -0.00000000000E+00 -0.00000000000E+00 -0.23546463335E+03  0.23546463335E+03  0.00000000000E+00 0.  1.
          5    1    1    2  502    0  0.27810372034E+02 -0.34159516736E+02 -0.10904715425E+02  0.45570545255E+02  0.41800000000E+01 0. -1.
         -5    1    1    2    0  502 -0.60665008992E+02  0.69040885307E+01 -0.15434002502E+03  0.16603079678E+03  0.41800000000E+01 0. -1.
        -11    1    1    2    0    0  0.47609601289E+02  0.11729261175E+02  0.39517339418E+02  0.62975152380E+02  0.00000000000E+00 0. -1.
         11    1    1    2    0    0 -0.14754964331E+02  0.15526167030E+02 -0.32064767587E+02  0.38560603671E+02  0.00000000000E+00 0.  1.
</event>
<event>
 6    1  0.6597032E-006  0.1008937E+03  0.7561462E-02  0.1278428E+00
         -2   -1    0    0    0  501 -0.00000000000E+00  0.00000000000E+00  0.25492741960E+03  0.25492741960E+03  0.00000000000E+00 0.  1.
          2   -1    0    0  501    0  0.00000000000E+00 -0.00000000000E+00 -0.57294972448E+02  0.57294972448E+02  0.00000000000E+00 0. -1.
          5    1    1    2  502    0 -0.43223564024E+02  0.60197209641E+02  0.11294198507E+03  0.13514934305E+03  0.41800000000E+01 0. -1.
         -5    1    1    2    0  502  0.49330392885E+02 -0.14269984977E+02  0.26953317949E+02  0.58147002347E+02  0.41800000000E+01 0. -1.
        -11    1    1    2    0    0 -0.30664908842E+02 -0.40651886144E+02  0.73393319110E+02  0.89328001049E+02  0.00000000000E+00 0.  1.
         11    1    1    2    0    0  0.24558079982E+02 -0.52753385200E+01 -0.15656174972E+02  0.29598045605E+02  0.00000000000E+00 0. -1.
</event>
<event>
 6    1  0.6597032E-006  0.7649911E+02  0.7561462E-02  0.1339291E+00
          2   -1    0    0  501    0  0.00000000000E+00  0.00000000000E+00  0.70840834296E+03  0.70840834296E+03  0.00000000000E+00 0. -1.
         -2   -1    0    0    0  501 -0.00000000000E+00 -0.00000000000E+00 -0.19035723010E+02  0.19035723010E+02  0.00000000000E+00 0.  1.
          5    1    1    2  502    0 -0.24368063324E+02 -0.23076924463E+02  0.31914130270E+03  0.32092832602E+03  0.41800000000E+01 0.  1.
         -5    1    1    2    0  502 -0.11645283519E+02  0.26219245777E+02  0.64044206676E+01  0.29690915807E+02  0.41800000000E+01 0.  1.
        -11    1    1    2    0    0  0.61464621847E+02 -0.13118920775E+02  0.31161113384E+03  0.31788599301E+03  0.00000000000E+00 0. -1.
         11    1    1    2    0    0 -0.25451275004E+02  0.99765994599E+01  0.52215762739E+02  0.58938831127E+02  0.00000000000E+00 0.  1.
</event>
<event>
 6    1  0.6597032E-006  0.1150898E+03  0.7561462E-02  0.1251425E+00
         -2   -1    0    0    0  501 -0.00000000000E+00  0.00000000000E+00  0.31605410687E+02  0.31605410687E+02  0.00000000000E+00 0.  1.
          2   -1    0    0  501    0  0.00000000000E+00 -0.00000000000E+00 -0.47355116460E+03  0.47355116460E+03  0.00000000000E+00 0. -1.
          5    1    1    2  502    0  0.83359093037E+02 -0.28396057177E+02 -0.12813869403E+03  0.15553800746E+03  0.41800000000E+01 0. -1.
         -5    1    1    2    0  502 -0.45980069389E+02 -0.74566138215E+01 -0.83075835782E+02  0.95335380429E+02  0.41800000000E+01 0. -1.
        -11    1    1    2    0    0  0.17952177750E+01 -0.23808844131E+02 -0.18009215260E+02  0.29906783511E+02  0.00000000000E+00 0.  1.
         11    1    1    2    0    0 -0.39174241423E+02  0.59661515129E+02 -0.21272200884E+03  0.22437640389E+03  0.00000000000E+00 0. -1.
</event>
<event>
 6    1  0.6597032E-006  0.1068984E+03  0.7561462E-02  0.1266424E+00
         -1   -1    0    0    0  501 -0.00000000000E+00  0.00000000000E+00  0.96343116702E+02  0.96343116702E+02  0.00000000000E+00 0.  1.
          1   -1    0    0  501    0  0.00000000000E+00 -0.00000000000E+00 -0.19844594167E+03  0.19844594167E+03  0.00000000000E+00 0. -1.
          5    1    1    2  502    0  0.71458918650E+02 -0.61823832777E+02  0.20555315357E+02  0.96791305102E+02  0.41800000000E+01 0.  1.
         -5    1    1    2    0  502 -0.27149058467E+01  0.37692055427E+02 -0.29718814026E+02  0.48257041592E+02  0.41800000000E+01 0.  1.
        -11    1    1    2    0    0 -0.47892198275E+02 -0.17896898868E+01  0.31761964603E+01  0.48030759618E+02  0.00000000000E+00 0.  1.
         11    1    1    2    0    0 -0.20851814529E+02  0.25921467237E+02 -0.96115522757E+02  0.10170995206E+03  0.00000000000E+00 0. -1.
</event>
<event>
 6    1  0.6597032E-006  0.1685725E+03  0.7561462E-02  0.1179345E+00
         -1   -1    0    0    0  501 -0.00000000000E+00  0.00000000000E+00  0.30970674097E+03  0.30970674097E+03  0.00000000000E+00 0.  1.
          1   -1    0    0  501    0  0.00000000000E+00 -0.00000000000E+00 -0.11186233546E+03  0.11186233546E+03  0.00000000000E+00 0. -1.
          5    1    1    2  502    0 -0.80910225536E+02 -0.12495372979E+02  0.77289744983E+02  0.11266665887E+03  0.41800000000E+01 0.  1.
         -5    1    1    2    0  502 -0.24693005926E+02  0.10113150618E+03  0.96602906828E+02  0.14208068163E+03  0.41800000000E+01 0.  1.
        -11    1    1    2    0    0  0.10516529553E+03 -0.57528559898E+02  0.46314176627E+02  0.12850788903E+03  0.00000000000E+00 0.  1.
         11    1    1    2    0    0  0.43793593519E+00 -0.31107573307E+02 -0.22362422927E+02  0.38313846897E+02  0.00000000000E+00 0. -1.
</event>
<event>
 6    1  0.6597032E-006  0.7646052E+02  0.7561462E-02  0.1339407E+00
         -2   -1    0    0    0  501 -0.00000000000E+00  0.00000000000E+00  0.11766690101E+03  0.11766690101E+03  0.00000000000E+00 0.  1.
          2   -1    0    0  501    0  0.00000000000E+00 -0.00000000000E+00 -0.13023829923E+03  0.13023829923E+03  0.00000000000E+00 0. -1.
          5    1    1    2  502    0 -0.17075419469E+02 -0.31446168789E+02 -0.68292774993E+02  0.77212738572E+02  0.41800000000E+01 0.  1.
         -5    1    1    2    0  502 -0.23283436388E+02 -0.92285529635E+01  0.55436746623E+02  0.60975321860E+02  0.41800000000E+01 0.  1.
        -11    1    1    2    0    0  0.49906014794E+02  0.55012862795E+02  0.26059916014E+02  0.78715593170E+02  0.00000000000E+00 0.  1.
         11    1    1    2    0    0 -0.95471589369E+01 -0.14338141042E+02 -0.25775285860E+02  0.31001546631E+02  0.00000000000E+00 0. -1.
</event>
<event>
 6    1  0.6597032E-006  0.1248984E+03  0.7561462E-02  0.1235228E+00
         -2   -1    0    0    0  501 -0.00000000000E+00  0.00000000000E+00  0.72891672822E+02  0.72891672822E+02  0.00000000000E+00 0.  1.
          2   -1    0    0  501    0  0.00000000000E+00 -0.00000000000E+00 -0.29965135876E+03  0.29965135876E+03  0.00000000000E+00 0. -1.
          5    1    1    2  502    0 -0.21471467422E+02 -0.66305308993E+01 -0.65378903676E+02  0.69259376976E+02  0.41800000000E+01 0.  1.
         -5    1    1    2    0  502  0.10326094809E+03 -0.46279053610E+02 -0.35523574754E+02  0.11867590728E+03  0.41800000000E+01 0.  1.
        -11    1    1    2    0    0 -0.31971623531E+02 -0.99627774337E+01  0.21346224807E+01  0.33555897523E+02  0.00000000000E+00 0.  1.
         11    1    1    2    0    0 -0.49817857141E+02  0.62872361944E+02 -0.12799182999E+03  0.15105184980E+03  0.00000000000E+00 0. -1.
</event>
<event>
 6    1  0.6597032E-006  0.1463606E+03  0.7561462E-02  0.1205018E+00
         -1   -1    0    0    0  501 -0.00000000000E+00  0.00000000000E+00  0.22922953700E+03  0.22922953700E+03  0.00000000000E+00 0.  1.
          1   -1    0    0  501    0  0.00000000000E+00 -0.00000000000E+00 -0.11463269932E+03  0.11463269932E+03  0.00000000000E+00 0. -1.
          5    1    1    2  502    0  0.11227501883E+03  0.61770641343E+02  0.12470103434E+03  0.17885500370E+03  0.41800000000E+01 0.  1.
         -5    1    1    2    0  502 -0.19268107384E+02 -0.17429008232E+02  0.12709944636E+01  0.26346121480E+02  0.41800000000E+01 0.  1.
        -11    1    1    2    0    0 -0.67252616388E+01 -0.51198477801E+02 -0.39116468617E+01  0.51786236148E+02  0.00000000000E+00 0.  1.
         11    1    1    2    0    0 -0.86281649803E+02  0.68568446887E+01 -0.74635442664E+01  0.86874874992E+02  0.00000000000E+00 0. -1.
</event>
<event>
 6    1  0.6597032E-006  0.1325051E+03  0.7561462E-02  0.1223785E+00
         -1   -1    0    0    0  501 -0.00000000000E+00  0.00000000000E+00  0.38463108358E+02  0.38463108358E+02  0.00000000000E+00 0.  1.
          1   -1    0    0  501    0  0.00000000000E+00 -0.00000000000E+00 -0.52769603219E+03  0.52769603219E+03  0.00000000000E+00 0. -1.
          5    1    1    2  502    0  0.41998402392E+02 -0.73320258530E+00 -0.15651299777E+03  0.16210550349E+03  0.41800000000E+01 0.  1.
         -5    1    1    2    0  502 -0.61501266610E+02  0.80677978141E+02 -0.19169068369E+03  0.21691964541E+03  0.41800000000E+01 0.  1.
        -11    1    1    2    0    0 -0.13485977606E+02  0.15343952060E+02 -0.36929932002E+02  0.42203416147E+02  0.00000000000E+00 0.  1.
         11    1    1    2    0    0  0.32988841824E+02 -0.95288727615E+02 -0.10409931036E+03  0.14493057549E+03  0.00000000000E+00 0. -1.
</event>
<event>
 6    1  0.6597032E-006  0.1127075E+03  0.7561462E-02  0.1255637E+00
         -1   -1    0    0    0  501 -0.00000000000E+00  0.00000000000E+00  0.52009839004E+02  0.52009839004E+02  0.00000000000E+00 0.  1.
          1   -1    0    0  501    0  0.00000000000E+00 -0.00000000000E+00 -0.27591278330E+03  0.27591278330E+03  0.00000000000E+00 0. -1.
          5    1    1    2  502    0  0.61483841231E+02  0.56048172727E+02 -0.72050623542E+02  0.11013820932E+03  0.41800000000E+01 0. -1.
         -5    1    1    2    0  502 -0.50191499984E+02 -0.77146436561E+01 -0.54207756222E+02  0.74395266193E+02  0.41800000000E+01 0. -1.
        -11    1    1    2    0    0 -0.44271016239E+02 -0.26188079195E+02 -0.88908847323E+02  0.10271573153E+03  0.00000000000E+00 0. -1.
         11    1    1    2    0    0  0.32978674992E+02 -0.22145449876E+02 -0.87357172089E+01  0.40673415268E+02  0.00000000000E+00 0.  1.
</event>
<event>
 6    1  0.6597032E-006  0.9816908E+02  0.7561462E-02  0.1284194E+00
         -1   -1    0    0    0  501 -0.00000000000E+00  0.00000000000E+00  0.61023654252E+03  0.61023654252E+03  0.00000000000E+00 0.  1.
          1   -1    0    0  501    0  0.00000000000E+00 -0.00000000000E+00 -0.39643280595E+02  0.39643280595E+02  0.00000000000E+00 0. -1.
          5    1    1    2  502    0 -0.15702828880E+02  0.29064832605E+02  0.40734617637E+03  0.40870493407E+03  0.41800000000E+01 0. -1.
         -5    1    1    2    0  502  0.59645007250E+02  0.71628375844E+01  0.98221561778E+02  0.11521189492E+03  0.41800000000E+01 0. -1.
        -11    1    1    2    0    0 -0.38348102590E+02  0.22076389151E+02  0.95036229493E+01  0.45257737232E+02  0.00000000000E+00 0.  1.
         11    1    1    2    0    0 -0.55940757801E+01 -0.58304059340E+02  0.55521900829E+02  0.80705256898E+02  0.00000000000E+00 0. -1.
</event>
<event>
 6    1  0.6597032E-006  0.9518705E+02  0.7561462E-02  0.1290755E+00
         -1   -1    0    0    0  501 -0.00000000000E+00  0.00000000000E+00  0.19343547331E+03  0.19343547331E+03  0.00000000000E+00 0.  1.
          1   -1    0    0  501    0  0.00000000000E+00 -0.00000000000E+00 -0.83577388693E+02  0.83577388693E+02  0.00000000000E+00 0. -1.
          5    1    1    2  502    0 -0.28325768994E+01 -0.17969421384E+02 -0.22726111385E+02  0.29408708496E+02  0.41800000000E+01 0.  1.
         -5    1    1    2    0  502 -0.33240257529E+02  0.59398130156E+02  0.12096663473E+03  0.13886486851E+03  0.41800000000E+01 0.  1.
        -11    1    1    2    0    0 -0.35382918422E+01 -0.59761493894E+02 -0.88746644159E+01  0.60520371199E+02  0.00000000000E+00 0. -1.
         11    1    1    2    0    0  0.39611126271E+02  0.18332785122E+02  0.20492225686E+02  0.48218913803E+02  0.00000000000E+00 0.  1.
</event>
<event>
 6    1  0.6597032E-006  0.1548981E+03  0.7561462E-02  0.1194580E+00
         -1   -1    0    0    0  501 -0.00000000000E+00  0.00000000000E+00  0.39957850333E+03  0.39957850333E+03  0.00000000000E+00 0.  1.
          1   -1    0    0  501    0  0.00000000000E+00 -0.00000000000E+00 -0.82551298901E+02  0.82551298901E+02  0.00000000000E+00 0. -1.
          5    1    1    2  502    0  0.21561951358E+02  0.12487655267E+03  0.25073587269E+03  0.28097156690E+03  0.41800000000E+01 0. -1.
         -5    1    1    2    0  502  0.30600819965E+02 -0.80803610274E+01  0.68469225553E+01  0.32650500231E+02  0.41800000000E+01 0. -1.
        -11    1    1    2    0    0 -0.55031403320E+02 -0.27110486626E+02  0.48315745317E+02  0.78088700092E+02  0.00000000000E+00 0.  1.
         11    1    1    2    0    0  0.28686319973E+01 -0.89685705015E+02  0.11128663874E+02  0.90419035016E+02  0.00000000000E+00 0. -1.
</event>
<event>
 6    1  0.6597032E-006  0.1236512E+03  0.7561462E-02  0.1237192E+00
          1   -1    0    0  501    0  0.00000000000E+00  0.00000000000E+00  0.19538074749E+02  0.19538074749E+02  0.00000000000E+00 0. -1.
         -1   -1    0    0    0  501 -0.00000000000E+00 -0.00000000000E+00 -0.11212031511E+04  0.11212031511E+04  0.00000000000E+00 0.  1.
          5    1    1    2  502    0  0.63024174256E+02  0.17422443720E+02 -0.45369339678E+03  0.45840021681E+03  0.41800000000E+01 0. -1.
         -5    1    1    2    0  502 -0.88161916670E+01 -0.79954703350E+02 -0.34769068237E+03  0.35689881316E+03  0.41800000000E+01 0. -1.
        -11    1    1    2    0    0  0.13342360703E-01  0.43899600139E+02 -0.23275856995E+03  0.23686225312E+03  0.00000000000E+00 0.  1.
         11    1    1    2    0    0 -0.54221324950E+02  0.18632659491E+02 -0.67522427263E+02  0.88579942778E+02  0.00000000000E+00 0. -1.
</event>
<event>
 6    1  0.6597032E-006  0.1251588E+03  0.7561462E-02  0.1234821E+00
          1   -1    0    0  501    0  0.00000000000E+00  0.00000000000E+00  0.15821916651E+03  0.15821916651E+03  0.00000000000E+00 0. -1.
         -1   -1    0    0    0  501 -0.00000000000E+00 -0.00000000000E+00 -0.12477978370E+03  0.12477978370E+03  0.00000000000E+00 0.  1.
          5    1    1    2  502    0  0.79930503970E+02  0.50754880519E+02  0.12404311108E+01  0.94783724503E+02  0.41800000000E+01 0.  1.
         -5    1    1    2    0  502 -0.48708850976E+02  0.31277426277E+02  0.60989355274E+00  0.58040278498E+02  0.41800000000E+01 0.  1.
        -11    1    1    2    0    0 -0.39728132347E+02 -0.47420145563E+02 -0.22134524311E+02  0.65703362710E+02  0.00000000000E+00 0.  1.
         11    1    1    2    0    0  0.85064793531E+01 -0.34612161233E+02  0.53723582454E+02  0.64471584500E+02  0.00000000000E+00 0. -1.
</event>
<event>
 6    1  0.6597032E-006  0.1159950E+03  0.7561462E-02  0.1249854E+00
          2   -1    0    0  501    0  0.00000000000E+00  0.00000000000E+00  0.84548487076E+03  0.84548487076E+03  0.00000000000E+00 0. -1.
         -2   -1    0    0    0  501 -0.00000000000E+00 -0.00000000000E+00 -0.18399330829E+02  0.18399330829E+02  0.00000000000E+00 0.  1.
          5    1    1    2  502    0 -0.61747216578E+02  0.22397415433E+02  0.24696784232E+03  0.25558746157E+03  0.41800000000E+01 0. -1.
         -5    1    1    2    0  502  0.22600250671E+02 -0.57469352102E+02  0.10874753236E+03  0.12512791837E+03  0.41800000000E+01 0. -1.
        -11    1    1    2    0    0  0.39416275098E+02  0.64099977286E+02  0.29616963171E+03  0.30557961414E+03  0.00000000000E+00 0.  1.
         11    1    1    2    0    0 -0.26930919048E+00 -0.29028040617E+02  0.17520053354E+03  0.17758920750E+03  0.00000000000E+00 0. -1.
</event>
<event>
 6    1  0.6597032E-006  0.1028678E+03  0.7561462E-02  0.1274378E+00
          1   -1    0    0  501    0  0.00000000000E+00  0.00000000000E+00  0.35272961558E+03  0.35272961558E+03  0.00000000000E+00 0. -1.
         -1   -1    0    0    0  501 -0.00000000000E+00 -0.00000000000E+00 -0.41279962247E+02  0.41279962247E+02  0.00000000000E+00 0.  1.
          5    1    1    2  502    0  0.93617215780E+01 -0.61692197002E+02  0.31098927944E+02  0.69844002757E+02  0.41800000000E+01 0. -1.
         -5    1    1    2    0  502  0.49420680116E+01  0.59256314075E+02  0.67792484373E+02  0.90271967583E+02  0.41800000000E+01 0. -1.
        -11    1    1    2    0    0 -0.47539640107E+02 -0.91094131012E+01  0.17842143312E+03  0.18487078348E+03  0.00000000000E+00 0. -1.
         11    1    1    2    0    0  0.33235850518E+02  0.11545296028E+02  0.34136807894E+02  0.49022824003E+02  0.00000000000E+00 0.  1.
</event>
<event>
 6    1  0.6597032E-006  0.8118368E+02  0.7561462E-02  0.1325725E+00
         -2   -1    0    0    0  501 -0.00000000000E+00  0.00000000000E+00  0.11796716727E+03  0.11796716727E+03  0.00000000000E+00 0.  1.
          2   -1    0    0  501    0  0.00000000000E+00 -0.00000000000E+00 -0.84755544099E+02  0.84755544099E+02  0.00000000000E+00 0. -1.
          5    1    1    2  502    0  0.58170541757E+02 -0.27565308033E+02 -0.19557847055E+02  0.67406527256E+02  0.41800000000E+01 0. -1.
         -5    1    1    2    0  502 -0.65157720942E+02  0.11896086341E+02  0.65827800605E+02  0.93476292188E+02  0.41800000000E+01 0.  1.
        -11    1    1    2    0    0  0.17023277199E+02  0.11914480422E+02 -0.20186827655E+02  0.28969895083E+02  0.00000000000E+00 0.  1.
         11    1    1    2    0    0 -0.10036098014E+02  0.37547412699E+01  0.71284972769E+01  0.12869996845E+02  0.00000000000E+00 0. -1.
</event>
<event>
 6    1  0.6597032E-006  0.1110102E+03  0.7561462E-02  0.1258711E+00
          2   -1    0    0  501    0  0.00000000000E+00  0.00000000000E+00  0.30567560565E+03  0.30567560565E+03  0.00000000000E+00 0. -1.
         -2   -1    0    0    0  501 -0.00000000000E+00 -0.00000000000E+00 -0.60954029888E+02  0.60954029888E+02  0.00000000000E+00 0.  1.
          5    1    1    2  502    0 -0.28405323538E+02  0.50824973851E+02  0.32453987701E+02  0.66789026718E+02  0.41800000000E+01 0.  1.
         -5    1    1    2    0  502 -0.37860347013E+02 -0.76490621727E+02  0.42796492520E+02  0.95567951009E+02  0.41800000000E+01 0.  1.
        -11    1    1    2    0    0  0.41081017855E+02 -0.15575213989E+01  0.12483596250E+02  0.42964125457E+02  0.00000000000E+00 0.  1.
         11    1    1    2    0    0  0.25184652696E+02  0.27223169275E+02  0.15698749929E+03  0.16130853236E+03  0.00000000000E+00 0. -1.
</event>
<event>
 6    1  0.6597032E-006  0.8096595E+02  0.7561462E-02  0.1326332E+00
         -1   -1    0    0    0  501 -0.00000000000E+00  0.00000000000E+00  0.10392108142E+03  0.10392108142E+03  0.00000000000E+00 0.  1.
          1   -1    0    0  501    0  0.00000000000E+00 -0.00000000000E+00 -0.12816242788E+03  0.12816242788E+03  0.00000000000E+00 0. -1.
          5    1    1    2  502    0 -0.13514265652E+02  0.71728876600E+02 -0.16190417526E+02  0.74881700929E+02  0.41800000000E+01 0. -1.
         -5    1    1    2    0  502  0.52528291752E+01 -0.52364619584E+02  0.15177017803E+01  0.52814973419E+02  0.41800000000E+01 0. -1.
        -11    1    1    2    0    0  0.14992747205E+02  0.55438004404E+00  0.44187604275E+02  0.46665128068E+02  0.00000000000E+00 0.  1.
         11    1    1    2    0    0 -0.67313107288E+01 -0.19918637059E+02 -0.53756234983E+02  0.57721706887E+02  0.00000000000E+00 0. -1.
</event>
<event>
 6    1  0.6597032E-006  0.1073623E+03  0.7561462E-02  0.1265534E+00
         -2   -1    0    0    0  501 -0.00000000000E+00  0.00000000000E+00  0.13714785483E+03  0.13714785483E+03  0.00000000000E+00 0.  1.
          2   -1    0    0  501    0  0.00000000000E+00 -0.00000000000E+00 -0.85627140353E+02  0.85627140353E+02  0.00000000000E+00 0. -1.
          5    1    1    2  502    0  0.64076783322E+02 -0.36601977018E+01  0.19219782016E+02  0.67127517673E+02  0.41800000000E+01 0.  1.
         -5    1    1    2    0  502 -0.60619457588E+02 -0.79437508906E+01  0.22842171711E+02  0.65399228015E+02  0.41800000000E+01 0.  1.
        -11    1    1    2    0    0  0.20100446701E+02 -0.33025505366E+02 -0.11551718630E+01  0.38678758826E+02  0.00000000000E+00 0. -1.
         11    1    1    2    0    0 -0.23557772436E+02  0.44629453958E+02  0.10613932615E+02  0.51569490673E+02  0.00000000000E+00 0.  1.
</event>
<event>
 6    1  0.6597032E-006  0.1259998E+03  0.7561462E-02  0.1233515E+00
         -1   -1    0    0    0  501 -0.00000000000E+00  0.00000000000E+00  0.11599795705E+03  0.11599795705E+03  0.00000000000E+00 0.  1.
          1   -1    0    0  501    0  0.00000000000E+00 -0.00000000000E+00 -0.15623537502E+03  0.15623537502E+03  0.00000000000E+00 0. -1.
          5    1    1    2  502    0 -0.49373810690E+02  0.15224488841E+02 -0.34643778002E+02  0.62347590144E+02  0.41800000000E+01 0. -1.
         -5    1    1    2    0  502  0.14789758366E+02 -0.86550407966E+02  0.74309283213E+01  0.88217918630E+02  0.41800000000E+01 0. -1.
        -11    1    1    2    0    0 -0.15836914408E+02 -0.84000140173E+01 -0.20267790097E+02  0.27058296489E+02  0.00000000000E+00 0. -1.
         11    1    1    2    0    0  0.50420966732E+02  0.79725933143E+02  0.72432218070E+01  0.94609526813E+02  0.00000000000E+00 0.  1.
</event>
<event>
 6    1  0.6597032E-006  0.1233668E+03  0.7561462E-02  0.1237644E+00
          2   -1    0    0  501    0  0.00000000000E+00  0.00000000000E+00  0.15459585620E+02  0.15459585620E+02  0.00000000000E+00 0.  1.
         -2   -1    0    0    0  501 -0.00000000000E+00 -0.00000000000E+00 -0.11838880945E+04  0.11838880945E+04  0.00000000000E+00 0. -1.
          5    1    1    2  502    0  0.17441246091E+00  0.98896030325E+02 -0.64832976834E+03  0.65584252389E+03  0.41800000000E+01 0. -1.
         -5    1    1    2    0  502 -0.19670312716E+01 -0.39209760798E+02 -0.23325867243E+03  0.23657632007E+03  0.41800000000E+01 0. -1.
        -11    1    1    2    0    0  0.46046899448E+02 -0.31804781424E+02 -0.16834353648E+03  0.17740182452E+03  0.00000000000E+00 0. -1.
         11    1    1    2    0    0 -0.44254280637E+02 -0.27881488103E+02 -0.11849653163E+03  0.12952701163E+03  0.00000000000E+00 0.  1.
</event>
<event>
 6    1  0.6597032E-006  0.1343543E+03  0.7561462E-02  0.1221134E+00
         -2   -1    0    0    0  501 -0.00000000000E+00  0.00000000000E+00  0.13932414289E+03  0.13932414289E+03  0.00000000000E+00 0.  1.
          2   -1    0    0  501    0  0.00000000000E+00 -0.00000000000E+00 -0.15670077444E+03  0.15670077444E+03  0.00000000000E+00 0. -1.
          5    1    1    2  502    0  0.10579949050E+03  0.23828770059E+02  0.32701416235E+02  0.11334988971E+03  0.41800000000E+01 0. -1.
         -5    1    1    2    0  502 -0.11737318659E+02 -0.40630406501E+02 -0.14977290516E+02  0.45059807067E+02  0.41800000000E+01 0. -1.
        -11    1    1    2    0    0  0.36243321566E+01  0.19621394081E+02  0.17580206131E+02  0.26593204712E+02  0.00000000000E+00 0.  1.
         11    1    1    2    0    0 -0.97686504000E+02 -0.28197576389E+01 -0.52680963400E+02  0.11102201584E+03  0.00000000000E+00 0. -1.
</event>
<event>
 6    1  0.6597032E-006  0.1311269E+03  0.7561462E-02  0.1225793E+00
          2   -1    0    0  501    0  0.00000000000E+00  0.00000000000E+00  0.77725301639E+03  0.77725301639E+03  0.00000000000E+00 0. -1.
         -2   -1    0    0    0  501 -0.00000000000E+00 -0.00000000000E+00 -0.31424931204E+02  0.31424931204E+02  0.00000000000E+00 0.  1.
          5    1    1    2  502    0 -0.34957802635E+02  0.11543742772E+03  0.15034941606E+03  0.19279592058E+03  0.41800000000E+01 0. -1.
         -5    1    1    2    0  502  0.15727174123E+02 -0.27991052555E+02  0.54328137728E+02  0.63244462034E+02  0.41800000000E+01 0. -1.
        -11    1    1    2    0    0 -0.22327185440E+02 -0.42277805351E+02  0.17666810796E+03  0.18302332202E+03  0.00000000000E+00 0.  1.
         11    1    1    2    0    0  0.41557813953E+02 -0.45168569811E+02  0.36448242344E+03  0.36961424295E+03  0.00000000000E+00 0. -1.
</event>
<event>
 6    1  0.6597032E-006  0.1320393E+03  0.7561462E-02  0.1224461E+00
         -3   -1    0    0    0  501 -0.00000000000E+00  0.00000000000E+00  0.80759869189E+02  0.80759869189E+02  0.00000000000E+00 0.  1.
          3   -1    0    0  501    0  0.00000000000E+00 -0.00000000000E+00 -0.33556283301E+03  0.33556283301E+03  0.00000000000E+00 0. -1.
          5    1    1    2  502    0 -0.55255583416E+02 -0.18363589378E+02  0.99278349127E+01  0.59215160386E+02  0.41800000000E+01 0. -1.
         -5    1    1    2    0  502  0.98402189570E+02 -0.25429659030E+02 -0.46071576949E+02  0.11166790530E+03  0.41800000000E+01 0.  1.
        -11    1    1    2    0    0  0.24476179063E+02  0.22063002742E+02 -0.32903148022E+02  0.46566904356E+02  0.00000000000E+00 0.  1.
         11    1    1    2    0    0 -0.67622785218E+02  0.21730245666E+02 -0.18575607376E+03  0.19887273216E+03  0.00000000000E+00 0. -1.
</event>
<event>
 6    1  0.6597032E-006  0.1139490E+03  0.7561462E-02  0.1253427E+00
          2   -1    0    0  501    0  0.00000000000E+00  0.00000000000E+00  0.56670112191E+03  0.56670112191E+03  0.00000000000E+00 0. -1.
         -2   -1    0    0    0  501 -0.00000000000E+00 -0.00000000000E+00 -0.24965320966E+02  0.24965320966E+02  0.00000000000E+00 0.  1.
          5    1    1    2  502    0  0.28881611070E+02  0.26986154842E+02  0.15915395288E+03  0.16404222971E+03  0.41800000000E+01 0.  1.
         -5    1    1    2    0  502 -0.78561837301E+02 -0.33198414093E+02  0.13884192534E+03  0.16299892518E+03  0.41800000000E+01 0.  1.
        -11    1    1    2    0    0  0.74524054800E+02 -0.65835043761E+01  0.18584875413E+03  0.20034204922E+03  0.00000000000E+00 0. -1.
         11    1    1    2    0    0 -0.24843828569E+02  0.12795763627E+02  0.57891168603E+02  0.64283238772E+02  0.00000000000E+00 0.  1.
</event>
<event>
 6    1  0.6597032E-006  0.1116503E+03  0.7561462E-02  0.1257544E+00
         -1   -1    0    0    0  501 -0.00000000000E+00  0.00000000000E+00  0.27630967585E+02  0.27630967585E+02  0.00000000000E+00 0.  1.
          1   -1    0    0  501    0  0.00000000000E+00 -0.00000000000E+00 -0.62778965158E+03  0.62778965158E+03  0.00000000000E+00 0. -1.
          5    1    1    2  502    0 -0.19406495224E+02  0.42873420716E+02 -0.63163581024E+02  0.78878721012E+02  0.41800000000E+01 0. -1.
         -5    1    1    2    0  502  0.89285571122E+02 -0.20136682175E+02 -0.24989874087E+03  0.26616583603E+03  0.41800000000E+01 0. -1.
        -11    1    1    2    0    0 -0.28003895493E+02 -0.30970363516E+02 -0.34394599291E+02  0.54095933669E+02  0.00000000000E+00 0.  1.
         11    1    1    2    0    0 -0.41875180404E+02  0.82336249749E+01 -0.25270176281E+03  0.25628012845E+03  0.00000000000E+00 0. -1.
</event>
<event>
 6    1  0.6597032E-006  0.9665971E+02  0.7561462E-02  0.1287481E+00
          2   -1    0    0  501    0  0.00000000000E+00  0.00000000000E+00  0.30312110645E+02  0.30312110645E+02  0.00000000000E+00 0. -1.
         -2   -1    0    0    0  501 -0.00000000000E+00 -0.00000000000E+00 -0.47189857677E+03  0.47189857677E+03  0.00000000000E+00 0.  1.
          5    1    1    2  502    0  0.77385098437E+02 -0.14611545657E+02 -0.11035099924E+03  0.13563467905E+03  0.41800000000E+01 0.  1.
         -5    1    1    2    0  502 -0.31380814102E+02  0.22126256846E+02 -0.17765728720E+03  0.18180734537E+03  0.41800000000E+01 0.  1.
        -11    1    1    2    0    0 -0.24320492927E+02 -0.33873799316E+02 -0.18811752885E+02  0.45747160600E+02  0.00000000000E+00 0. -1.
         11    1    1    2    0    0 -0.21683791408E+02  0.26359088127E+02 -0.13476642680E+03  0.13902150240E+03  0.00000000000E+00 0.  1.
</event>
<event>
 6    1  0.6597032E-006  0.1848494E+03  0.7561462E-02  0.1163191E+00
          2   -1    0    0  501    0  0.00000000000E+00  0.00000000000E+00  0.51547966287E+03  0.51547966287E+03  0.00000000000E+00 0. -1.
         -2   -1    0    0    0  501 -0.00000000000E+00 -0.00000000000E+00 -0.85708056264E+02  0.85708056264E+02  0.00000000000E+00 0.  1.
          5    1    1    2  502    0  0.16046117013E+03 -0.74499130174E+02  0.12003683016E+03  0.21383222514E+03  0.41800000000E+01 0. -1.
         -5    1    1    2    0  502 -0.11960550589E+02  0.10894635675E+02 -0.87090555716E+01  0.18843245629E+02  0.41800000000E+01 0. -1.
        -11    1    1    2    0    0 -0.82847097635E+02  0.72098883980E+02  0.13838978660E+03  0.17667377761E+03  0.00000000000E+00 0.  1.
         11    1    1    2    0    0 -0.65653521902E+02 -0.84943894815E+01  0.18005404541E+03  0.19183847075E+03  0.00000000000E+00 0. -1.
</event>
<event>
 6    1  0.6597032E-006  0.1919669E+03  0.7561462E-02  0.1156699E+00
         -2   -1    0    0    0  501 -0.00000000000E+00  0.00000000000E+00  0.18011527338E+03  0.18011527338E+03  0.00000000000E+00 0.  1.
          2   -1    0    0  501    0  0.00000000000E+00 -0.00000000000E+00 -0.23191406643E+03  0.23191406643E+03  0.00000000000E+00 0. -1.
          5    1    1    2  502    0 -0.14028934403E+02  0.10129604762E+03 -0.73825253545E+02  0.12619564464E+03  0.41800000000E+01 0. -1.
         -5    1    1    2    0  502  0.63246718303E+02  0.62499065111E+02  0.22519631253E+02  0.91819860093E+02  0.41800000000E+01 0. -1.
        -11    1    1    2    0    0 -0.75166037117E+02 -0.12621486773E+03 -0.10449363870E+02  0.14727292751E+03  0.00000000000E+00 0. -1.
         11    1    1    2    0    0  0.25948253217E+02 -0.37580245003E+02  0.99561931044E+01  0.46740907572E+02  0.00000000000E+00 0.  1.
</event>
<event>
 6    1  0.6597032E-006  0.1476800E+03  0.7561462E-02  0.1203353E+00
         -1   -1    0    0    0  501 -0.00000000000E+00  0.00000000000E+00  0.11083907388E+03  0.11083907388E+03  0.00000000000E+00 0.  1.
          1   -1    0    0  501    0  0.00000000000E+00 -0.00000000000E+00 -0.26194815711E+03  0.26194815711E+03  0.00000000000E+00 0. -1.
          5    1    1    2  502    0  0.28013742175E+02 -0.11960112157E+02 -0.53180053765E+02  0.61428043693E+02  0.41800000000E+01 0.  1.
         -5    1    1    2    0  502 -0.30161774401E+02 -0.11098118414E+03  0.20781306242E+02  0.11694396503E+03  0.41800000000E+01 0.  1.
        -11    1    1    2    0    0  0.43616524445E+02  0.65124430296E+02 -0.38929855434E+02  0.87516434286E+02  0.00000000000E+00 0.  1.
         11    1    1    2    0    0 -0.41468492219E+02  0.57816865999E+02 -0.79780480265E+02  0.10689878798E+03  0.00000000000E+00 0. -1.
</event>
<event>
 6    1  0.6597032E-006  0.2334340E+03  0.7561462E-02  0.1124246E+00
         -1   -1    0    0    0  501 -0.00000000000E+00  0.00000000000E+00  0.12868359263E+03  0.12868359263E+03  0.00000000000E+00 0.  1.
          1   -1    0    0  501    0  0.00000000000E+00 -0.00000000000E+00 -0.46636878909E+03  0.46636878909E+03  0.00000000000E+00 0. -1.
          5    1    1    2  502    0 -0.35355923170E+02 -0.10507308269E+02 -0.78140450966E+02  0.86509232499E+02  0.41800000000E+01 0.  1.
         -5    1    1    2    0  502 -0.15750467338E+03  0.11435414948E+03 -0.75307430175E+02  0.20874212579E+03  0.41800000000E+01 0.  1.
        -11    1    1    2    0    0  0.34450685414E+02 -0.62468302088E+02 -0.41112216226E+02  0.82336825384E+02  0.00000000000E+00 0. -1.
         11    1    1    2    0    0  0.15840991113E+03 -0.41378539118E+02 -0.14312509909E+03  0.21746419806E+03  0.00000000000E+00 0.  1.
</event>
<event>
 6    1  0.6597032E-006  0.1432930E+03  0.7561462E-02  0.1208965E+00
         -1   -1    0    0    0  501 -0.00000000000E+00  0.00000000000E+00  0.16223276619E+03  0.16223276619E+03  0.00000000000E+00 0.  1.
          1   -1    0    0  501    0  0.00000000000E+00 -0.00000000000E+00 -0.16836664787E+03  0.16836664787E+03  0.00000000000E+00 0. -1.
          5    1    1    2  502    0  0.11918114922E+03 -0.22177927194E+02  0.55110181755E+02  0.13323142016E+03  0.41800000000E+01 0. -1.
         -5    1    1    2    0  502  0.23682893648E+01  0.32567115576E+02 -0.28465245350E+02  0.43519747291E+02  0.41800000000E+01 0. -1.
        -11    1    1    2    0    0 -0.47855974119E+02 -0.29523681956E+02  0.21652839401E+02  0.60255186576E+02  0.00000000000E+00 0.  1.
         11    1    1    2    0    0 -0.73693464466E+02  0.19134493574E+02 -0.54431657483E+02  0.93593060030E+02  0.00000000000E+00 0. -1.
</event>
<event>
 6    1  0.6597032E-006  0.9527971E+02  0.7561462E-02  0.1290547E+00
          1   -1    0    0  501    0  0.00000000000E+00  0.00000000000E+00  0.36792603498E+03  0.36792603498E+03  0.00000000000E+00 0. -1.
         -1   -1    0    0    0  501 -0.00000000000E+00 -0.00000000000E+00 -0.38994683114E+02  0.38994683114E+02  0.00000000000E+00 0.  1.
          5    1    1    2  502    0  0.19013038407E+02 -0.22005907013E+02  0.42532589234E+01  0.29687003628E+02  0.41800000000E+01 0. -1.
         -5    1    1    2    0  502 -0.62623452198E+02  0.33138458149E+02  0.21855197341E+03  0.22978749238E+03  0.41800000000E+01 0. -1.
        -11    1    1    2    0    0  0.14757670351E+02  0.33757120506E+02  0.11126850921E+02  0.38485566521E+02  0.00000000000E+00 0.  1.
         11    1    1    2    0    0  0.28852743440E+02 -0.44889671642E+02  0.94999268617E+02  0.10896065557E+03  0.00000000000E+00 0. -1.
</event>
<event>
 6    1  0.6597032E-006  0.1413029E+03  0.7561462E-02  0.1211587E+00
         -3   -1    0    0    0  501 -0.00000000000E+00  0.00000000000E+00  0.39263669193E+02  0.39263669193E+02  0.00000000000E+00 0.  1.
          3   -1    0    0  501    0  0.00000000000E+00 -0.00000000000E+00 -0.56119511757E+03  0.56119511757E+03  0.00000000000E+00 0. -1.
          5    1    1    2  502    0 -0.85879134729E+02 -0.94698636250E+02 -0.25163576826E+03  0.28227839052E+03  0.41800000000E+01 0. -1.
         -5    1    1    2    0  502  0.87001842238E+01  0.30855234487E+02 -0.65309257804E+02  0.72873247874E+02  0.41800000000E+01 0. -1.
        -11    1    1    2    0    0 -0.11462958256E+02  0.20977558825E+02 -0.82179616116E+01  0.25278296605E+02  0.00000000000E+00 0.  1.
         11    1    1    2    0    0  0.88641908761E+02  0.42865842939E+02 -0.19676846071E+03  0.22002885177E+03  0.00000000000E+00 0. -1.
</event>
<event>
 6    1  0.6597032E-006  0.4130458E+03  0.7561462E-02  0.1039354E+00
         -1   -1    0    0    0  501 -0.00000000000E+00  0.00000000000E+00  0.79012384619E+02  0.79012384619E+02  0.00000000000E+00 0.  1.
          1   -1    0    0  501    0  0.00000000000E+00 -0.00000000000E+00 -0.23055879751E+04  0.23055879751E+04  0.00000000000E+00 0. -1.
          5    1    1    2  502    0 -0.38868092963E+03 -0.42416707423E+02 -0.12838115784E+04  0.13420363942E+04  0.41800000000E+01 0. -1.
         -5    1    1    2    0  502 -0.16865874202E+02  0.14884214233E+02 -0.23862534204E+02  0.33058894183E+02  0.41800000000E+01 0. -1.
        -11    1    1    2    0    0  0.26374971625E+03  0.50543983307E+02 -0.51490244406E+03  0.58072638477E+03  0.00000000000E+00 0. -1.
         11    1    1    2    0    0  0.14179708759E+03 -0.23011490117E+02 -0.40399903379E+03  0.42877868654E+03  0.00000000000E+00 0.  1.
</event>
<event>
 6    1  0.6597032E-006  0.1212890E+03  0.7561462E-02  0.1240986E+00
         -1   -1    0    0    0  501 -0.00000000000E+00  0.00000000000E+00  0.49799334388E+02  0.49799334388E+02  0.00000000000E+00 0.  1.
          1   -1    0    0  501    0  0.00000000000E+00 -0.00000000000E+00 -0.39015551958E+03  0.39015551958E+03  0.00000000000E+00 0. -1.
          5    1    1    2  502    0  0.79814398112E+01 -0.43097643995E+02 -0.11223822895E+02  0.45437395389E+02  0.41800000000E+01 0. -1.
         -5    1    1    2    0  502 -0.65832651319E+02  0.63431271714E+02 -0.75711672432E+02  0.11877370902E+03  0.41800000000E+01 0. -1.
        -11    1    1    2    0    0  0.69026376303E+02 -0.43306873397E+02 -0.21146539963E+03  0.22662246391E+03  0.00000000000E+00 0. -1.
         11    1    1    2    0    0 -0.11175164794E+02  0.22973245678E+02 -0.41955290230E+02  0.49121285645E+02  0.00000000000E+00 0.  1.
</event>
<event>
 6    1  0.6597032E-006  0.1262209E+03  0.7561462E-02  0.1233173E+00
         -2   -1    0    0    0  501 -0.00000000000E+00  0.00000000000E+00  0.30091047979E+03  0.30091047979E+03  0.00000000000E+00 0.  1.
          2   -1    0    0  501    0  0.00000000000E+00 -0.00000000000E+00 -0.56866856302E+02  0.56866856302E+02  0.00000000000E+00 0. -1.
          5    1    1    2  502    0 -0.54953480951E+02  0.98974154746E+01  0.36153380948E+02  0.66651205958E+02  0.41800000000E+01 0. -1.
         -5    1    1    2    0  502  0.54479831166E+02  0.61505303831E+02  0.12326574395E+03  0.14819875315E+03  0.41800000000E+01 0. -1.
        -11    1    1    2    0    0  0.43586599101E+02 -0.22733876924E+02  0.45865848347E+02  0.67233152728E+02  0.00000000000E+00 0.  1.
         11    1    1    2    0    0 -0.43112949316E+02 -0.48668842381E+02  0.38758650248E+02  0.75694224261E+02  0.00000000000E+00 0. -1.
</event>
<event>
 6    1  0.6597032E-006  0.1438407E+03  0.7561462E-02  0.1208253E+00
         -1   -1    0    0    0  501 -0.00000000000E+00  0.00000000000E+00  0.44692827813E+02  0.44692827813E+02  0.00000000000E+00 0. -1.
          1   -1    0    0  501    0  0.00000000000E+00 -0.00000000000E+00 -0.56024783098E+03  0.56024783098E+03  0.00000000000E+00 0.  1.
          5    1    1    2  502    0 -0.95778462157E+02 -0.15277715932E+01 -0.92167338015E+02  0.13299676122E+03  0.41800000000E+01 0. -1.
         -5    1    1    2    0  502  0.19005587028E+02  0.58321736235E+02 -0.61228830055E+02  0.86770267290E+02  0.41800000000E+01 0. -1.
        -11    1    1    2    0    0 -0.17732964980E+02 -0.24910790966E+02 -0.10457882523E+03  0.10895749740E+03  0.00000000000E+00 0.  1.
         11    1    1    2    0    0  0.94505840110E+02 -0.31883173675E+02 -0.25758000987E+03  0.27621613288E+03  0.00000000000E+00 0. -1.
</event>
<event>
 6    1  0.6597032E-006  0.9951590E+02  0.7561462E-02  0.1281317E+00
         -2   -1    0    0    0  501 -0.00000000000E+00  0.00000000000E+00  0.57278635735E+02  0.57278635735E+02  0.00000000000E+00 0.  1.
          2   -1    0    0  501    0  0.00000000000E+00 -0.00000000000E+00 -0.24355746900E+03  0.24355746900E+03  0.00000000000E+00 0. -1.
          5    1    1    2  502    0  0.51419541985E+02  0.17921183392E+01  0.68934585902E+01  0.52078528756E+02  0.41800000000E+01 0. -1.
         -5    1    1    2    0  502 -0.32034904986E+02  0.35547985732E+02 -0.95454721461E+02  0.10685958392E+03  0.41800000000E+01 0. -1.
        -11    1    1    2    0    0 -0.26131491635E+02 -0.65447067129E+02 -0.84738285271E+02  0.11021229714E+03  0.00000000000E+00 0. -1.
         11    1    1    2    0    0  0.67468546355E+01  0.28106963058E+02 -0.12979285125E+02  0.31685694914E+02  0.00000000000E+00 0.  1.
</event>
<event>
 6    1  0.6597032E-006  0.1147902E+03  0.7561462E-02  0.1251948E+00
         -3   -1    0    0    0  501 -0.00000000000E+00  0.00000000000E+00  0.18554950776E+03  0.18554950776E+03  0.00000000000E+00 0.  1.
          3   -1    0    0  501    0  0.00000000000E+00 -0.00000000000E+00 -0.82612419520E+02  0.82612419520E+02  0.00000000000E+00 0. -1.
          5    1    1    2  502    0  0.40468473155E+02 -0.25795026667E+02  0.27953925467E+01  0.48253158858E+02  0.41800000000E+01 0. -1.
         -5    1    1    2    0  502 -0.18210655366E+02  0.79932818296E+02  0.69913485204E+02  0.10782509552E+03  0.41800000000E+01 0. -1.
        -11    1    1    2    0    0 -0.52208290576E+02 -0.26419638365E+02 -0.42410534646E+01  0.58665913704E+02  0.00000000000E+00 0. -1.
         11    1    1    2    0    0  0.29950472787E+02 -0.27718153263E+02  0.34469263951E+02  0.53417759199E+02  0.00000000000E+00 0.  1.
</event>
<event>
 6    1  0.6597032E-006  0.1385410E+03  0.7561462E-02  0.1215306E+00
         -1   -1    0    0    0  501 -0.00000000000E+00  0.00000000000E+00  0.89649399839E+02  0.89649399839E+02  0.00000000000E+00 0.  1.
          1   -1    0    0  501    0  0.00000000000E+00 -0.00000000000E+00 -0.40531490702E+03  0.40531490702E+03  0.00000000000E+00 0. -1.
          5    1    1    2  502    0  0.26663565375E+02  0.32341535889E+01  0.40507290844E+02  0.48782358281E+02  0.41800000000E+01 0. -1.
         -5    1    1    2    0  502  0.95032299506E+02  0.42636690750E+02 -0.91609896648E+02  0.13877633412E+03  0.41800000000E+01 0. -1.
        -11    1    1    2    0    0 -0.39652344759E+02 -0.49633059795E+02 -0.61746354197E+02  0.88590977679E+02  0.00000000000E+00 0.  1.
         11    1    1    2    0    0 -0.82043520122E+02  0.37622154563E+01 -0.20281654718E+03  0.21881463678E+03  0.00000000000E+00 0. -1.
</event>
<event>
 6    1  0.6597032E-006  0.1748996E+03  0.7561462E-02  0.1172833E+00
          1   -1    0    0  501    0  0.00000000000E+00  0.00000000000E+00  0.41424735885E+02  0.41424735885E+02  0.00000000000E+00 0. -1.
         -1   -1    0    0    0  501 -0.00000000000E+00 -0.00000000000E+00 -0.74443688537E+03  0.74443688537E+03  0.00000000000E+00 0.  1.
          5    1    1    2  502    0  0.39234961599E+02  0.55573976823E+02 -0.14524684326E+03  0.16044303347E+03  0.41800000000E+01 0.  1.
         -5    1    1    2    0  502 -0.93534153271E+02  0.69996760543E+02 -0.21753775199E+03  0.24695815487E+03  0.41800000000E+01 0.  1.
        -11    1    1    2    0    0  0.79634739998E+02 -0.81758356729E+02 -0.25427009866E+03  0.27871025059E+03  0.00000000000E+00 0.  1.
         11    1    1    2    0    0 -0.25335548327E+02 -0.43812380638E+02 -0.85957455574E+02  0.99750182330E+02  0.00000000000E+00 0. -1.
</event>
<event>
 6    1  0.6597032E-006  0.1248572E+03  0.7561462E-02  0.1235293E+00
          1   -1    0    0  501    0  0.00000000000E+00  0.00000000000E+00  0.65059055617E+03  0.65059055617E+03  0.00000000000E+00 0. -1.
         -1   -1    0    0    0  501 -0.00000000000E+00 -0.00000000000E+00 -0.35888699676E+02  0.35888699676E+02  0.00000000000E+00 0.  1.
          5    1    1    2  502    0  0.62105375405E+01  0.52311268284E+01  0.16750048584E+03  0.16774927904E+03  0.41800000000E+01 0. -1.
         -5    1    1    2    0  502  0.90587965087E+02 -0.55172630182E+02  0.10909939273E+03  0.15221809496E+03  0.41800000000E+01 0.  1.
        -11    1    1    2    0    0 -0.39328196701E+02 -0.19825646821E+02  0.17041837064E+03  0.17601756838E+03  0.00000000000E+00 0. -1.
         11    1    1    2    0    0 -0.57470305927E+02  0.69767150174E+02  0.16768360729E+03  0.19049431346E+03  0.00000000000E+00 0.  1.
</event>
<event>
 6    1  0.6597032E-006  0.2798572E+03  0.7561462E-02  0.1095767E+00
          2   -1    0    0  501    0  0.00000000000E+00  0.00000000000E+00  0.42589639470E+03  0.42589639470E+03  0.00000000000E+00 0.  1.
         -2   -1    0    0    0  501 -0.00000000000E+00 -0.00000000000E+00 -0.20789104527E+03  0.20789104527E+03  0.00000000000E+00 0. -1.
          5    1    1    2  502    0  0.25657075709E+03  0.51313170914E+02  0.38851389029E+02  0.26455339297E+03  0.41800000000E+01 0.  1.
         -5    1    1    2    0  502  0.12467954199E+02  0.96547104812E+01  0.47783013557E+02  0.50491109128E+02  0.41800000000E+01 0.  1.
        -11    1    1    2    0    0 -0.24263663326E+02 -0.24066197358E+02  0.45129725541E+02  0.56609180710E+02  0.00000000000E+00 0.  1.
         11    1    1    2    0    0 -0.24477504796E+03 -0.36901684037E+02  0.86241221308E+02  0.26213375716E+03  0.00000000000E+00 0. -1.
</event>
<event>
 6    1  0.6597032E-006  0.1084764E+03  0.7561462E-02  0.1263418E+00
          1   -1    0    0  501    0  0.00000000000E+00  0.00000000000E+00  0.36258413654E+03  0.36258413654E+03  0.00000000000E+00 0. -1.
         -1   -1    0    0    0  501 -0.00000000000E+00 -0.00000000000E+00 -0.36595497849E+02  0.36595497849E+02  0.00000000000E+00 0.  1.
          5    1    1    2  502    0 -0.38509158708E+02  0.31807190061E+02  0.37995269758E+02  0.62894877120E+02  0.41800000000E+01 0.  1.
         -5    1    1    2    0  502  0.56241720916E+02 -0.49142316000E+02  0.10179844836E+03  0.12632693648E+03  0.41800000000E+01 0.  1.
        -11    1    1    2    0    0 -0.61068536351E+01 -0.36471872003E+02  0.43981186409E+02  0.57461603412E+02  0.00000000000E+00 0. -1.
         11    1    1    2    0    0 -0.11625708573E+02  0.53806997942E+02  0.14221373417E+03  0.15249621738E+03  0.00000000000E+00 0.  1.
</event>
<event>
 6    1  0.6597032E-006  0.1164217E+03  0.7561462E-02  0.1249120E+00
          2   -1    0    0  501    0  0.00000000000E+00  0.00000000000E+00  0.49138424130E+03  0.49138424130E+03  0.00000000000E+00 0. -1.
         -2   -1    0    0    0  501 -0.00000000000E+00 -0.00000000000E+00 -0.44274369347E+02  0.44274369347E+02  0.00000000000E+00 0.  1.
          5    1    1    2  502    0 -0.40344706048E+02  0.35588160144E+02  0.17898685426E+03  0.18694378526E+03  0.41800000000E+01 0. -1.
         -5    1    1    2    0  502 -0.49140246648E+02 -0.75986707651E+01 -0.10273963540E+01  0.49910235236E+02  0.41800000000E+01 0. -1.
        -11    1    1    2    0    0  0.10206535312E+03 -0.42938716658E+01  0.19877348340E+03  0.22348751944E+03  0.00000000000E+00 0.  1.
         11    1    1    2    0    0 -0.12580400428E+02 -0.23695617713E+02  0.70376930643E+02  0.75317070711E+02  0.00000000000E+00 0. -1.
</event>
<event>
 6    1  0.6597032E-006  0.8826229E+02  0.7561462E-02  0.1307115E+00
          1   -1    0    0  501    0  0.00000000000E+00  0.00000000000E+00  0.42518868149E+02  0.42518868149E+02  0.00000000000E+00 0. -1.
         -1   -1    0    0    0  501 -0.00000000000E+00 -0.00000000000E+00 -0.35928745708E+03  0.35928745708E+03  0.00000000000E+00 0.  1.
          5    1    1    2  502    0 -0.19987449934E+01 -0.51644600006E+01 -0.15706581255E+03  0.15721898264E+03  0.41800000000E+01 0. -1.
         -5    1    1    2    0  502  0.61223105268E+02 -0.13339418179E+01 -0.14066541314E+02  0.62971326840E+02  0.41800000000E+01 0. -1.
        -11    1    1    2    0    0 -0.72123644609E+02  0.32555733060E+02 -0.11234130955E+03  0.13741275668E+03  0.00000000000E+00 0. -1.
         11    1    1    2    0    0  0.12899284334E+02 -0.26057331241E+02 -0.33294925516E+02  0.44203259075E+02  0.00000000000E+00 0.  1.
</event>
<event>
 6    1  0.6597032E-006  0.1219291E+03  0.7561462E-02  0.1239948E+00
         -1   -1    0    0    0  501 -0.00000000000E+00  0.00000000000E+00  0.17434013777E+03  0.17434013777E+03  0.00000000000E+00 0.  1.
          1   -1    0    0  501    0  0.00000000000E+00 -0.00000000000E+00 -0.10927981501E+03  0.10927981501E+03  0.00000000000E+00 0. -1.
          5    1    1    2  502    0  0.56127304530E+02 -0.55750714742E+02 -0.66880053243E+01  0.79502316465E+02  0.41800000000E+01 0. -1.
         -5    1    1    2    0  502 -0.37622041899E+02 -0.24187096908E+02  0.69489491202E+02  0.82744761049E+02  0.41800000000E+01 0. -1.
        -11    1    1    2    0    0 -0.34033830656E+02  0.93247745324E+02 -0.56968682627E+01  0.99427852964E+02  0.00000000000E+00 0. -1.
         11    1    1    2    0    0  0.15528568025E+02 -0.13309933673E+02  0.79557051429E+01  0.21945022297E+02  0.00000000000E+00 0.  1.
</event>
<event>
 6    1  0.6597032E-006  0.1460584E+03  0.7561462E-02  0.1205402E+00
         -3   -1    0    0    0  501 -0.00000000000E+00  0.00000000000E+00  0.50777728450E+03  0.50777728450E+03  0.00000000000E+00 0.  1.
          3   -1    0    0  501    0  0.00000000000E+00 -0.00000000000E+00 -0.57211850894E+02  0.57211850894E+02  0.00000000000E+00 0. -1.
          5    1    1    2  502    0 -0.10590264811E+03  0.26108478345E+02  0.23025720171E+03  0.25481929844E+03  0.41800000000E+01 0. -1.
         -5    1    1    2    0  502 -0.22771475249E+02 -0.66530546266E+01 -0.13214255148E+02  0.27475300908E+02  0.41800000000E+01 0. -1.
        -11    1    1    2    0    0  0.95870511669E+02  0.29177496932E+02  0.15734758189E+03  0.18654957213E+03  0.00000000000E+00 0. -1.
         11    1    1    2    0    0  0.32803611692E+02 -0.48632920651E+02  0.76174905152E+02  0.96144963914E+02  0.00000000000E+00 0.  1.
</event>
<event>
 6    1  0.6597032E-006  0.1813732E+03  0.7561462E-02  0.1166481E+00
         -2   -1    0    0    0  501 -0.00000000000E+00  0.00000000000E+00  0.23945269506E+02  0.23945269506E+02  0.00000000000E+00 0. -1.
          2   -1    0    0  501    0  0.00000000000E+00 -0.00000000000E+00 -0.16161305922E+04  0.16161305922E+04  0.00000000000E+00 0.  1.
          5    1    1    2  502    0 -0.46239317814E+02 -0.36830716166E+02 -0.93755445069E+02  0.11091497665E+03  0.41800000000E+01 0. -1.
         -5    1    1    2    0  502  0.27001525296E+02 -0.12385494927E+03 -0.55591287670E+03  0.57019797414E+03  0.41800000000E+01 0. -1.
        -11    1    1    2    0    0  0.46080805886E+02  0.91709134398E+02 -0.56918854198E+03  0.57836805092E+03  0.00000000000E+00 0.  1.
         11    1    1    2    0    0 -0.26843013368E+02  0.68976531038E+02 -0.37332845895E+03  0.38059486001E+03  0.00000000000E+00 0. -1.
</event>
<event>
 6    1  0.6597032E-006  0.1256736E+03  0.7561462E-02  0.1234020E+00
          2   -1    0    0  501    0  0.00000000000E+00  0.00000000000E+00  0.65168536118E+02  0.65168536118E+02  0.00000000000E+00 0. -1.
         -2   -1    0    0    0  501 -0.00000000000E+00 -0.00000000000E+00 -0.30458484040E+03  0.30458484040E+03  0.00000000000E+00 0.  1.
          5    1    1    2  502    0  0.95663530681E+02 -0.18015927724E+02 -0.15463195265E+03  0.18276924778E+03  0.41800000000E+01 0.  1.
         -5    1    1    2    0  502 -0.40053867508E+02 -0.15876270036E+02 -0.57794994638E+02  0.72208739484E+02  0.41800000000E+01 0.  1.
        -11    1    1    2    0    0 -0.68671552491E+02 -0.57247228216E+01 -0.95753839588E+01  0.69571851714E+02  0.00000000000E+00 0. -1.
         11    1    1    2    0    0  0.13061889318E+02  0.39616920582E+02 -0.17413973030E+02  0.45203537535E+02  0.00000000000E+00 0.  1.
</event>
<event>
 6    1  0.6597032E-006  0.1222505E+03  0.7561462E-02  0.1239430E+00
         -1   -1    0    0    0  501 -0.00000000000E+00  0.00000000000E+00  0.58751947534E+03  0.58751947534E+03  0.00000000000E+00 0.  1.
          1   -1    0    0  501    0  0.00000000000E+00 -0.00000000000E+00 -0.27154074732E+02  0.27154074732E+02  0.00000000000E+00 0. -1.
          5    1    1    2  502    0 -0.83426755774E+02  0.13939547333E+02  0.22939372129E+03  0.24452665770E+03  0.41800000000E+01 0. -1.
         -5    1    1    2    0  502  0.32951884229E+02 -0.41152119208E+02  0.15178716362E+03  0.16073624056E+03  0.41800000000E+01 0. -1.
        -11    1    1    2    0    0  0.62878900848E+02 -0.13549495218E+02  0.90590856235E+02  0.11110377233E+03  0.00000000000E+00 0. -1.
         11    1    1    2    0    0 -0.12404029303E+02  0.40762067092E+02  0.88593659460E+02  0.98306879480E+02  0.00000000000E+00 0.  1.
</event>
<event>
 6    1  0.6597032E-006  0.1415651E+03  0.7561462E-02  0.1211238E+00
          2   -1    0    0  501    0  0.00000000000E+00  0.00000000000E+00  0.19410153994E+03  0.19410153994E+03  0.00000000000E+00 0. -1.
         -2   -1    0    0    0  501 -0.00000000000E+00 -0.00000000000E+00 -0.14572460808E+03  0.14572460808E+03  0.00000000000E+00 0.  1.
          5    1    1    2  502    0 -0.18180072355E+02 -0.69143062413E+02 -0.39901726084E+02  0.81981084739E+02  0.41800000000E+01 0.  1.
         -5    1    1    2    0  502 -0.77717304098E+02  0.37103543679E+02 -0.12134787322E+02  0.87071107568E+02  0.41800000000E+01 0.  1.
        -11    1    1    2    0    0  0.51782917324E+02 -0.21371740946E+02  0.10052510760E+02  0.56914627383E+02  0.00000000000E+00 0.  1.
         11    1    1    2    0    0  0.44114459129E+02  0.53411259679E+02  0.90360934497E+02  0.11385932833E+03  0.00000000000E+00 0. -1.
</event>
<event>
 6    1  0.6597032E-006  0.1542413E+03  0.7561462E-02  0.1195356E+00
         -1   -1    0    0    0  501 -0.00000000000E+00  0.00000000000E+00  0.18757916297E+03  0.18757916297E+03  0.00000000000E+00 0.  1.
          1   -1    0    0  501    0  0.00000000000E+00 -0.00000000000E+00 -0.16841474281E+03  0.16841474281E+03  0.00000000000E+00 0. -1.
          5    1    1    2  502    0  0.60314915874E+02  0.25221457957E+02 -0.18746424542E+02  0.68138915837E+02  0.41800000000E+01 0.  1.
         -5    1    1    2    0  502  0.62520356482E+02 -0.60563758282E+02  0.87474178382E+02  0.12347456449E+03  0.41800000000E+01 0.  1.
        -11    1    1    2    0    0 -0.13187699529E+03  0.13961123641E+02 -0.35674649786E+02  0.13732856767E+03  0.00000000000E+00 0.  1.
         11    1    1    2    0    0  0.90417229327E+01  0.21381176684E+02 -0.13888683892E+02  0.27051857797E+02  0.00000000000E+00 0. -1.
</event>
<event>
 6    1  0.6597032E-006  0.1783328E+03  0.7561462E-02  0.1169426E+00
         -1   -1    0    0    0  501 -0.00000000000E+00  0.00000000000E+00  0.53670356507E+03  0.53670356507E+03  0.00000000000E+00 0.  1.
          1   -1    0    0  501    0  0.00000000000E+00 -0.00000000000E+00 -0.64389918604E+02  0.64389918604E+02  0.00000000000E+00 0. -1.
          5    1    1    2  502    0 -0.54478643606E+02 -0.12048521931E+03  0.26063175020E+03  0.29228580584E+03  0.41800000000E+01 0.  1.
         -5    1    1    2    0  502  0.48429245482E+02 -0.23329352038E+02  0.59128082594E+02  0.80020328890E+02  0.41800000000E+01 0.  1.
        -11    1    1    2    0    0 -0.26887483329E+02  0.44555601293E+01  0.26446176712E+02  0.37976164083E+02  0.00000000000E+00 0.  1.
         11    1    1    2    0    0  0.32936881452E+02  0.13935901122E+03  0.12610763696E+03  0.19081118486E+03  0.00000000000E+00 0. -1.
</event>
<event>
 6    1  0.6597032E-006  0.1354931E+03  0.7561462E-02  0.1219525E+00
         -1   -1    0    0    0  501 -0.00000000000E+00  0.00000000000E+00  0.90083540785E+02  0.90083540785E+02  0.00000000000E+00 0.  1.
          1   -1    0    0  501    0  0.00000000000E+00 -0.00000000000E+00 -0.21136797488E+03  0.21136797488E+03  0.00000000000E+00 0. -1.
          5    1    1    2  502    0 -0.18518133454E+02 -0.77997694470E+02 -0.24317572344E+02  0.83877162172E+02  0.41800000000E+01 0.  1.
         -5    1    1    2    0  502  0.72131151742E+02  0.74668847504E+01 -0.16463576133E+02  0.74479387474E+02  0.41800000000E+01 0.  1.
        -11    1    1    2    0    0 -0.67618487159E+02  0.77145884485E+02 -0.66825977981E+02  0.12243144462E+03  0.00000000000E+00 0.  1.
         11    1    1    2    0    0  0.14005468871E+02 -0.66150747653E+01 -0.13677307639E+02  0.20663521402E+02  0.00000000000E+00 0. -1.
</event>
<event>
 6    1  0.6597032E-006  0.1233982E+03  0.7561462E-02  0.1237594E+00
          2   -1    0    0  501    0  0.00000000000E+00  0.00000000000E+00  0.16909632427E+03  0.16909632427E+03  0.00000000000E+00 0. -1.
         -2   -1    0    0    0  501 -0.00000000000E+00 -0.00000000000E+00 -0.95903230330E+02  0.95903230330E+02  0.00000000000E+00 0.  1.
          5    1    1    2  502    0  0.27552629472E+01 -0.42529295916E+02  0.78137062176E+01  0.43529976911E+02  0.41800000000E+01 0. -1.
         -5    1    1    2    0  502  0.36811800075E+02  0.89169676591E+02  0.32756093698E+01  0.96615432850E+02  0.41800000000E+01 0. -1.
        -11    1    1    2    0    0 -0.62459111954E+02 -0.86445226684E+01  0.44274289105E+02  0.77045967539E+02  0.00000000000E+00 0.  1.
         11    1    1    2    0    0  0.22892048933E+02 -0.37995858007E+02  0.17829489250E+02  0.47808177302E+02  0.00000000000E+00 0. -1.
</event>
<event>
 6    1  0.6597032E-006  0.1081137E+03  0.7561462E-02  0.1264103E+00
          2   -1    0    0  501    0  0.00000000000E+00  0.00000000000E+00  0.11968323984E+03  0.11968323984E+03  0.00000000000E+00 0. -1.
         -2   -1    0    0    0  501 -0.00000000000E+00 -0.00000000000E+00 -0.13684210287E+03  0.13684210287E+03  0.00000000000E+00 0.  1.
          5    1    1    2  502    0  0.56247128747E+02  0.81356907165E+01 -0.68250090601E+02  0.88912744996E+02  0.41800000000E+01 0.  1.
         -5    1    1    2    0  502 -0.80930849585E+01 -0.54353829702E+02  0.23300301388E+02  0.59834883406E+02  0.41800000000E+01 0.  1.
        -11    1    1    2    0    0  0.13649276521E+02 -0.12771774128E+02  0.53239456564E+01  0.19436186902E+02  0.00000000000E+00 0.  1.
         11    1    1    2    0    0 -0.61803320309E+02  0.58989913114E+02  0.22466980525E+02  0.88341527406E+02  0.00000000000E+00 0. -1.
</event>
<event>
 6    1  0.6597032E-006  0.8910059E+02  0.7561462E-02  0.1305044E+00
          1   -1    0    0  501    0  0.00000000000E+00  0.00000000000E+00  0.34527354482E+03  0.34527354482E+03  0.00000000000E+00 0. -1.
         -1   -1    0    0    0  501 -0.00000000000E+00 -0.00000000000E+00 -0.30856951015E+02  0.30856951015E+02  0.00000000000E+00 0.  1.
          5    1    1    2  502    0 -0.63167330862E+02  0.11002553224E+01  0.70376325778E+02  0.94665843260E+02  0.41800000000E+01 0. -1.
         -5    1    1    2    0  502  0.58480007105E+02  0.18220521390E+02  0.10557247038E+03  0.12212664546E+03  0.41800000000E+01 0. -1.
        -11    1    1    2    0    0 -0.21527275540E+02 -0.16503401097E+02  0.11164510367E+02  0.29333123455E+02  0.00000000000E+00 0.  1.
         11    1    1    2    0    0  0.26214599297E+02 -0.28173756152E+01  0.12730328728E+03  0.13000488366E+03  0.00000000000E+00 0. -1.
</event>
<event>
 6    1  0.1333572E-005  0.2706879E+03  0.7561462E-02  0.1100887E+00
          2   -1    0    0  501    0  0.00000000000E+00  0.00000000000E+00  0.20030286529E+04  0.20030286529E+04  0.00000000000E+00 0. -1.
         -2   -1    0    0    0  501 -0.00000000000E+00 -0.00000000000E+00 -0.42771130227E+02  0.42771130227E+02  0.00000000000E+00 0.  1.
          5    1    1    2  502    0  0.48799703610E+02  0.31488897826E+02  0.37176686799E+03  0.37629913406E+03  0.41800000000E+01 0.  1.
         -5    1    1    2    0  502  0.12539426950E+03  0.17333890454E+03  0.47740792824E+03  0.52316909408E+03  0.41800000000E+01 0.  1.
        -11    1    1    2    0    0 -0.12493742555E+03 -0.15528847070E+03  0.95113844769E+03  0.97179638614E+03  0.00000000000E+00 0. -1.
         11    1    1    2    0    0 -0.49256547563E+02 -0.49539331669E+02  0.15994427874E+03  0.17453516883E+03  0.00000000000E+00 0.  1.
</event>
<event>
 6    1  0.6597032E-006  0.7814913E+02  0.7561462E-02  0.1334388E+00
          2   -1    0    0  501    0  0.00000000000E+00  0.00000000000E+00  0.28135273222E+03  0.28135273222E+03  0.00000000000E+00 0. -1.
         -2   -1    0    0    0  501 -0.00000000000E+00 -0.00000000000E+00 -0.10338108113E+03  0.10338108113E+03  0.00000000000E+00 0.  1.
          5    1    1    2  502    0 -0.12285085192E+02  0.14569204508E+02  0.42121395013E+02  0.46420570397E+02  0.41800000000E+01 0. -1.
         -5    1    1    2    0  502 -0.45124410065E+02 -0.19144773884E+02 -0.81965513912E+02  0.95595777217E+02  0.41800000000E+01 0.  1.
        -11    1    1    2    0    0  0.71815772919E+02 -0.17997137566E+01  0.21503835715E+03  0.22672061939E+03  0.00000000000E+00 0. -1.
         11    1    1    2    0    0 -0.14406277662E+02  0.63752831323E+01  0.27774128467E+01  0.15996846352E+02  0.00000000000E+00 0.  1.
</event>
<event>
 6    1  0.6597032E-006  0.1045811E+03  0.7561462E-02  0.1270947E+00
          1   -1    0    0  501    0  0.00000000000E+00  0.00000000000E+00  0.25006212420E+03  0.25006212420E+03  0.00000000000E+00 0. -1.
         -1   -1    0    0    0  501 -0.00000000000E+00 -0.00000000000E+00 -0.86843907292E+02  0.86843907292E+02  0.00000000000E+00 0.  1.
          5    1    1    2  502    0  0.57436962564E+02  0.69543805364E+01  0.77740132348E+01  0.58525855474E+02  0.41800000000E+01 0.  1.
         -5    1    1    2    0  502 -0.58772418728E+02 -0.17466309209E+02 -0.32154836351E+02  0.69359030135E+02  0.41800000000E+01 0.  1.
        -11    1    1    2    0    0  0.32092314124E+02 -0.26469426117E+02  0.63360387790E+02  0.75796344804E+02  0.00000000000E+00 0.  1.
         11    1    1    2    0    0 -0.30756857960E+02  0.36981354790E+02  0.12423865223E+03  0.13322480108E+03  0.00000000000E+00 0. -1.
</event>
<event>
 6    1  0.6597032E-006  0.1851961E+03  0.7561462E-02  0.1162867E+00
          2   -1    0    0  501    0  0.00000000000E+00  0.00000000000E+00  0.10692491148E+04  0.10692491148E+04  0.00000000000E+00 0. -1.
         -2   -1    0    0    0  501 -0.00000000000E+00 -0.00000000000E+00 -0.40110140645E+02  0.40110140645E+02  0.00000000000E+00 0.  1.
          5    1    1    2  502    0  0.35484694466E+02 -0.13635692087E+03  0.51463840930E+03  0.53359398247E+03  0.41800000000E+01 0.  1.
         -5    1    1    2    0  502 -0.92801799355E+00 -0.36018574743E+02  0.16797137245E+02  0.39972680215E+02  0.41800000000E+01 0.  1.
        -11    1    1    2    0    0 -0.18372721094E+02  0.17568299556E+03  0.40823720857E+03  0.44481421996E+03  0.00000000000E+00 0.  1.
         11    1    1    2    0    0 -0.16183955379E+02 -0.33074999483E+01  0.89466219020E+02  0.90978372779E+02  0.00000000000E+00 0. -1.
</event>
<event>
 6    1  0.6597032E-006  0.1296612E+03  0.7561462E-02  0.1227959E+00
         -4   -1    0    0    0  501 -0.00000000000E+00  0.00000000000E+00  0.40461939330E+03  0.40461939330E+03  0.00000000000E+00 0.  1.
          4   -1    0    0  501    0  0.00000000000E+00 -0.00000000000E+00 -0.63830052562E+02  0.63830052562E+02  0.00000000000E+00 0. -1.
          5    1    1    2  502    0  0.55099639392E+02  0.11693575407E+03  0.15316006771E+03  0.20046301301E+03  0.41800000000E+01 0.  1.
         -5    1    1    2    0  502 -0.87911516964E+01 -0.19652982671E+02  0.95685339764E+02  0.98166596772E+02  0.41800000000E+01 0.  1.
        -11    1    1    2    0    0 -0.43328209864E+01 -0.15980398522E+02 -0.19529374060E+02  0.25603572520E+02  0.00000000000E+00 0. -1.
         11    1    1    2    0    0 -0.41975666709E+02 -0.81302372879E+02  0.11147330732E+03  0.14421626356E+03  0.00000000000E+00 0.  1.
</event>
<event>
 6    1  0.6597032E-006  0.1069711E+03  0.7561462E-02  0.1266284E+00
          1   -1    0    0  501    0  0.00000000000E+00  0.00000000000E+00  0.40582068739E+03  0.40582068739E+03  0.00000000000E+00 0. -1.
         -1   -1    0    0    0  501 -0.00000000000E+00 -0.00000000000E+00 -0.36211904864E+02  0.36211904864E+02  0.00000000000E+00 0.  1.
          5    1    1    2  502    0 -0.94315835423E+01 -0.43267061523E+02  0.13292023353E+03  0.14016509645E+03  0.41800000000E+01 0. -1.
         -5    1    1    2    0  502  0.56963211284E+02  0.32282637679E+02  0.33502764593E+02  0.73667386072E+02  0.41800000000E+01 0. -1.
        -11    1    1    2    0    0 -0.64357544882E+02  0.35972721981E+02  0.14649691085E+03  0.16400388776E+03  0.00000000000E+00 0. -1.
         11    1    1    2    0    0  0.16825917141E+02 -0.24988298138E+02  0.56688873548E+02  0.64196221973E+02  0.00000000000E+00 0.  1.
</event>
<event>
 6    1  0.6597032E-006  0.9937981E+02  0.7561462E-02  0.1281606E+00
          1   -1    0    0  501    0  0.00000000000E+00  0.00000000000E+00  0.37757922403E+03  0.37757922403E+03  0.00000000000E+00 0. -1.
         -1   -1    0    0    0  501 -0.00000000000E+00 -0.00000000000E+00 -0.36522779272E+02  0.36522779272E+02  0.00000000000E+00 0.  1.
          5    1    1    2  502    0  0.59266365001E+02  0.39614899547E+02  0.46301319538E+02  0.85106561894E+02  0.41800000000E+01 0.  1.
         -5    1    1    2    0  502 -0.23076397656E+02 -0.37095489321E+02  0.58950237448E+02  0.73492845583E+02  0.41800000000E+01 0. -1.
        -11    1    1    2    0    0 -0.67122630228E+01  0.35062849466E+02  0.38523712352E+02  0.52521750741E+02  0.00000000000E+00 0.  1.
         11    1    1    2    0    0 -0.29477704322E+02 -0.37582259692E+02  0.19728117542E+03  0.20298084509E+03  0.00000000000E+00 0. -1.
</event>
<event>
 6    1  0.6597032E-006  0.1036306E+03  0.7561462E-02  0.1272841E+00
         -1   -1    0    0    0  501 -0.00000000000E+00  0.00000000000E+00  0.49569284194E+03  0.49569284194E+03  0.00000000000E+00 0.  1.
          1   -1    0    0  501    0  0.00000000000E+00 -0.00000000000E+00 -0.27343452144E+02  0.27343452144E+02  0.00000000000E+00 0. -1.
          5    1    1    2  502    0  0.68487410342E+02  0.67136665730E+01  0.19017752544E+03  0.20228831474E+03  0.41800000000E+01 0. -1.
         -5    1    1    2    0  502 -0.55480839873E+02  0.21260416339E+02  0.14128715120E+03  0.15332860265E+03  0.41800000000E+01 0. -1.
        -11    1    1    2    0    0  0.93857994326E+01  0.22041945148E+02  0.96279239598E+02  0.99215082294E+02  0.00000000000E+00 0.  1.
         11    1    1    2    0    0 -0.22392369902E+02 -0.50016028060E+02  0.40605473549E+02  0.68204294402E+02  0.00000000000E+00 0. -1.
</event>
<event>
 6    1  0.6597032E-006  0.1119034E+03  0.7561462E-02  0.1257085E+00
          2   -1    0    0  501    0  0.00000000000E+00  0.00000000000E+00  0.28228509643E+03  0.28228509643E+03  0.00000000000E+00 0. -1.
         -2   -1    0    0    0  501 -0.00000000000E+00 -0.00000000000E+00 -0.13603326033E+03  0.13603326033E+03  0.00000000000E+00 0.  1.
          5    1    1    2  502    0  0.14228326353E+02 -0.21392964423E+02  0.26276574212E+02  0.36986956484E+02  0.41800000000E+01 0. -1.
         -5    1    1    2    0  502  0.79854329647E+02  0.36603165873E+02 -0.95275287177E+02  0.12965862278E+03  0.41800000000E+01 0.  1.
        -11    1    1    2    0    0 -0.75538899660E+01 -0.21782781912E+02  0.41419050456E+01  0.23424479052E+02  0.00000000000E+00 0.  1.
         11    1    1    2    0    0 -0.86528766034E+02  0.65725804626E+01  0.21110864402E+03  0.22824829845E+03  0.00000000000E+00 0. -1.
</event>
<event>
 6    1  0.6597032E-006  0.1046995E+03  0.7561462E-02  0.1270713E+00
          2   -1    0    0  501    0  0.00000000000E+00  0.00000000000E+00  0.12445288655E+03  0.12445288655E+03  0.00000000000E+00 0.  1.
         -2   -1    0    0    0  501 -0.00000000000E+00 -0.00000000000E+00 -0.11772849872E+03  0.11772849872E+03  0.00000000000E+00 0. -1.
          5    1    1    2  502    0 -0.20987378259E+02  0.56281367508E+02 -0.18644778134E+02  0.63033027267E+02  0.41800000000E+01 0. -1.
         -5    1    1    2    0  502 -0.26282353287E+02 -0.67507518073E+02 -0.81951951221E+00  0.72568389144E+02  0.41800000000E+01 0. -1.
        -11    1    1    2    0    0  0.33536799039E+02 -0.22380338723E+02 -0.22246827569E+02  0.46049080208E+02  0.00000000000E+00 0. -1.
         11    1    1    2    0    0  0.13732932508E+02  0.33606489288E+02  0.48435513044E+02  0.60530888655E+02  0.00000000000E+00 0.  1.
</event>
<event>
 6    1  0.6597032E-006  0.3007612E+03  0.7561462E-02  0.1084861E+00
          2   -1    0    0  501    0  0.00000000000E+00  0.00000000000E+00  0.37561573700E+03  0.37561573700E+03  0.00000000000E+00 0.  1.
         -2   -1    0    0    0  501 -0.00000000000E+00 -0.00000000000E+00 -0.33460311443E+03  0.33460311443E+03  0.00000000000E+00 0. -1.
          5    1    1    2  502    0  0.25811401830E+03  0.11097937008E+03 -0.12491518905E+03  0.30750698184E+03  0.41800000000E+01 0. -1.
         -5    1    1    2    0  502  0.14685729040E+02 -0.22437032723E+02 -0.33768023336E+02  0.43322544649E+02  0.41800000000E+01 0. -1.
        -11    1    1    2    0    0 -0.19558440820E+03 -0.33180310024E+02  0.16570474479E+03  0.25848066882E+03  0.00000000000E+00 0.  1.
         11    1    1    2    0    0 -0.77215339135E+02 -0.55362027334E+02  0.33991090159E+02  0.10090865611E+03  0.00000000000E+00 0. -1.
</event>
<event>
 6    1  0.6597032E-006  0.1005666E+03  0.7561462E-02  0.1279109E+00
          1   -1    0    0  501    0  0.00000000000E+00  0.00000000000E+00  0.38049984730E+02  0.38049984730E+02  0.00000000000E+00 0. -1.
         -1   -1    0    0    0  501 -0.00000000000E+00 -0.00000000000E+00 -0.68703911110E+03  0.68703911110E+03  0.00000000000E+00 0.  1.
          5    1    1    2  502    0  0.29690702795E+02  0.69779568075E+02 -0.33274078777E+03  0.34129844740E+03  0.41800000000E+01 0.  1.
         -5    1    1    2    0  502 -0.20121814803E+02 -0.46511259307E+02 -0.28116137875E+03  0.28572255419E+03  0.41800000000E+01 0.  1.
        -11    1    1    2    0    0  0.20523757394E+02  0.15167767753E+02  0.13774537730E+02  0.29000408374E+02  0.00000000000E+00 0. -1.
         11    1    1    2    0    0 -0.30092645386E+02 -0.38436076520E+02 -0.48861497581E+02  0.69067685863E+02  0.00000000000E+00 0.  1.
</event>
<event>
 6    1  0.6597032E-006  0.2076993E+03  0.7561462E-02  0.1143401E+00
          1   -1    0    0  501    0  0.00000000000E+00  0.00000000000E+00  0.92442192047E+03  0.92442192047E+03  0.00000000000E+00 0. -1.
         -1   -1    0    0    0  501 -0.00000000000E+00 -0.00000000000E+00 -0.64595469158E+02  0.64595469158E+02  0.00000000000E+00 0.  1.
          5    1    1    2  502    0 -0.30457484393E+01  0.10067017179E+02  0.10114730112E+03  0.10177853576E+03  0.41800000000E+01 0.  1.
         -5    1    1    2    0  502 -0.18331922800E+03  0.66997274480E+02  0.17332526714E+03  0.26106262615E+03  0.41800000000E+01 0.  1.
        -11    1    1    2    0    0  0.86529621080E+02 -0.68431640046E+01  0.14290997740E+03  0.16720486195E+03  0.00000000000E+00 0.  1.
         11    1    1    2    0    0  0.99835355359E+02 -0.70221127655E+02  0.44244390565E+03  0.45897136577E+03  0.00000000000E+00 0. -1.
</event>
<event>
 6    1  0.6597032E-006  0.1304215E+03  0.7561462E-02  0.1226832E+00
         -1   -1    0    0    0  501 -0.00000000000E+00  0.00000000000E+00  0.49272746144E+02  0.49272746144E+02  0.00000000000E+00 0.  1.
          1   -1    0    0  501    0  0.00000000000E+00 -0.00000000000E+00 -0.51689699515E+03  0.51689699515E+03  0.00000000000E+00 0. -1.
          5    1    1    2  502    0 -0.17479697719E+00  0.32660407557E+02  0.57371344957E+01  0.33423343459E+02  0.41800000000E+01 0.  1.
         -5    1    1    2    0  502  0.93626699389E+02  0.35905819151E+02 -0.20939842696E+03  0.23220758020E+03  0.41800000000E+01 0.  1.
        -11    1    1    2    0    0 -0.37357711677E+02  0.19961774553E+01 -0.24624186536E+02  0.44787653530E+02  0.00000000000E+00 0.  1.
         11    1    1    2    0    0 -0.56094190735E+02 -0.70562404162E+02 -0.23933877000E+03  0.25575116411E+03  0.00000000000E+00 0. -1.
</event>
<event>
 6    1  0.6597032E-006  0.1129470E+03  0.7561462E-02  0.1255208E+00
          1   -1    0    0  501    0  0.00000000000E+00  0.00000000000E+00  0.80178258219E+02  0.80178258219E+02  0.00000000000E+00 0. -1.
         -1   -1    0    0    0  501 -0.00000000000E+00 -0.00000000000E+00 -0.29004718196E+03  0.29004718196E+03  0.00000000000E+00 0.  1.
          5    1    1    2  502    0  0.58778209688E+02 -0.65337493361E+02 -0.16329167984E+03  0.18548722618E+03  0.41800000000E+01 0.  1.
         -5    1    1    2    0  502 -0.50490160853E+02 -0.95634663177E+01 -0.42289823239E+02  0.66682964696E+02  0.41800000000E+01 0.  1.
        -11    1    1    2    0    0  0.10553247422E+02  0.63411024456E+02 -0.40262209224E+02  0.75851002270E+02  0.00000000000E+00 0.  1.
         11    1    1    2    0    0 -0.18841296257E+02  0.11489935222E+02  0.35974788556E+02  0.42204247034E+02  0.00000000000E+00 0. -1.
</event>
<event>
 6    1  0.6597032E-006  0.1150814E+03  0.7561462E-02  0.1251439E+00
         -1   -1    0    0    0  501 -0.00000000000E+00  0.00000000000E+00  0.16286065087E+04  0.16286065087E+04  0.00000000000E+00 0.  1.
          1   -1    0    0  501    0  0.00000000000E+00 -0.00000000000E+00 -0.32465188153E+02  0.32465188153E+02  0.00000000000E+00 0. -1.
          5    1    1    2  502    0  0.55953820452E+02  0.53900281551E+02  0.85238590942E+03  0.85592948387E+03  0.41800000000E+01 0. -1.
         -5    1    1    2    0  502 -0.18829060322E+02 -0.44662163505E+02  0.68292484886E+03  0.68465543448E+03  0.41800000000E+01 0.  1.
        -11    1    1    2    0    0  0.31889809019E+02  0.73574812050E+01  0.23468747533E+02  0.40272503768E+02  0.00000000000E+00 0.  1.
         11    1    1    2    0    0 -0.69014569148E+02 -0.16595599251E+02  0.37361814688E+02  0.80214274702E+02  0.00000000000E+00 0. -1.
</event>
<event>
 6    1  0.6597032E-006  0.1316031E+03  0.7561462E-02  0.1225096E+00
          2   -1    0    0  501    0  0.00000000000E+00  0.00000000000E+00  0.10208539347E+03  0.10208539347E+03  0.00000000000E+00 0. -1.
         -2   -1    0    0    0  501 -0.00000000000E+00 -0.00000000000E+00 -0.19821281304E+03  0.19821281304E+03  0.00000000000E+00 0.  1.
          5    1    1    2  502    0 -0.16039194836E+02 -0.94130066140E+02 -0.11343016793E+02  0.96248956111E+02  0.41800000000E+01 0. -1.
         -5    1    1    2    0  502  0.45362401502E+02  0.80395469709E+01 -0.55501196965E+02  0.72251207949E+02  0.41800000000E+01 0. -1.
        -11    1    1    2    0    0 -0.53705690037E+02  0.33225771575E+02  0.64634661445E+01  0.63482512818E+02  0.00000000000E+00 0. -1.
         11    1    1    2    0    0  0.24382483371E+02  0.52864747594E+02 -0.35746671950E+02  0.68315529633E+02  0.00000000000E+00 0.  1.
</event>
<event>
 6    1  0.6597032E-006  0.3790279E+02  0.7561462E-02  0.1524237E+00
          1   -1    0    0  501    0  0.00000000000E+00  0.00000000000E+00  0.64289603378E+02  0.64289603378E+02  0.00000000000E+00 0. -1.
         -1   -1    0    0    0  501 -0.00000000000E+00 -0.00000000000E+00 -0.20167719196E+03  0.20167719196E+03  0.00000000000E+00 0.  1.
          5    1    1    2  502    0 -0.51822548280E+01 -0.90719177469E+00 -0.14010757187E+03  0.14026860967E+03  0.41800000000E+01 0. -1.
         -5    1    1    2    0  502  0.24604019466E+01 -0.15691750762E+02  0.25424009282E+02  0.30267759542E+02  0.41800000000E+01 0. -1.
        -11    1    1    2    0    0 -0.22403233908E+02  0.15999163448E+02 -0.50771792577E+02  0.57755112692E+02  0.00000000000E+00 0.  1.
         11    1    1    2    0    0  0.25125086790E+02  0.59977908802E+00  0.28067766588E+02  0.37675313434E+02  0.00000000000E+00 0. -1.
</event>
<event>
 6    1  0.6597032E-006  0.1330440E+03  0.7561462E-02  0.1223008E+00
          2   -1    0    0  501    0  0.00000000000E+00  0.00000000000E+00  0.84617833555E+02  0.84617833555E+02  0.00000000000E+00 0. -1.
         -2   -1    0    0    0  501 -0.00000000000E+00 -0.00000000000E+00 -0.30012134682E+03  0.30012134682E+03  0.00000000000E+00 0.  1.
          5    1    1    2  502    0 -0.59910791554E+02  0.10989411220E+03 -0.10205553816E+03  0.16155130489E+03  0.41800000000E+01 0.  1.
         -5    1    1    2    0  502 -0.61592551654E+01 -0.23574873199E+02 -0.84203866538E+02  0.87758045844E+02  0.41800000000E+01 0.  1.
        -11    1    1    2    0    0  0.55851221057E+01 -0.38836073111E+02 -0.42007788836E+02  0.57481201157E+02  0.00000000000E+00 0.  1.
         11    1    1    2    0    0  0.60484924614E+02 -0.47483165895E+02  0.12763680266E+02  0.77948628486E+02  0.00000000000E+00 0. -1.
</event>
<event>
 6    1  0.6597032E-006  0.1483247E+03  0.7561462E-02  0.1202547E+00
          1   -1    0    0  501    0  0.00000000000E+00  0.00000000000E+00  0.44568248312E+03  0.44568248312E+03  0.00000000000E+00 0. -1.
         -1   -1    0    0    0  501 -0.00000000000E+00 -0.00000000000E+00 -0.60525893593E+02  0.60525893593E+02  0.00000000000E+00 0.  1.
          5    1    1    2  502    0 -0.68195280157E+02  0.11026370153E+02  0.49313199450E+02  0.84979062800E+02  0.41800000000E+01 0. -1.
         -5    1    1    2    0  502 -0.25555756011E+02 -0.87715346843E+02  0.19117350290E+03  0.21192418302E+03  0.41800000000E+01 0. -1.
        -11    1    1    2    0    0  0.76126826296E+02  0.86969242608E+02  0.77635431016E+02  0.13923434559E+03  0.00000000000E+00 0.  1.
         11    1    1    2    0    0  0.17624209872E+02 -0.10280265919E+02  0.67034456154E+02  0.70070785302E+02  0.00000000000E+00 0. -1.
</event>
<event>
 6    1  0.6597032E-006  0.1250990E+03  0.7561462E-02  0.1234915E+00
         -1   -1    0    0    0  501 -0.00000000000E+00  0.00000000000E+00  0.64560714151E+02  0.64560714151E+02  0.00000000000E+00 0.  1.
          1   -1    0    0  501    0  0.00000000000E+00 -0.00000000000E+00 -0.31718038992E+03  0.31718038992E+03  0.00000000000E+00 0. -1.
          5    1    1    2  502    0 -0.10632546753E+03  0.24630477903E+02 -0.12466422163E+03  0.16574198635E+03  0.41800000000E+01 0.  1.
         -5    1    1    2    0  502  0.14255503009E+02 -0.26209771620E+02  0.47353815048E+01  0.30497011860E+02  0.41800000000E+01 0.  1.
        -11    1    1    2    0    0  0.77838128962E+02 -0.24105848280E+02 -0.45129108836E+02  0.93147746650E+02  0.00000000000E+00 0.  1.
         11    1    1    2    0    0  0.14231835554E+02  0.25685141996E+02 -0.87561726807E+02  0.92354359205E+02  0.00000000000E+00 0. -1.
</event>
<event>
 6    1  0.6597032E-006  0.1549392E+03  0.7561462E-02  0.1194532E+00
          1   -1    0    0  501    0  0.00000000000E+00  0.00000000000E+00  0.39619917085E+03  0.39619917085E+03  0.00000000000E+00 0. -1.
         -1   -1    0    0    0  501 -0.00000000000E+00 -0.00000000000E+00 -0.89358879108E+02  0.89358879108E+02  0.00000000000E+00 0.  1.
          5    1    1    2  502    0 -0.10283331711E+03  0.46819288405E+02  0.15696138988E+02  0.11415155739E+03  0.41800000000E+01 0. -1.
         -5    1    1    2    0  502 -0.35488554666E+02 -0.46273309293E+02  0.69677236013E+02  0.90956287763E+02  0.41800000000E+01 0. -1.
        -11    1    1    2    0    0  0.56218876333E+02 -0.14722860527E+01  0.14923220939E+02  0.58184467047E+02  0.00000000000E+00 0.  1.
         11    1    1    2    0    0  0.82102995446E+02  0.92630694034E+00  0.20654369580E+03  0.22226573775E+03  0.00000000000E+00 0. -1.
</event>
<event>
 6    1  0.6597032E-006  0.1537670E+03  0.7561462E-02  0.1195919E+00
          2   -1    0    0  501    0  0.00000000000E+00  0.00000000000E+00  0.17502078546E+03  0.17502078546E+03  0.00000000000E+00 0. -1.
         -2   -1    0    0    0  501 -0.00000000000E+00 -0.00000000000E+00 -0.31551921734E+03  0.31551921734E+03  0.00000000000E+00 0.  1.
          5    1    1    2  502    0 -0.35350171073E+02 -0.97018740487E+02 -0.21979708648E+03  0.24287960438E+03  0.41800000000E+01 0. -1.
         -5    1    1    2    0  502  0.46954037937E+02 -0.26736361925E+02 -0.27276808659E+02  0.60671339347E+02  0.41800000000E+01 0. -1.
        -11    1    1    2    0    0  0.32940349879E+02  0.24023919650E+02  0.11979639006E+02  0.42493847980E+02  0.00000000000E+00 0.  1.
         11    1    1    2    0    0 -0.44544216742E+02  0.99731182762E+02  0.94595824251E+02  0.14449521108E+03  0.00000000000E+00 0. -1.
</event>
<event>
 6    1  0.6597032E-006  0.1946254E+03  0.7561462E-02  0.1154354E+00
          1   -1    0    0  501    0  0.00000000000E+00  0.00000000000E+00  0.16267736429E+03  0.16267736429E+03  0.00000000000E+00 0. -1.
         -1   -1    0    0    0  501 -0.00000000000E+00 -0.00000000000E+00 -0.23796754691E+03  0.23796754691E+03  0.00000000000E+00 0.  1.
          5    1    1    2  502    0 -0.54359833957E+02  0.52787007796E+02 -0.28095070140E+02  0.80921351361E+02  0.41800000000E+01 0.  1.
         -5    1    1    2    0  502 -0.10350795586E+03 -0.71805578512E+02 -0.29912133597E+02  0.12954592300E+03  0.41800000000E+01 0.  1.
        -11    1    1    2    0    0  0.12635387295E+03 -0.29228739805E+02 -0.24867783657E+02  0.13205312228E+03  0.00000000000E+00 0. -1.
         11    1    1    2    0    0  0.31513916860E+02  0.48247310521E+02  0.75848047665E+01  0.58124514551E+02  0.00000000000E+00 0.  1.
</event>
<event>
 6    1  0.6597032E-006  0.1115280E+03  0.7561462E-02  0.1257766E+00
         -2   -1    0    0    0  501 -0.00000000000E+00  0.00000000000E+00  0.29696409645E+02  0.29696409645E+02  0.00000000000E+00 0.  1.
          2   -1    0    0  501    0  0.00000000000E+00 -0.00000000000E+00 -0.56650002892E+03  0.56650002892E+03  0.00000000000E+00 0. -1.
          5    1    1    2  502    0  0.13794382022E+01  0.31467195792E+02 -0.14204373912E+03  0.14555405691E+03  0.41800000000E+01 0. -1.
         -5    1    1    2    0  502  0.17206116424E+01 -0.10263280527E+03 -0.17662199958E+03  0.20432634769E+03  0.41800000000E+01 0.  1.
        -11    1    1    2    0    0 -0.24601647849E+02  0.16011987988E+02 -0.16232224230E+03  0.16495494895E+03  0.00000000000E+00 0.  1.
         11    1    1    2    0    0  0.21501598005E+02  0.55153621488E+02 -0.55815638269E+02  0.81361085018E+02  0.00000000000E+00 0. -1.
</event>
<event>
 6    1  0.6597032E-006  0.8289817E+02  0.7561462E-02  0.1321022E+00
          1   -1    0    0  501    0  0.00000000000E+00  0.00000000000E+00  0.16369407193E+03  0.16369407193E+03  0.00000000000E+00 0. -1.
         -1   -1    0    0    0  501 -0.00000000000E+00 -0.00000000000E+00 -0.90887310263E+02  0.90887310263E+02  0.00000000000E+00 0.  1.
          5    1    1    2  502    0  0.19863706689E+02 -0.41019705256E+02 -0.56988092813E+02  0.73091026708E+02  0.41800000000E+01 0. -1.
         -5    1    1    2    0  502 -0.23037103595E+02  0.23578504003E+02  0.42645503368E+02  0.54062605843E+02  0.41800000000E+01 0. -1.
        -11    1    1    2    0    0  0.40934094485E+02 -0.74053190303E+01  0.19197161117E+02  0.45814515562E+02  0.00000000000E+00 0.  1.
         11    1    1    2    0    0 -0.37760697579E+02  0.24846520283E+02  0.67952189992E+02  0.81613234077E+02  0.00000000000E+00 0. -1.
</event>
<event>
 6    1  0.6597032E-006  0.3398733E+03  0.7561462E-02  0.1066850E+00
         -1   -1    0    0    0  501 -0.00000000000E+00  0.00000000000E+00  0.17236239738E+03  0.17236239738E+03  0.00000000000E+00 0.  1.
          1   -1    0    0  501    0  0.00000000000E+00 -0.00000000000E+00 -0.72266896291E+03  0.72266896291E+03  0.00000000000E+00 0. -1.
          5    1    1    2  502    0  0.23670532651E+03  0.11933559777E+03 -0.30557834420E+03  0.40455653911E+03  0.41800000000E+01 0.  1.
         -5    1    1    2    0  502  0.78195348325E+02 -0.28164024554E+02 -0.63315289696E+02  0.10456587918E+03  0.41800000000E+01 0.  1.
        -11    1    1    2    0    0 -0.19144398129E+03 -0.79872164461E+02 -0.69149183205E+02  0.21865948451E+03  0.00000000000E+00 0.  1.
         11    1    1    2    0    0 -0.12345669355E+03 -0.11299408760E+02 -0.11226374843E+03  0.16724945749E+03  0.00000000000E+00 0. -1.
</event>
<event>
 6    1  0.6597032E-006  0.8330388E+02  0.7561462E-02  0.1319929E+00
          2   -1    0    0  501    0  0.00000000000E+00  0.00000000000E+00  0.15960987141E+03  0.15960987141E+03  0.00000000000E+00 0. -1.
         -2   -1    0    0    0  501 -0.00000000000E+00 -0.00000000000E+00 -0.81761089782E+02  0.81761089782E+02  0.00000000000E+00 0.  1.
          5    1    1    2  502    0 -0.37932998362E+02 -0.12891820125E+02  0.45660774802E+02  0.60889162800E+02  0.41800000000E+01 0. -1.
         -5    1    1    2    0  502  0.60828243458E+02 -0.24550818861E+01 -0.30281555236E+02  0.68121564990E+02  0.41800000000E+01 0. -1.
        -11    1    1    2    0    0 -0.37103514050E+02 -0.80175970169E+01 -0.61847092554E+01  0.38460411404E+02  0.00000000000E+00 0.  1.
         11    1    1    2    0    0  0.14208268954E+02  0.23364499028E+02  0.68654271320E+02  0.73899822003E+02  0.00000000000E+00 0. -1.
</event>
<event>
 6    1  0.6597032E-006  0.1598909E+03  0.7561462E-02  0.1188820E+00
          2   -1    0    0  501    0  0.00000000000E+00  0.00000000000E+00  0.16208978213E+03  0.16208978213E+03  0.00000000000E+00 0. -1.
         -2   -1    0    0    0  501 -0.00000000000E+00 -0.00000000000E+00 -0.16696794741E+03  0.16696794741E+03  0.00000000000E+00 0.  1.
          5    1    1    2  502    0 -0.13159883532E+03 -0.16176592115E+01  0.80907307553E+01  0.13192347253E+03  0.41800000000E+01 0. -1.
         -5    1    1    2    0  502  0.12927547274E+02  0.36013173069E+02 -0.22274058206E+02  0.44471071293E+02  0.41800000000E+01 0. -1.
        -11    1    1    2    0    0  0.94363417534E+02  0.14059975121E+02  0.19819897370E+02  0.97442115129E+02  0.00000000000E+00 0. -1.
         11    1    1    2    0    0  0.24307870516E+02 -0.48455488979E+02 -0.10514735195E+02  0.55221070592E+02  0.00000000000E+00 0.  1.
</event>
<event>
 6    1  0.6597032E-006  0.1351402E+03  0.7561462E-02  0.1220022E+00
         -3   -1    0    0    0  501 -0.00000000000E+00  0.00000000000E+00  0.46469273678E+03  0.46469273678E+03  0.00000000000E+00 0.  1.
          3   -1    0    0  501    0  0.00000000000E+00 -0.00000000000E+00 -0.45114195941E+02  0.45114195941E+02  0.00000000000E+00 0. -1.
          5    1    1    2  502    0  0.79762163959E+02 -0.43963717203E+02  0.17621562634E+03  0.19840421013E+03  0.41800000000E+01 0. -1.
         -5    1    1    2    0  502  0.14108595685E+02  0.60588145558E+02  0.69845845235E+02  0.93626333640E+02  0.41800000000E+01 0. -1.
        -11    1    1    2    0    0 -0.99437120965E+02 -0.22132876950E+00  0.17404319760E+03  0.20044656306E+03  0.00000000000E+00 0.  1.
         11    1    1    2    0    0  0.55663613214E+01 -0.16403099586E+02 -0.52612833685E+00  0.17329825891E+02  0.00000000000E+00 0. -1.
</event>
<event>
 6    1  0.6597032E-006  0.1804036E+03  0.7561462E-02  0.1167413E+00
         -2   -1    0    0    0  501 -0.00000000000E+00  0.00000000000E+00  0.18442706399E+03  0.18442706399E+03  0.00000000000E+00 0.  1.
          2   -1    0    0  501    0  0.00000000000E+00 -0.00000000000E+00 -0.25896287437E+03  0.25896287437E+03  0.00000000000E+00 0. -1.
          5    1    1    2  502    0  0.81424988639E+02  0.50223410462E+02  0.74338427105E+02  0.12122744688E+03  0.41800000000E+01 0.  1.
         -5    1    1    2    0  502 -0.13327285529E+02  0.89560738071E+02 -0.30227314692E+01  0.90693724418E+02  0.41800000000E+01 0.  1.
        -11    1    1    2    0    0 -0.56530577147E+01 -0.10043897198E+03 -0.55805476116E+02  0.11503997270E+03  0.00000000000E+00 0.  1.
         11    1    1    2    0    0 -0.62444645396E+02 -0.39345176551E+02 -0.90046029893E+02  0.11642879436E+03  0.00000000000E+00 0. -1.
</event>
<event>
 6    1  0.6597032E-006  0.1139667E+03  0.7561462E-02  0.1253396E+00
          3   -1    0    0  501    0  0.00000000000E+00  0.00000000000E+00  0.32137145938E+02  0.32137145938E+02  0.00000000000E+00 0. -1.
         -3   -1    0    0    0  501 -0.00000000000E+00 -0.00000000000E+00 -0.45009135812E+03  0.45009135812E+03  0.00000000000E+00 0.  1.
          5    1    1    2  502    0 -0.44445380016E+02 -0.24712718253E+02 -0.96889852145E+02  0.10950445697E+03  0.41800000000E+01 0.  1.
         -5    1    1    2    0  502  0.83363901439E+02 -0.70040675239E+01 -0.16129234227E+03  0.18174512125E+03  0.41800000000E+01 0.  1.
        -11    1    1    2    0    0 -0.18887196028E+02 -0.25952074397E+02 -0.18420398176E+02  0.37007396670E+02  0.00000000000E+00 0. -1.
         11    1    1    2    0    0 -0.20031325396E+02  0.57668860174E+02 -0.14135161960E+03  0.15397152917E+03  0.00000000000E+00 0.  1.
</event>
<event>
 6    1  0.6597032E-006  0.1182803E+03  0.7561462E-02  0.1245961E+00
         -2   -1    0    0    0  501 -0.00000000000E+00  0.00000000000E+00  0.88090849536E+02  0.88090849536E+02  0.00000000000E+00 0.  1.
          2   -1    0    0  501    0  0.00000000000E+00 -0.00000000000E+00 -0.17100784024E+03  0.17100784024E+03  0.00000000000E+00 0. -1.
          5    1    1    2  502    0 -0.14428490176E+02 -0.43135162028E+02  0.84951685430E+01  0.46459270555E+02  0.41800000000E+01 0.  1.
         -5    1    1    2    0  502  0.70202498688E+02  0.46222765872E+02 -0.44490387277E+02  0.95193496978E+02  0.41800000000E+01 0.  1.
        -11    1    1    2    0    0  0.25087498170E+02 -0.60689101358E+01 -0.49127726850E+01  0.26274504184E+02  0.00000000000E+00 0.  1.
         11    1    1    2    0    0 -0.80861506682E+02  0.29813062920E+01 -0.42008999285E+02  0.91171418059E+02  0.00000000000E+00 0. -1.
</event>
<event>
 6    1  0.6597032E-006  0.1421229E+03  0.7561462E-02  0.1210501E+00
          2   -1    0    0  501    0  0.00000000000E+00  0.00000000000E+00  0.17730518175E+03  0.17730518175E+03  0.00000000000E+00 0. -1.
         -2   -1    0    0    0  501 -0.00000000000E+00 -0.00000000000E+00 -0.18109407781E+03  0.18109407781E+03  0.00000000000E+00 0.  1.
          5    1    1    2  502    0 -0.48978138572E+02  0.93412613957E+02 -0.43066924062E+02  0.11400441593E+03  0.41800000000E+01 0. -1.
         -5    1    1    2    0  502 -0.45714350549E+02 -0.25812057688E+02 -0.49254414008E+02  0.72107793389E+02  0.41800000000E+01 0.  1.
        -11    1    1    2    0    0  0.33381668721E+02 -0.53584714939E+02 -0.67829228394E+00  0.63135707505E+02  0.00000000000E+00 0.  1.
         11    1    1    2    0    0  0.61310820399E+02 -0.14015841330E+02  0.89210734300E+02  0.10915134273E+03  0.00000000000E+00 0. -1.
</event>
<event>
 6    1  0.6597032E-006  0.7283496E+02  0.7561462E-02  0.1350710E+00
         -2   -1    0    0    0  501 -0.00000000000E+00  0.00000000000E+00  0.29572751016E+03  0.29572751016E+03  0.00000000000E+00 0.  1.
          2   -1    0    0  501    0  0.00000000000E+00 -0.00000000000E+00 -0.42140088357E+02  0.42140088357E+02  0.00000000000E+00 0. -1.
          5    1    1    2  502    0 -0.45675017196E+02 -0.26532728288E+02  0.12937744813E+03  0.13980768702E+03  0.41800000000E+01 0.  1.
         -5    1    1    2    0  502  0.34524199031E+02  0.44438461977E+02  0.30048052570E+02  0.63930079656E+02  0.41800000000E+01 0.  1.
        -11    1    1    2    0    0  0.33938517121E+01 -0.25306441600E+02  0.11114816172E+03  0.11404318511E+03  0.00000000000E+00 0.  1.
         11    1    1    2    0    0  0.77569664523E+01  0.74007079120E+01 -0.16986240622E+02  0.20086646724E+02  0.00000000000E+00 0. -1.
</event>
<event>
 6    1  0.6597032E-006  0.3139307E+03  0.7561462E-02  0.1078477E+00
          2   -1    0    0  501    0  0.00000000000E+00  0.00000000000E+00  0.65096371022E+03  0.65096371022E+03  0.00000000000E+00 0. -1.
         -2   -1    0    0    0  501 -0.00000000000E+00 -0.00000000000E+00 -0.17031617775E+03  0.17031617775E+03  0.00000000000E+00 0.  1.
          5    1    1    2  502    0  0.22760853901E+03 -0.77750597225E+02  0.21141434051E+03  0.32025661300E+03  0.41800000000E+01 0. -1.
         -5    1    1    2    0  502 -0.14751160732E+02  0.14352828115E+03  0.93373576736E+01  0.14464654466E+03  0.41800000000E+01 0.  1.
        -11    1    1    2    0    0  0.10080585729E+02 -0.73959088900E+01  0.74237313281E+01  0.14540614285E+02  0.00000000000E+00 0.  1.
         11    1    1    2    0    0 -0.22293796400E+03 -0.58381775035E+02  0.25247210296E+03  0.34183611603E+03  0.00000000000E+00 0. -1.
</event>
<event>
 6    1  0.6597032E-006  0.1588208E+03  0.7561462E-02  0.1190035E+00
         -2   -1    0    0    0  501 -0.00000000000E+00  0.00000000000E+00  0.84948270504E+02  0.84948270504E+02  0.00000000000E+00 0.  1.
          2   -1    0    0  501    0  0.00000000000E+00 -0.00000000000E+00 -0.39719300864E+03  0.39719300864E+03  0.00000000000E+00 0. -1.
          5    1    1    2  502    0 -0.16440887562E+02 -0.63946765509E+02 -0.59709170245E+02  0.89118735484E+02  0.41800000000E+01 0.  1.
         -5    1    1    2    0  502  0.98953521836E+02 -0.37723783279E+02 -0.16111743402E+02  0.10720048500E+03  0.41800000000E+01 0.  1.
        -11    1    1    2    0    0 -0.67134767530E+02  0.32401940281E+02 -0.60092367589E+02  0.95749962860E+02  0.00000000000E+00 0.  1.
         11    1    1    2    0    0 -0.15377866744E+02  0.69268608506E+02 -0.17633145690E+03  0.19007209580E+03  0.00000000000E+00 0. -1.
</event>
<event>
 6    1  0.6597032E-006  0.1116860E+03  0.7561462E-02  0.1257479E+00
          1   -1    0    0  501    0  0.00000000000E+00  0.00000000000E+00  0.74514376443E+03  0.74514376443E+03  0.00000000000E+00 0. -1.
         -1   -1    0    0    0  501 -0.00000000000E+00 -0.00000000000E+00 -0.19039717409E+02  0.19039717409E+02  0.00000000000E+00 0.  1.
          5    1    1    2  502    0  0.24084560484E+02  0.50821859934E+02  0.16193726965E+03  0.17147617678E+03  0.41800000000E+01 0.  1.
         -5    1    1    2    0  502 -0.59716186447E+02 -0.42921088902E+02  0.18486223623E+03  0.19899688837E+03  0.41800000000E+01 0.  1.
        -11    1    1    2    0    0  0.49263414746E+02 -0.36715995296E+02  0.32487109159E+03  0.33062996612E+03  0.00000000000E+00 0. -1.
         11    1    1    2    0    0 -0.13631788782E+02  0.28815224265E+02  0.54433449546E+02  0.63080450571E+02  0.00000000000E+00 0.  1.
</event>
<event>
 6    1  0.6597032E-006  0.1107576E+03  0.7561462E-02  0.1259173E+00
          3   -1    0    0  501    0  0.00000000000E+00  0.00000000000E+00  0.11633651600E+03  0.11633651600E+03  0.00000000000E+00 0. -1.
         -3   -1    0    0    0  501 -0.00000000000E+00 -0.00000000000E+00 -0.22822312775E+03  0.22822312775E+03  0.00000000000E+00 0.  1.
          5    1    1    2  502    0  0.55340105257E+02 -0.47527338189E+02  0.71811227072E+01  0.73419452794E+02  0.41800000000E+01 0. -1.
         -5    1    1    2    0  502  0.31581615190E+02 -0.17369143197E+02 -0.12403932413E+03  0.12923742447E+03  0.41800000000E+01 0. -1.
        -11    1    1    2    0    0 -0.56188050184E+01  0.16765384136E+02 -0.35078690872E+02  0.39283121418E+02  0.00000000000E+00 0.  1.
         11    1    1    2    0    0 -0.81302915429E+02  0.48131097250E+02  0.40050280550E+02  0.10261964506E+03  0.00000000000E+00 0. -1.
</event>
<event>
 6    1  0.6597032E-006  0.9314752E+02  0.7561462E-02  0.1295404E+00
         -2   -1    0    0    0  501 -0.00000000000E+00  0.00000000000E+00  0.10896694448E+03  0.10896694448E+03  0.00000000000E+00 0.  1.
          2   -1    0    0  501    0  0.00000000000E+00 -0.00000000000E+00 -0.13574544664E+03  0.13574544664E+03  0.00000000000E+00 0. -1.
          5    1    1    2  502    0 -0.57604973735E+02  0.21382427736E+02 -0.27381075177E+02  0.67399828580E+02  0.41800000000E+01 0. -1.
         -5    1    1    2    0  502  0.19599957960E+02 -0.34953744154E+02  0.52896257531E+02  0.66493676716E+02  0.41800000000E+01 0. -1.
        -11    1    1    2    0    0 -0.22384551345E+02  0.79960389489E+01  0.82148918078E+01  0.25149338465E+02  0.00000000000E+00 0.  1.
         11    1    1    2    0    0  0.60389567120E+02  0.55752774692E+01 -0.60508576319E+02  0.85669547355E+02  0.00000000000E+00 0. -1.
</event>
<event>
 6    1  0.9111529E-006  0.1456585E+03  0.7561462E-02  0.1205912E+00
         -1   -1    0    0    0  501 -0.00000000000E+00  0.00000000000E+00  0.23681866488E+02  0.23681866488E+02  0.00000000000E+00 0.  1.
          1   -1    0    0  501    0  0.00000000000E+00 -0.00000000000E+00 -0.11758463769E+04  0.11758463769E+04  0.00000000000E+00 0. -1.
          5    1    1    2  502    0  0.23252576173E+02 -0.57405376820E+01 -0.14250647842E+02  0.28181366813E+02  0.41800000000E+01 0. -1.
         -5    1    1    2    0  502  0.52431762304E+02  0.10665231151E+03 -0.57951008808E+03  0.59158534451E+03  0.41800000000E+01 0. -1.
        -11    1    1    2    0    0  0.80408513896E+01 -0.48823863467E+02 -0.28171141273E+03  0.28602402871E+03  0.00000000000E+00 0. -1.
         11    1    1    2    0    0 -0.83725189866E+02 -0.52087910361E+02 -0.27669236174E+03  0.29373750334E+03  0.00000000000E+00 0.  1.
</event>
<event>
 6    1  0.6597032E-006  0.7538180E+02  0.7561462E-02  0.1342693E+00
          1   -1    0    0  501    0  0.00000000000E+00  0.00000000000E+00  0.46077870735E+03  0.46077870735E+03  0.00000000000E+00 0. -1.
         -1   -1    0    0    0  501 -0.00000000000E+00 -0.00000000000E+00 -0.31566654608E+02  0.31566654608E+02  0.00000000000E+00 0.  1.
          5    1    1    2  502    0  0.36679511089E+02  0.10304836477E+01  0.21157069071E+03  0.21476982562E+03  0.41800000000E+01 0. -1.
         -5    1    1    2    0  502 -0.29405393536E+01  0.76690082665E+01 -0.16893974326E+02  0.19244199854E+02  0.41800000000E+01 0. -1.
        -11    1    1    2    0    0  0.10983992691E+02  0.38237659371E+02  0.58583226566E+02  0.70814978108E+02  0.00000000000E+00 0.  1.
         11    1    1    2    0    0 -0.44722964426E+02 -0.46937151285E+02  0.17595210979E+03  0.18751635837E+03  0.00000000000E+00 0. -1.
</event>
<event>
 6    1  0.6597032E-006  0.3078905E+03  0.7561462E-02  0.1081361E+00
         -1   -1    0    0    0  501 -0.00000000000E+00  0.00000000000E+00  0.29828769499E+03  0.29828769499E+03  0.00000000000E+00 0.  1.
          1   -1    0    0  501    0  0.00000000000E+00 -0.00000000000E+00 -0.35679001577E+03  0.35679001577E+03  0.00000000000E+00 0. -1.
          5    1    1    2  502    0 -0.23054423784E+02  0.81523700015E+02  0.37106276335E+02  0.92584924602E+02  0.41800000000E+01 0. -1.
         -5    1    1    2    0  502 -0.41111138906E+02  0.21681775065E+03 -0.10375945824E+03  0.24389251796E+03  0.41800000000E+01 0. -1.
        -11    1    1    2    0    0  0.41890626680E+02 -0.75985323787E+02 -0.30182634190E+02  0.91867216357E+02  0.00000000000E+00 0. -1.
         11    1    1    2    0    0  0.22274936010E+02 -0.22235612688E+03  0.38333495312E+02  0.22673305184E+03  0.00000000000E+00 0.  1.
</event>
<event>
 6    1  0.6597032E-006  0.1718151E+03  0.7561462E-02  0.1175968E+00
         -2   -1    0    0    0  501 -0.00000000000E+00  0.00000000000E+00  0.95957211194E+02  0.95957211194E+02  0.00000000000E+00 0.  1.
          2   -1    0    0  501    0  0.00000000000E+00 -0.00000000000E+00 -0.37216415696E+03  0.37216415696E+03  0.00000000000E+00 0. -1.
          5    1    1    2  502    0 -0.25951447505E+01 -0.18806376486E+02  0.16098455871E+02  0.25239795051E+02  0.41800000000E+01 0.  1.
         -5    1    1    2    0  502 -0.14802790661E+03  0.37958711914E+02 -0.13970085240E+03  0.20709158724E+03  0.41800000000E+01 0.  1.
        -11    1    1    2    0    0  0.18043581788E+02 -0.33411579813E+02 -0.74713780027E+01  0.38700465095E+02  0.00000000000E+00 0.  1.
         11    1    1    2    0    0  0.13257946957E+03  0.14259244385E+02 -0.14513317123E+03  0.19708952076E+03  0.00000000000E+00 0. -1.
</event>
<event>
 6    1  0.6597032E-006  0.9373447E+02  0.7561462E-02  0.1294052E+00
         -1   -1    0    0    0  501 -0.00000000000E+00  0.00000000000E+00  0.30427196210E+02  0.30427196210E+02  0.00000000000E+00 0.  1.
          1   -1    0    0  501    0  0.00000000000E+00 -0.00000000000E+00 -0.39609177334E+03  0.39609177334E+03  0.00000000000E+00 0. -1.
          5    1    1    2  502    0  0.49847334224E+02 -0.29105158067E+02 -0.62611626801E+02  0.85261686390E+02  0.41800000000E+01 0. -1.
         -5    1    1    2    0  502 -0.60033437631E+02  0.21967621466E+02 -0.12691730139E+03  0.14216913807E+03  0.41800000000E+01 0. -1.
        -11    1    1    2    0    0 -0.26120918004E+02  0.12279330646E+02 -0.15307045184E+03  0.15576792848E+03  0.00000000000E+00 0. -1.
         11    1    1    2    0    0  0.36307021412E+02 -0.51417940440E+01 -0.23065197104E+02  0.43320216611E+02  0.00000000000E+00 0.  1.
</event>
<event>
 6    1  0.6597032E-006  0.1269905E+03  0.7561462E-02  0.1231991E+00
          2   -1    0    0  501    0  0.00000000000E+00  0.00000000000E+00  0.39122505391E+03  0.39122505391E+03  0.00000000000E+00 0. -1.
         -2   -1    0    0    0  501 -0.00000000000E+00 -0.00000000000E+00 -0.50116121819E+02  0.50116121819E+02  0.00000000000E+00 0.  1.
          5    1    1    2  502    0 -0.54411140468E+02  0.28980512895E+02  0.10812878762E+03  0.12453814455E+03  0.41800000000E+01 0.  1.
         -5    1    1    2    0  502 -0.17078761967E+02 -0.76134963216E+02  0.41540213854E+02  0.88494511136E+02  0.41800000000E+01 0.  1.
        -11    1    1    2    0    0  0.46518721548E+02  0.67407481509E+02  0.17259385531E+03  0.19104030702E+03  0.00000000000E+00 0. -1.
         11    1    1    2    0    0  0.24971180887E+02 -0.20253031188E+02  0.18846075306E+02  0.37268213019E+02  0.00000000000E+00 0.  1.
</event>
<event>
 6    1  0.6597032E-006  0.5580946E+02  0.7561462E-02  0.1416309E+00
          1   -1    0    0  501    0  0.00000000000E+00  0.00000000000E+00  0.51593300464E+02  0.51593300464E+02  0.00000000000E+00 0. -1.
         -1   -1    0    0    0  501 -0.00000000000E+00 -0.00000000000E+00 -0.24186515540E+03  0.24186515540E+03  0.00000000000E+00 0.  1.
          5    1    1    2  502    0 -0.62941122981E+01  0.15697723645E+02  0.30249067036E+02  0.34907203180E+02  0.41800000000E+01 0.  1.
         -5    1    1    2    0  502  0.11863685256E+01 -0.96106868429E+01 -0.11712674702E+03  0.11760068044E+03  0.41800000000E+01 0.  1.
        -11    1    1    2    0    0 -0.30881821156E+02 -0.27856094113E+02 -0.85818685372E+02  0.95365064967E+02  0.00000000000E+00 0. -1.
         11    1    1    2    0    0  0.35989564928E+02  0.21769057311E+02 -0.17575489580E+02  0.45585507279E+02  0.00000000000E+00 0.  1.
</event>
<event>
 6    1  0.6597032E-006  0.1199896E+03  0.7561462E-02  0.1243114E+00
         -1   -1    0    0    0  501 -0.00000000000E+00  0.00000000000E+00  0.29503384672E+03  0.29503384672E+03  0.00000000000E+00 0.  1.
          1   -1    0    0  501    0  0.00000000000E+00 -0.00000000000E+00 -0.58534924873E+02  0.58534924873E+02  0.00000000000E+00 0. -1.
          5    1    1    2  502    0  0.48615144164E+02 -0.70832728587E+02  0.77672469994E+02  0.11589302255E+03  0.41800000000E+01 0. -1.
         -5    1    1    2    0  502 -0.65352362552E+02  0.43603568109E+02  0.79516061861E+02  0.11185919246E+03  0.41800000000E+01 0.  1.
        -11    1    1    2    0    0 -0.25503530842E+02  0.90396711566E+00  0.70881453691E+02  0.75335434686E+02  0.00000000000E+00 0. -1.
         11    1    1    2    0    0  0.42240749229E+02  0.26325193363E+02  0.84289363015E+01  0.50481121899E+02  0.00000000000E+00 0.  1.
</event>
<event>
 6    1  0.6597032E-006  0.1136158E+03  0.7561462E-02  0.1254017E+00
          1   -1    0    0  501    0  0.00000000000E+00  0.00000000000E+00  0.46870618072E+02  0.46870618072E+02  0.00000000000E+00 0. -1.
         -1   -1    0    0    0  501 -0.00000000000E+00 -0.00000000000E+00 -0.33074872698E+03  0.33074872698E+03  0.00000000000E+00 0.  1.
          5    1    1    2  502    0 -0.26921160977E+01  0.71309021466E+02 -0.98461304006E+02  0.12167302420E+03  0.41800000000E+01 0.  1.
         -5    1    1    2    0  502 -0.51244808212E+02 -0.40748536747E+02 -0.53206628040E+02  0.84468285664E+02  0.41800000000E+01 0.  1.
        -11    1    1    2    0    0  0.73928313945E+01 -0.41647517448E+02 -0.11166361186E+03  0.11940658222E+03  0.00000000000E+00 0.  1.
         11    1    1    2    0    0  0.46544092915E+02  0.11087032729E+02 -0.20546565003E+02  0.52071452961E+02  0.00000000000E+00 0. -1.
</event>
<event>
 6    1  0.6597032E-006  0.9788829E+02  0.7561462E-02  0.1284800E+00
          1   -1    0    0  501    0  0.00000000000E+00  0.00000000000E+00  0.26284496462E+02  0.26284496462E+02  0.00000000000E+00 0. -1.
         -1   -1    0    0    0  501 -0.00000000000E+00 -0.00000000000E+00 -0.49107390202E+03  0.49107390202E+03  0.00000000000E+00 0.  1.
          5    1    1    2  502    0 -0.63041782221E+02  0.44339540748E+02 -0.20213329157E+03  0.21636913167E+03  0.41800000000E+01 0.  1.
         -5    1    1    2    0  502  0.36347242292E+02 -0.35208923897E+02 -0.11555068634E+03  0.12621499062E+03  0.41800000000E+01 0.  1.
        -11    1    1    2    0    0  0.14919911349E+02  0.26432137231E+02 -0.89709708134E+01  0.31650275680E+02  0.00000000000E+00 0. -1.
         11    1    1    2    0    0  0.11774628580E+02 -0.35562754082E+02 -0.13813445684E+03  0.14312400051E+03  0.00000000000E+00 0.  1.
</event>
<event>
 6    1  0.6597032E-006  0.3733021E+03  0.7561462E-02  0.1053437E+00
         -2   -1    0    0    0  501 -0.00000000000E+00  0.00000000000E+00  0.22129219100E+03  0.22129219100E+03  0.00000000000E+00 0.  1.
          2   -1    0    0  501    0  0.00000000000E+00 -0.00000000000E+00 -0.12946541740E+04  0.12946541740E+04  0.00000000000E+00 0. -1.
          5    1    1    2  502    0 -0.71647032290E+02  0.12839215684E+03 -0.30106555690E+02  0.15013900316E+03  0.41800000000E+01 0. -1.
         -5    1    1    2    0  502  0.22304882912E+02  0.23004883829E+03  0.26759331585E+02  0.23270906735E+03  0.41800000000E+01 0. -1.
        -11    1    1    2    0    0  0.37933475242E+02 -0.69459250399E+02 -0.16503250027E+03  0.18302803653E+03  0.00000000000E+00 0.  1.
         11    1    1    2    0    0  0.11408674136E+02 -0.28898174473E+03 -0.90498225865E+03  0.95007025798E+03  0.00000000000E+00 0. -1.
</event>
<event>
 6    1  0.6597032E-006  0.1159659E+03  0.7561462E-02  0.1249904E+00
         -1   -1    0    0    0  501 -0.00000000000E+00  0.00000000000E+00  0.64000297985E+02  0.64000297985E+02  0.00000000000E+00 0.  1.
          1   -1    0    0  501    0  0.00000000000E+00 -0.00000000000E+00 -0.32532522790E+03  0.32532522790E+03  0.00000000000E+00 0. -1.
          5    1    1    2  502    0  0.37889750698E+02 -0.34697764312E+02  0.12221576157E+02  0.52975535674E+02  0.41800000000E+01 0.  1.
         -5    1    1    2    0  502 -0.72560376217E+02 -0.85816410706E+01 -0.51130382016E+02  0.89277327051E+02  0.41800000000E+01 0.  1.
        -11    1    1    2    0    0  0.65657712265E+02  0.37709163736E+02 -0.16636349357E+03  0.18278328207E+03  0.00000000000E+00 0.  1.
         11    1    1    2    0    0 -0.30987086746E+02  0.55702416458E+01 -0.56052630481E+02  0.64289381090E+02  0.00000000000E+00 0. -1.
</event>
<event>
 6    1  0.6597032E-006  0.1016536E+03  0.7561462E-02  0.1276857E+00
          2   -1    0    0  501    0  0.00000000000E+00  0.00000000000E+00  0.42437128915E+03  0.42437128915E+03  0.00000000000E+00 0. -1.
         -2   -1    0    0    0  501 -0.00000000000E+00 -0.00000000000E+00 -0.34065927448E+02  0.34065927448E+02  0.00000000000E+00 0.  1.
          5    1    1    2  502    0  0.10104137019E+02 -0.41601995195E+02  0.50624871063E+02  0.66431690926E+02  0.41800000000E+01 0.  1.
         -5    1    1    2    0  502  0.14655703007E+02  0.89998684306E+02  0.16989172298E+03  0.19286063036E+03  0.41800000000E+01 0.  1.
        -11    1    1    2    0    0  0.12159299915E+02 -0.99706017082E+01 -0.49310799996E+01  0.16479594134E+02  0.00000000000E+00 0.  1.
         11    1    1    2    0    0 -0.36919139940E+02 -0.38426087403E+02  0.17471984767E+03  0.18266530118E+03  0.00000000000E+00 0. -1.
</event>
<event>
 6    1  0.6597032E-006  0.1315437E+03  0.7561462E-02  0.1225183E+00
          2   -1    0    0  501    0  0.00000000000E+00  0.00000000000E+00  0.16491637078E+03  0.16491637078E+03  0.00000000000E+00 0.  1.
         -2   -1    0    0    0  501 -0.00000000000E+00 -0.00000000000E+00 -0.15651210972E+03  0.15651210972E+03  0.00000000000E+00 0. -1.
          5    1    1    2  502    0  0.92075932177E+02  0.55679386069E+02 -0.84206118660E+02  0.13669789369E+03  0.41800000000E+01 0. -1.
         -5    1    1    2    0  502 -0.21849864835E+02  0.11902191496E+02  0.22160548796E+02  0.33580367458E+02  0.41800000000E+01 0. -1.
        -11    1    1    2    0    0 -0.74975598097E+02 -0.13863244397E+02  0.58011742690E+02  0.95806534982E+02  0.00000000000E+00 0.  1.
         11    1    1    2    0    0  0.47495307553E+01 -0.53718333168E+02  0.12438088233E+02  0.55343684370E+02  0.00000000000E+00 0. -1.
</event>
<event>
 6    1  0.6597032E-006  0.1156022E+03  0.7561462E-02  0.1250534E+00
         -2   -1    0    0    0  501 -0.00000000000E+00  0.00000000000E+00  0.62841349974E+02  0.62841349974E+02  0.00000000000E+00 0.  1.
          2   -1    0    0  501    0  0.00000000000E+00 -0.00000000000E+00 -0.24150276754E+03  0.24150276754E+03  0.00000000000E+00 0. -1.
          5    1    1    2  502    0  0.20731497247E+02  0.61457532042E+02 -0.55703275542E+02  0.85598776445E+02  0.41800000000E+01 0.  1.
         -5    1    1    2    0  502 -0.62100957126E+02 -0.23175808285E+02 -0.12355083969E+02  0.67555661980E+02  0.41800000000E+01 0.  1.
        -11    1    1    2    0    0  0.24844630289E+02  0.24488428717E+02 -0.57819693683E+02  0.67528185026E+02  0.00000000000E+00 0.  1.
         11    1    1    2    0    0  0.16524829590E+02 -0.62770152475E+02 -0.52783364375E+02  0.83661494066E+02  0.00000000000E+00 0. -1.
</event>
<event>
 6    1  0.6597032E-006  0.8195195E+02  0.7561462E-02  0.1323602E+00
          2   -1    0    0  501    0  0.00000000000E+00  0.00000000000E+00  0.82153409439E+02  0.82153409439E+02  0.00000000000E+00 0. -1.
         -2   -1    0    0    0  501 -0.00000000000E+00 -0.00000000000E+00 -0.32819055520E+03  0.32819055520E+03  0.00000000000E+00 0.  1.
          5    1    1    2  502    0  0.48527968610E+02 -0.73700732016E+01 -0.20890514760E+02  0.53508576167E+02  0.41800000000E+01 0. -1.
         -5    1    1    2    0  502  0.69425705650E+01  0.48032261895E+01 -0.24826471867E+03  0.24844338028E+03  0.41800000000E+01 0. -1.
        -11    1    1    2    0    0 -0.21474308663E+02  0.45586077324E+02  0.17188341883E+02  0.53241670476E+02  0.00000000000E+00 0. -1.
         11    1    1    2    0    0 -0.33996230512E+02 -0.43019230312E+02  0.59297457826E+01  0.55150337721E+02  0.00000000000E+00 0.  1.
</event>
<event>
 6    1  0.6597032E-006  0.2286072E+03  0.7561462E-02  0.1127624E+00
         -3   -1    0    0    0  501 -0.00000000000E+00  0.00000000000E+00  0.17165549743E+03  0.17165549743E+03  0.00000000000E+00 0.  1.
          3   -1    0    0  501    0  0.00000000000E+00 -0.00000000000E+00 -0.43929426208E+03  0.43929426208E+03  0.00000000000E+00 0. -1.
          5    1    1    2  502    0 -0.36192839338E+00 -0.66961988062E+02  0.15572475707E+01  0.67111372042E+02  0.41800000000E+01 0. -1.
         -5    1    1    2    0  502  0.16508315556E+03 -0.61446851113E+02  0.18516147606E+02  0.17716795388E+03  0.41800000000E+01 0. -1.
        -11    1    1    2    0    0 -0.16578147192E+03  0.11806648452E+03 -0.22619825764E+03  0.30428414838E+03  0.00000000000E+00 0.  1.
         11    1    1    2    0    0  0.10602447554E+01  0.10342354656E+02 -0.61513902194E+02  0.62386285206E+02  0.00000000000E+00 0. -1.
</event>
<event>
 6    1  0.6597032E-006  0.1107077E+03  0.7561462E-02  0.1259265E+00
          3   -1    0    0  501    0  0.00000000000E+00  0.00000000000E+00  0.89413671223E+02  0.89413671223E+02  0.00000000000E+00 0. -1.
         -3   -1    0    0    0  501 -0.00000000000E+00 -0.00000000000E+00 -0.19187344123E+03  0.19187344123E+03  0.00000000000E+00 0.  1.
          5    1    1    2  502    0 -0.54245146378E+02  0.57901600699E+02 -0.12540397580E+02  0.80435472526E+02  0.41800000000E+01 0.  1.
         -5    1    1    2    0  502  0.40906460730E+02  0.71825432382E+01 -0.75674590439E+02  0.86423628105E+02  0.41800000000E+01 0.  1.
        -11    1    1    2    0    0 -0.26207845929E+02 -0.26837316207E+01  0.19925778697E+02  0.33031655428E+02  0.00000000000E+00 0. -1.
         11    1    1    2    0    0  0.39546531576E+02 -0.62400412316E+02 -0.34170560687E+02  0.81396356396E+02  0.00000000000E+00 0.  1.
</event>
<event>
 6    1  0.6597032E-006  0.1015891E+03  0.7561462E-02  0.1276989E+00
         -1   -1    0    0    0  501 -0.00000000000E+00  0.00000000000E+00  0.10186379766E+03  0.10186379766E+03  0.00000000000E+00 0.  1.
          1   -1    0    0  501    0  0.00000000000E+00 -0.00000000000E+00 -0.13131677530E+03  0.13131677530E+03  0.00000000000E+00 0. -1.
          5    1    1    2  502    0  0.60783251947E+01  0.67568095459E+02 -0.30028414164E+02  0.74307278367E+02  0.41800000000E+01 0. -1.
         -5    1    1    2    0  502 -0.25291257876E+02 -0.49419436143E+02  0.52566243992E+01  0.55919879235E+02  0.41800000000E+01 0. -1.
        -11    1    1    2    0    0  0.25899393435E+02 -0.44969626668E+02  0.28947506940E+02  0.59422252237E+02  0.00000000000E+00 0.  1.
         11    1    1    2    0    0 -0.66864607540E+01  0.26820967351E+02 -0.33628694814E+02  0.43531163113E+02  0.00000000000E+00 0. -1.
</event>
<event>
 6    1  0.6597032E-006  0.1208388E+03  0.7561462E-02  0.1241720E+00
          1   -1    0    0  501    0  0.00000000000E+00  0.00000000000E+00  0.68846962009E+03  0.68846962009E+03  0.00000000000E+00 0. -1.
         -1   -1    0    0    0  501 -0.00000000000E+00 -0.00000000000E+00 -0.53046380801E+02  0.53046380801E+02  0.00000000000E+00 0.  1.
          5    1    1    2  502    0  0.70846204837E+02 -0.53112099178E+02  0.87887675530E+01  0.89077464344E+02  0.41800000000E+01 0.  1.
         -5    1    1    2    0  502 -0.86543839918E+01 -0.37034142253E+02  0.10670460970E+03  0.11335683564E+03  0.41800000000E+01 0.  1.
        -11    1    1    2    0    0 -0.41199281531E+02  0.82887236933E+02  0.50220624132E+03  0.51066504057E+03  0.00000000000E+00 0. -1.
         11    1    1    2    0    0 -0.20992539313E+02  0.72590044983E+01  0.17723620713E+02  0.28416660330E+02  0.00000000000E+00 0.  1.
</event>
<event>
 6    1  0.6597032E-006  0.9876755E+02  0.7561462E-02  0.1282909E+00
         -3   -1    0    0    0  501 -0.00000000000E+00  0.00000000000E+00  0.15108967051E+03  0.15108967051E+03  0.00000000000E+00 0.  1.
          3   -1    0    0  501    0  0.00000000000E+00 -0.00000000000E+00 -0.11923555674E+03  0.11923555674E+03  0.00000000000E+00 0. -1.
          5    1    1    2  502    0  0.51097169542E+02 -0.17560379981E+02  0.85512082949E+02  0.10123772227E+03  0.41800000000E+01 0.  1.
         -5    1    1    2    0  502 -0.51457981452E+02  0.16727364251E+02  0.77680720118E+01  0.54822841158E+02  0.41800000000E+01 0.  1.
        -11    1    1    2    0    0  0.29380738520E+02 -0.33209305717E+02 -0.88172414926E+01  0.45208732892E+02  0.00000000000E+00 0.  1.
         11    1    1    2    0    0 -0.29019926610E+02  0.34042321447E+02 -0.52608799704E+02  0.69055930928E+02  0.00000000000E+00 0. -1.
</event>
<event>
 6    1  0.6597032E-006  0.2405864E+03  0.7561462E-02  0.1119403E+00
         -3   -1    0    0    0  501 -0.00000000000E+00  0.00000000000E+00  0.18321867457E+03  0.18321867457E+03  0.00000000000E+00 0. -1.
          3   -1    0    0  501    0  0.00000000000E+00 -0.00000000000E+00 -0.34150966594E+03  0.34150966594E+03  0.00000000000E+00 0.  1.
          5    1    1    2  502    0  0.75973210853E+02  0.11654469791E+01 -0.25118049177E+02  0.80135359414E+02  0.41800000000E+01 0. -1.
         -5    1    1    2    0  502  0.77500501416E+02  0.15420597655E+03  0.15632162693E+01  0.17264335194E+03  0.41800000000E+01 0. -1.
        -11    1    1    2    0    0 -0.94413141938E+02 -0.39418130439E+02 -0.83642194642E+02  0.13215009308E+03  0.00000000000E+00 0.  1.
         11    1    1    2    0    0 -0.59060570331E+02 -0.11595329309E+03 -0.51093963819E+02  0.13979953607E+03  0.00000000000E+00 0. -1.
</event>
<event>
 6    1  0.6597032E-006  0.6928273E+02  0.7561462E-02  0.1362549E+00
         -1   -1    0    0    0  501 -0.00000000000E+00  0.00000000000E+00  0.64126866463E+02  0.64126866463E+02  0.00000000000E+00 0.  1.
          1   -1    0    0  501    0  0.00000000000E+00 -0.00000000000E+00 -0.20982959663E+03  0.20982959663E+03  0.00000000000E+00 0. -1.
          5    1    1    2  502    0  0.29517623561E+01  0.50180279231E+01  0.39117957719E+02  0.39769090024E+02  0.41800000000E+01 0.  1.
         -5    1    1    2    0  502  0.13223543845E+02 -0.35380938800E+02 -0.93458274392E+02  0.10088902019E+03  0.41800000000E+01 0.  1.
        -11    1    1    2    0    0 -0.13488576206E+02 -0.30042376419E+02 -0.50614230856E+02  0.60384488357E+02  0.00000000000E+00 0. -1.
         11    1    1    2    0    0 -0.26867299943E+01  0.60405287295E+02 -0.40748182635E+02  0.72913864521E+02  0.00000000000E+00 0.  1.
</event>
<event>
 6    1  0.6597032E-006  0.1435272E+03  0.7561462E-02  0.1208660E+00
         -1   -1    0    0    0  501 -0.00000000000E+00  0.00000000000E+00  0.47440365024E+03  0.47440365024E+03  0.00000000000E+00 0.  1.
          1   -1    0    0  501    0  0.00000000000E+00 -0.00000000000E+00 -0.80029459628E+02  0.80029459628E+02  0.00000000000E+00 0. -1.
          5    1    1    2  502    0 -0.11141996054E+02 -0.49631236317E+02  0.68749420418E+02  0.85623354888E+02  0.41800000000E+01 0. -1.
         -5    1    1    2    0  502 -0.90796600974E+02  0.43194622686E+02  0.31623524376E+03  0.33186141681E+03  0.41800000000E+01 0. -1.
        -11    1    1    2    0    0 -0.11386897177E+02 -0.16216161190E+02  0.80105541770E+01  0.21372746414E+02  0.00000000000E+00 0.  1.
         11    1    1    2    0    0  0.11332549421E+03  0.22652774821E+02  0.13789722601E+01  0.11557559175E+03  0.00000000000E+00 0. -1.
</event>
<event>
 6    1  0.6597032E-006  0.8826951E+02  0.7561462E-02  0.1307097E+00
         -2   -1    0    0    0  501 -0.00000000000E+00  0.00000000000E+00  0.21494269190E+02  0.21494269190E+02  0.00000000000E+00 0.  1.
          2   -1    0    0  501    0  0.00000000000E+00 -0.00000000000E+00 -0.57168167032E+03  0.57168167032E+03  0.00000000000E+00 0. -1.
          5    1    1    2  502    0 -0.17905550024E+02  0.21360229573E+02 -0.18390697110E+03  0.18605406351E+03  0.41800000000E+01 0. -1.
         -5    1    1    2    0  502 -0.35218650934E+01 -0.54342500408E+02 -0.43629389050E+02  0.69903554082E+02  0.41800000000E+01 0.  1.
        -11    1    1    2    0    0 -0.29799487709E+02  0.30213506716E+02 -0.98166551144E+02  0.10694642219E+03  0.00000000000E+00 0.  1.
         11    1    1    2    0    0  0.51226902827E+02  0.27687641194E+01 -0.22448448983E+03  0.23027189973E+03  0.00000000000E+00 0. -1.
</event>
<event>
 6    1  0.6597032E-006  0.1525866E+03  0.7561462E-02  0.1197330E+00
          2   -1    0    0  501    0  0.00000000000E+00  0.00000000000E+00  0.76431752696E+03  0.76431752696E+03  0.00000000000E+00 0. -1.
         -2   -1    0    0    0  501 -0.00000000000E+00 -0.00000000000E+00 -0.49722208920E+02  0.49722208920E+02  0.00000000000E+00 0.  1.
          5    1    1    2  502    0 -0.63290684312E+01  0.39663418120E+02  0.85313039659E+02  0.94387663283E+02  0.41800000000E+01 0.  1.
         -5    1    1    2    0  502 -0.11058255117E+03 -0.32010447952E+02  0.57742732699E+02  0.12885986567E+03  0.41800000000E+01 0.  1.
        -11    1    1    2    0    0  0.13783128834E+02 -0.39357208659E+02  0.15935136834E+03  0.16471740377E+03  0.00000000000E+00 0.  1.
         11    1    1    2    0    0  0.10312849076E+03  0.31704238491E+02  0.41218817734E+03  0.42607480315E+03  0.00000000000E+00 0. -1.
</event>
<event>
 6    1  0.6597032E-006  0.1096430E+03  0.7561462E-02  0.1261233E+00
          1   -1    0    0  501    0  0.00000000000E+00  0.00000000000E+00  0.82352399691E+02  0.82352399691E+02  0.00000000000E+00 0. -1.
         -1   -1    0    0    0  501 -0.00000000000E+00 -0.00000000000E+00 -0.34624591667E+03  0.34624591667E+03  0.00000000000E+00 0.  1.
          5    1    1    2  502    0  0.21650480025E+02  0.29027898543E+02 -0.20109043893E+03  0.20436780375E+03  0.41800000000E+01 0.  1.
         -5    1    1    2    0  502  0.27376182302E+02  0.67649364827E+02 -0.27969006414E+02  0.78266401723E+02  0.41800000000E+01 0.  1.
        -11    1    1    2    0    0 -0.86451622402E+01 -0.34713270150E+02  0.30704472102E+02  0.47143552706E+02  0.00000000000E+00 0. -1.
         11    1    1    2    0    0 -0.40381500087E+02 -0.61963993220E+02 -0.65538543736E+02  0.98820558185E+02  0.00000000000E+00 0.  1.
</event>
<event>
 6    1  0.6597032E-006  0.1360184E+03  0.7561462E-02  0.1218789E+00
          1   -1    0    0  501    0  0.00000000000E+00  0.00000000000E+00  0.75286393739E+02  0.75286393739E+02  0.00000000000E+00 0. -1.
         -1   -1    0    0    0  501 -0.00000000000E+00 -0.00000000000E+00 -0.32005245671E+03  0.32005245671E+03  0.00000000000E+00 0.  1.
          5    1    1    2  502    0 -0.67704944298E+02 -0.72850245447E+02 -0.85526236338E+02  0.13123767464E+03  0.41800000000E+01 0.  1.
         -5    1    1    2    0  502  0.38633645284E+02 -0.17021876161E+02 -0.11977956834E+03  0.12707053241E+03  0.41800000000E+01 0.  1.
        -11    1    1    2    0    0  0.37254449244E+02  0.10579822984E+03 -0.40087836863E+02  0.11911420608E+03  0.00000000000E+00 0.  1.
         11    1    1    2    0    0 -0.81831502301E+01 -0.15926108234E+02  0.62757856531E+00  0.17916437314E+02  0.00000000000E+00 0. -1.
</event>
<event>
 6    1  0.6597032E-006  0.1140852E+03  0.7561462E-02  0.1253186E+00
          2   -1    0    0  501    0  0.00000000000E+00  0.00000000000E+00  0.62931359499E+03  0.62931359499E+03  0.00000000000E+00 0.  1.
         -2   -1    0    0    0  501 -0.00000000000E+00 -0.00000000000E+00 -0.24683653568E+02  0.24683653568E+02  0.00000000000E+00 0. -1.
          5    1    1    2  502    0  0.34762647801E+02 -0.80148862138E+02  0.31211029471E+03  0.32413359938E+03  0.41800000000E+01 0.  1.
         -5    1    1    2    0  502  0.25795695867E+01  0.31481580447E+02  0.24574687635E+02  0.40238436339E+02  0.41800000000E+01 0.  1.
        -11    1    1    2    0    0  0.14407483822E+02  0.54865281832E+02  0.15995927392E+03  0.16971960421E+03  0.00000000000E+00 0. -1.
         11    1    1    2    0    0 -0.51749701210E+02 -0.61980001404E+01  0.10798568517E+03  0.11990560863E+03  0.00000000000E+00 0.  1.
</event>
<event>
 6    1  0.6597032E-006  0.1123955E+03  0.7561462E-02  0.1256197E+00
          3   -1    0    0  501    0  0.00000000000E+00  0.00000000000E+00  0.40473442219E+03  0.40473442219E+03  0.00000000000E+00 0.  1.
         -3   -1    0    0    0  501 -0.00000000000E+00 -0.00000000000E+00 -0.67753277543E+02  0.67753277543E+02  0.00000000000E+00 0. -1.
          5    1    1    2  502    0 -0.23978305020E+02 -0.38664632782E+02 -0.33190735661E+02  0.56471322577E+02  0.41800000000E+01 0.  1.
         -5    1    1    2    0  502 -0.44119719497E+02 -0.30187864242E+02  0.10366272114E+03  0.11671027783E+03  0.41800000000E+01 0.  1.
        -11    1    1    2    0    0  0.59190635118E+01 -0.17839549213E+02  0.98566472960E+02  0.10034258528E+03  0.00000000000E+00 0.  1.
         11    1    1    2    0    0  0.62178961005E+02  0.86692046237E+02  0.16794268620E+03  0.19896351405E+03  0.00000000000E+00 0. -1.
</event>
<event>
 6    1  0.6597032E-006  0.1032143E+03  0.7561462E-02  0.1273678E+00
          2   -1    0    0  501    0  0.00000000000E+00  0.00000000000E+00  0.22578595364E+03  0.22578595364E+03  0.00000000000E+00 0. -1.
         -2   -1    0    0    0  501 -0.00000000000E+00 -0.00000000000E+00 -0.91618654690E+02  0.91618654690E+02  0.00000000000E+00 0.  1.
          5    1    1    2  502    0  0.82039215502E+02  0.24157294254E+02  0.84224347306E+02  0.12010504080E+03  0.41800000000E+01 0.  1.
         -5    1    1    2    0  502  0.10276922221E+02 -0.21652073469E+02 -0.35321469117E+02  0.42889462534E+02  0.41800000000E+01 0.  1.
        -11    1    1    2    0    0 -0.66843969300E+02  0.10843239604E+02  0.35811547745E+01  0.67812364259E+02  0.00000000000E+00 0.  1.
         11    1    1    2    0    0 -0.25472168422E+02 -0.13348460389E+02  0.81683265983E+02  0.86597740736E+02  0.00000000000E+00 0. -1.
</event>
<event>
 6    1  0.6597032E-006  0.9709275E+02  0.7561462E-02  0.1286531E+00
         -1   -1    0    0    0  501 -0.00000000000E+00  0.00000000000E+00  0.88630463860E+02  0.88630463860E+02  0.00000000000E+00 0.  1.
          1   -1    0    0  501    0  0.00000000000E+00 -0.00000000000E+00 -0.16148533090E+03  0.16148533090E+03  0.00000000000E+00 0. -1.
          5    1    1    2  502    0 -0.25718969299E+02  0.11353959252E+02  0.33625515274E+02  0.44028688942E+02  0.41800000000E+01 0. -1.
         -5    1    1    2    0  502  0.24035611667E+02 -0.59094937370E+02 -0.69838865083E+02  0.94682953730E+02  0.41800000000E+01 0. -1.
        -11    1    1    2    0    0 -0.28489882660E+02 -0.15009726457E+02 -0.25094116458E+02  0.40824992138E+02  0.00000000000E+00 0. -1.
         11    1    1    2    0    0  0.30173240291E+02  0.62750704575E+02 -0.11547400770E+02  0.70579159947E+02  0.00000000000E+00 0.  1.
</event>
<event>
 6    1  0.6597032E-006  0.1949297E+03  0.7561462E-02  0.1154089E+00
          2   -1    0    0  501    0  0.00000000000E+00  0.00000000000E+00  0.82580832660E+03  0.82580832660E+03  0.00000000000E+00 0. -1.
         -2   -1    0    0    0  501 -0.00000000000E+00 -0.00000000000E+00 -0.66313338384E+02  0.66313338384E+02  0.00000000000E+00 0.  1.
          5    1    1    2  502    0  0.99154044769E+01 -0.43569834728E+02  0.42072275157E+02  0.61515806758E+02  0.41800000000E+01 0.  1.
         -5    1    1    2    0  502 -0.15466392819E+03 -0.20982693386E+02  0.10134168230E+03  0.18614191650E+03  0.41800000000E+01 0.  1.
        -11    1    1    2    0    0 -0.16094585186E+02  0.18085654129E+01  0.43354760643E+02  0.46281117657E+02  0.00000000000E+00 0.  1.
         11    1    1    2    0    0  0.16084310890E+03  0.62743962701E+02  0.57272627012E+03  0.59818282407E+03  0.00000000000E+00 0. -1.
</event>
<event>
 6    1  0.6597032E-006  0.1271421E+03  0.7561462E-02  0.1231759E+00
         -2   -1    0    0    0  501 -0.00000000000E+00  0.00000000000E+00  0.62663500643E+02  0.62663500643E+02  0.00000000000E+00 0.  1.
          2   -1    0    0  501    0  0.00000000000E+00 -0.00000000000E+00 -0.49554791452E+03  0.49554791452E+03  0.00000000000E+00 0. -1.
          5    1    1    2  502    0 -0.56693213309E+02 -0.39096286371E+02 -0.10403926809E+03  0.12483702074E+03  0.41800000000E+01 0.  1.
         -5    1    1    2    0  502 -0.43635479117E+02  0.22730674370E+02  0.24256989071E+02  0.55014657265E+02  0.41800000000E+01 0.  1.
        -11    1    1    2    0    0  0.34706754301E+02  0.51017215154E+02 -0.15799521796E+03  0.16961663814E+03  0.00000000000E+00 0. -1.
         11    1    1    2    0    0  0.65621938125E+02 -0.34651603153E+02 -0.19510691689E+03  0.20874309901E+03  0.00000000000E+00 0.  1.
</event>
<event>
 6    1  0.6597032E-006  0.1613682E+03  0.7561462E-02  0.1187161E+00
          1   -1    0    0  501    0  0.00000000000E+00  0.00000000000E+00  0.26110536004E+02  0.26110536004E+02  0.00000000000E+00 0. -1.
         -1   -1    0    0    0  501 -0.00000000000E+00 -0.00000000000E+00 -0.18556557873E+04  0.18556557873E+04  0.00000000000E+00 0.  1.
          5    1    1    2  502    0 -0.51676619810E+02  0.13103022608E+03 -0.13098148025E+04  0.13173730233E+04  0.41800000000E+01 0. -1.
         -5    1    1    2    0  502  0.28584910169E+02 -0.13791260150E+02 -0.27736995729E+03  0.27921114153E+03  0.41800000000E+01 0. -1.
        -11    1    1    2    0    0 -0.25221025011E+02 -0.91815079452E+02 -0.14274272126E+03  0.17158552792E+03  0.00000000000E+00 0. -1.
         11    1    1    2    0    0  0.48312734652E+02 -0.25423886476E+02 -0.99617770226E+02  0.11359663057E+03  0.00000000000E+00 0.  1.
</event>
<event>
 6    1  0.6597032E-006  0.9743124E+02  0.7561462E-02  0.1285792E+00
          4   -1    0    0  501    0  0.00000000000E+00  0.00000000000E+00  0.10427497147E+03  0.10427497147E+03  0.00000000000E+00 0. -1.
         -4   -1    0    0    0  501 -0.00000000000E+00 -0.00000000000E+00 -0.12217584932E+03  0.12217584932E+03  0.00000000000E+00 0.  1.
          5    1    1    2  502    0 -0.45358745577E+02  0.64538103562E+00 -0.43924562813E+02  0.63282477317E+02  0.41800000000E+01 0.  1.
         -5    1    1    2    0  502  0.66346257476E+02 -0.74662348630E+01  0.11382793069E+02  0.67857283487E+02  0.41800000000E+01 0.  1.
        -11    1    1    2    0    0 -0.41288685596E+02  0.30417570131E+02  0.31224495564E+02  0.60041262929E+02  0.00000000000E+00 0. -1.
         11    1    1    2    0    0  0.20301173697E+02 -0.23596716303E+02 -0.16583603675E+02  0.35269797060E+02  0.00000000000E+00 0.  1.
</event>
<event>
 6    1  0.6597032E-006  0.7442207E+02  0.7561462E-02  0.1345670E+00
         -1   -1    0    0    0  501 -0.00000000000E+00  0.00000000000E+00  0.10410671423E+03  0.10410671423E+03  0.00000000000E+00 0.  1.
          1   -1    0    0  501    0  0.00000000000E+00 -0.00000000000E+00 -0.13441659856E+03  0.13441659856E+03  0.00000000000E+00 0. -1.
          5    1    1    2  502    0  0.29654676235E+01 -0.27410269079E+02 -0.64133644436E+02  0.69933637099E+02  0.41800000000E+01 0. -1.
         -5    1    1    2    0  502 -0.25945990911E+02 -0.83110351645E+01  0.56005237240E+02  0.62420563504E+02  0.41800000000E+01 0. -1.
        -11    1    1    2    0    0 -0.19165368911E+02 -0.17193547828E+02 -0.28281964786E+02  0.38246555199E+02  0.00000000000E+00 0.  1.
         11    1    1    2    0    0  0.42145892198E+02  0.52914852072E+02  0.61004876534E+01  0.67922556994E+02  0.00000000000E+00 0. -1.
</event>
<event>
 6    1  0.6597032E-006  0.1138761E+03  0.7561462E-02  0.1253556E+00
          2   -1    0    0  501    0  0.00000000000E+00  0.00000000000E+00  0.79657707309E+02  0.79657707309E+02  0.00000000000E+00 0. -1.
         -2   -1    0    0    0  501 -0.00000000000E+00 -0.00000000000E+00 -0.41816045818E+03  0.41816045818E+03  0.00000000000E+00 0.  1.
          5    1    1    2  502    0 -0.15665319802E+02 -0.20347496309E+02 -0.24992046555E+01  0.26136971409E+02  0.41800000000E+01 0. -1.
         -5    1    1    2    0  502  0.56428545585E+02 -0.61642658232E+02 -0.33445195093E+03  0.34476017455E+03  0.41800000000E+01 0. -1.
        -11    1    1    2    0    0 -0.60162357364E+02  0.41275304696E+02 -0.23650702727E+02  0.76697560332E+02  0.00000000000E+00 0.  1.
         11    1    1    2    0    0  0.19399131581E+02  0.40714849845E+02  0.22099107447E+02  0.50223459199E+02  0.00000000000E+00 0. -1.
</event>
<event>
 6    1  0.6597032E-006  0.1294546E+03  0.7561462E-02  0.1228267E+00
          1   -1    0    0  501    0  0.00000000000E+00  0.00000000000E+00  0.33676899123E+03  0.33676899123E+03  0.00000000000E+00 0. -1.
         -1   -1    0    0    0  501 -0.00000000000E+00 -0.00000000000E+00 -0.62360861306E+02  0.62360861306E+02  0.00000000000E+00 0.  1.
          5    1    1    2  502    0 -0.10933410907E+03  0.35806623669E+02  0.11350466151E+03  0.16166892803E+03  0.41800000000E+01 0.  1.
         -5    1    1    2    0  502  0.34258409442E+02  0.25371356644E+02  0.50050477934E+02  0.65877667664E+02  0.41800000000E+01 0.  1.
        -11    1    1    2    0    0  0.36049879966E+02 -0.11631223069E+02 -0.64257537082E+01  0.38420951398E+02  0.00000000000E+00 0.  1.
         11    1    1    2    0    0  0.39025819663E+02 -0.49546757244E+02  0.11727874419E+03  0.13316230545E+03  0.00000000000E+00 0. -1.
</event>
<event>
 6    1  0.6597032E-006  0.1022959E+03  0.7561462E-02  0.1275541E+00
          3   -1    0    0  501    0  0.00000000000E+00  0.00000000000E+00  0.27650974431E+02  0.27650974431E+02  0.00000000000E+00 0. -1.
         -3   -1    0    0    0  501 -0.00000000000E+00 -0.00000000000E+00 -0.48949971337E+03  0.48949971337E+03  0.00000000000E+00 0.  1.
          5    1    1    2  502    0 -0.97921254758E+01 -0.45439535974E+02 -0.18830109735E+03  0.19399848663E+03  0.41800000000E+01 0.  1.
         -5    1    1    2    0  502  0.52572582645E+02  0.33551163371E+02 -0.55548679676E+02  0.83622277075E+02  0.41800000000E+01 0.  1.
        -11    1    1    2    0    0 -0.40196930356E+02 -0.32044477893E+02 -0.83922918031E+02  0.98415943547E+02  0.00000000000E+00 0. -1.
         11    1    1    2    0    0 -0.25835268132E+01  0.43932850496E+02 -0.13407604388E+03  0.14111398055E+03  0.00000000000E+00 0.  1.
</event>
<event>
 6    1  0.6597032E-006  0.1000132E+03  0.7561462E-02  0.1280268E+00
         -2   -1    0    0    0  501 -0.00000000000E+00  0.00000000000E+00  0.13080708150E+03  0.13080708150E+03  0.00000000000E+00 0.  1.
          2   -1    0    0  501    0  0.00000000000E+00 -0.00000000000E+00 -0.90160663434E+02  0.90160663434E+02  0.00000000000E+00 0. -1.
          5    1    1    2  502    0 -0.60083185196E+02  0.13174302454E+02 -0.80293565033E+01  0.62173099925E+02  0.41800000000E+01 0.  1.
         -5    1    1    2    0  502  0.54813894454E+02  0.74561998064E+00  0.39420218119E+02  0.67650166082E+02  0.41800000000E+01 0.  1.
        -11    1    1    2    0    0  0.20932421365E+01  0.34654556538E+02  0.21647493193E+02  0.40913737461E+02  0.00000000000E+00 0.  1.
         11    1    1    2    0    0  0.31760486054E+01 -0.48574478972E+02 -0.12391936741E+02  0.50230741467E+02  0.00000000000E+00 0. -1.
</event>
<event>
 6    1  0.6597032E-006  0.1450301E+03  0.7561462E-02  0.1206716E+00
          1   -1    0    0  501    0  0.00000000000E+00  0.00000000000E+00  0.46222732419E+03  0.46222732419E+03  0.00000000000E+00 0. -1.
         -1   -1    0    0    0  501 -0.00000000000E+00 -0.00000000000E+00 -0.49026281204E+02  0.49026281204E+02  0.00000000000E+00 0.  1.
          5    1    1    2  502    0 -0.28056682034E+02 -0.87029347115E+02  0.14796060938E+03  0.17398591608E+03  0.41800000000E+01 0. -1.
         -5    1    1    2    0  502  0.67296530838E+02 -0.49538884813E+01  0.14162778664E+03  0.15693714163E+03  0.41800000000E+01 0. -1.
        -11    1    1    2    0    0 -0.63479267009E+02  0.84221218579E+02  0.10480225958E+03  0.14868202518E+03  0.00000000000E+00 0. -1.
         11    1    1    2    0    0  0.24239418205E+02  0.77620170169E+01  0.18810387390E+02  0.31648522507E+02  0.00000000000E+00 0.  1.
</event>
<event>
 6    1  0.6597032E-006  0.1057348E+03  0.7561462E-02  0.1268679E+00
          1   -1    0    0  501    0  0.00000000000E+00  0.00000000000E+00  0.72484161560E+02  0.72484161560E+02  0.00000000000E+00 0. -1.
         -1   -1    0    0    0  501 -0.00000000000E+00 -0.00000000000E+00 -0.18067266476E+03  0.18067266476E+03  0.00000000000E+00 0.  1.
          5    1    1    2  502    0  0.67070033855E+02  0.54612625942E+02 -0.78060676073E+01  0.86944438839E+02  0.41800000000E+01 0. -1.
         -5    1    1    2    0  502 -0.26989532857E+02 -0.27375483811E+02 -0.39557571644E+02  0.55318404461E+02  0.41800000000E+01 0. -1.
        -11    1    1    2    0    0  0.11399852012E+01  0.21979258907E+02  0.63695049482E+00  0.22018017492E+02  0.00000000000E+00 0. -1.
         11    1    1    2    0    0 -0.41220486200E+02 -0.49216401037E+02 -0.61461814442E+02  0.88875965525E+02  0.00000000000E+00 0.  1.
</event>
<event>
 6    1  0.6597032E-006  0.9289968E+02  0.7561462E-02  0.1295978E+00
         -1   -1    0    0    0  501 -0.00000000000E+00  0.00000000000E+00  0.34697827969E+02  0.34697827969E+02  0.00000000000E+00 0.  1.
          1   -1    0    0  501    0  0.00000000000E+00 -0.00000000000E+00 -0.44137156510E+03  0.44137156510E+03  0.00000000000E+00 0. -1.
          5    1    1    2  502    0 -0.23997762855E+02  0.11377772694E+02 -0.12180393023E+03  0.12473578537E+03  0.41800000000E+01 0. -1.
         -5    1    1    2    0  502  0.54115593735E+02 -0.34449802167E+02 -0.18213859264E+02  0.66816939648E+02  0.41800000000E+01 0. -1.
        -11    1    1    2    0    0 -0.55949901124E+02 -0.53683225091E+01 -0.11404238899E+03  0.12714116882E+03  0.00000000000E+00 0.  1.
         11    1    1    2    0    0  0.25832070244E+02  0.28440351983E+02 -0.15261355865E+03  0.15737549923E+03  0.00000000000E+00 0. -1.
</event>
<event>
 6    1  0.6597032E-006  0.1175211E+03  0.7561462E-02  0.1247243E+00
         -1   -1    0    0    0  501 -0.00000000000E+00  0.00000000000E+00  0.29131613695E+02  0.29131613695E+02  0.00000000000E+00 0.  1.
          1   -1    0    0  501    0  0.00000000000E+00 -0.00000000000E+00 -0.56155818223E+03  0.56155818223E+03  0.00000000000E+00 0. -1.
          5    1    1    2  502    0 -0.92539613954E+02 -0.12074890293E+02 -0.19331269636E+03  0.21470131369E+03  0.41800000000E+01 0.  1.
         -5    1    1    2    0  502  0.36594151050E+02 -0.99219022662E+01 -0.31361878090E+02  0.49382343333E+02  0.41800000000E+01 0.  1.
        -11    1    1    2    0    0  0.30736837815E+02 -0.31703085487E+02 -0.81354771408E+02  0.92565855795E+02  0.00000000000E+00 0.  1.
         11    1    1    2    0    0  0.25208625089E+02  0.53699878046E+02 -0.22639722267E+03  0.23404028310E+03  0.00000000000E+00 0. -1.
</event>
<event>
 6    1  0.6597032E-006  0.9880262E+02  0.7561462E-02  0.1282834E+00
         -1   -1    0    0    0  501 -0.00000000000E+00  0.00000000000E+00  0.98443421156E+02  0.98443421156E+02  0.00000000000E+00 0.  1.
          1   -1    0    0  501    0  0.00000000000E+00 -0.00000000000E+00 -0.16077083931E+03  0.16077083931E+03  0.00000000000E+00 0. -1.
          5    1    1    2  502    0  0.91501406824E+01 -0.69506142946E+02  0.31248911071E+02  0.76868692098E+02  0.41800000000E+01 0. -1.
         -5    1    1    2    0  502  0.33695000718E+02  0.37810442255E+02 -0.30182726487E+02  0.59105431181E+02  0.41800000000E+01 0. -1.
        -11    1    1    2    0    0 -0.48244493103E+02  0.40780500955E+01  0.55894665934E+01  0.48738113876E+02  0.00000000000E+00 0.  1.
         11    1    1    2    0    0  0.53993517031E+01  0.27617650596E+02 -0.68983069330E+02  0.74502023311E+02  0.00000000000E+00 0. -1.
</event>
<event>
 6    1  0.6597032E-006  0.9621122E+02  0.7561462E-02  0.1288471E+00
         -2   -1    0    0    0  501 -0.00000000000E+00  0.00000000000E+00  0.38119726421E+02  0.38119726421E+02  0.00000000000E+00 0.  1.
          2   -1    0    0  501    0  0.00000000000E+00 -0.00000000000E+00 -0.30899914464E+03  0.30899914464E+03  0.00000000000E+00 0. -1.
          5    1    1    2  502    0 -0.48133009284E+02  0.41980539754E+02 -0.10533283406E+03  0.12325433312E+03  0.41800000000E+01 0. -1.
         -5    1    1    2    0  502  0.33636732226E+02 -0.23237335478E+02 -0.11505182611E+02  0.42676048808E+02  0.41800000000E+01 0.  1.
        -11    1    1    2    0    0  0.23482340411E+02  0.29807620953E+02 -0.10478929290E+03  0.11144824128E+03  0.00000000000E+00 0. -1.
         11    1    1    2    0    0 -0.89860633526E+01 -0.48550825229E+02 -0.49252108652E+02  0.69740247861E+02  0.00000000000E+00 0.  1.
</event>
<event>
 6    1  0.6597032E-006  0.8944233E+02  0.7561462E-02  0.1304208E+00
         -2   -1    0    0    0  501 -0.00000000000E+00  0.00000000000E+00  0.35497861148E+02  0.35497861148E+02  0.00000000000E+00 0.  1.
          2   -1    0    0  501    0  0.00000000000E+00 -0.00000000000E+00 -0.38197061684E+03  0.38197061684E+03  0.00000000000E+00 0. -1.
          5    1    1    2  502    0  0.36312851004E+02 -0.30584447955E+02 -0.80181929312E+01  0.48330067480E+02  0.41800000000E+01 0. -1.
         -5    1    1    2    0  502  0.17109303039E+02  0.34610127637E+02 -0.17777334219E+03  0.18196544391E+03  0.41800000000E+01 0. -1.
        -11    1    1    2    0    0 -0.30176347131E+02 -0.39665794355E+02 -0.11154622471E+03  0.12217425021E+03  0.00000000000E+00 0. -1.
         11    1    1    2    0    0 -0.23245806913E+02  0.35640114674E+02 -0.49134995863E+02  0.64998716383E+02  0.00000000000E+00 0.  1.
</event>
<event>
 6    1  0.6597032E-006  0.1143124E+03  0.7561462E-02  0.1252786E+00
          2   -1    0    0  501    0  0.00000000000E+00  0.00000000000E+00  0.13100466787E+03  0.13100466787E+03  0.00000000000E+00 0. -1.
         -2   -1    0    0    0  501 -0.00000000000E+00 -0.00000000000E+00 -0.16645482885E+03  0.16645482885E+03  0.00000000000E+00 0.  1.
          5    1    1    2  502    0  0.26213596431E+02 -0.21187428886E+02 -0.38285132574E+02  0.51178936652E+02  0.41800000000E+01 0.  1.
         -5    1    1    2    0  502 -0.54657591166E+02  0.87571870870E+02 -0.23673097839E+02  0.10599138079E+03  0.41800000000E+01 0.  1.
        -11    1    1    2    0    0  0.29963530939E+02 -0.55247850592E+01 -0.39897361690E+02  0.50200955230E+02  0.00000000000E+00 0.  1.
         11    1    1    2    0    0 -0.15195362033E+01 -0.60859656924E+02  0.66405431122E+02  0.90088224057E+02  0.00000000000E+00 0. -1.
</event>
<event>
 6    1  0.6597032E-006  0.1487513E+03  0.7561462E-02  0.1202016E+00
          2   -1    0    0  501    0  0.00000000000E+00  0.00000000000E+00  0.83632037713E+03  0.83632037713E+03  0.00000000000E+00 0. -1.
         -2   -1    0    0    0  501 -0.00000000000E+00 -0.00000000000E+00 -0.39350013654E+02  0.39350013654E+02  0.00000000000E+00 0.  1.
          5    1    1    2  502    0  0.11763720814E+02  0.10998389350E+03  0.89418948151E+02  0.14229568737E+03  0.41800000000E+01 0.  1.
         -5    1    1    2    0  502 -0.28628990771E+02  0.17030028048E+02  0.16773863650E+03  0.17106537797E+03  0.41800000000E+01 0.  1.
        -11    1    1    2    0    0 -0.22477179408E+02 -0.10654712124E+03  0.43655775935E+03  0.44993353941E+03  0.00000000000E+00 0. -1.
         11    1    1    2    0    0  0.39342449365E+02 -0.20466800311E+02  0.10325501948E+03  0.11237578603E+03  0.00000000000E+00 0.  1.
</event>
<event>
 6    1  0.6597032E-006  0.1211718E+03  0.7561462E-02  0.1241176E+00
          1   -1    0    0  501    0  0.00000000000E+00  0.00000000000E+00  0.94198544647E+02  0.94198544647E+02  0.00000000000E+00 0. -1.
         -1   -1    0    0    0  501 -0.00000000000E+00 -0.00000000000E+00 -0.21320881976E+03  0.21320881976E+03  0.00000000000E+00 0.  1.
          5    1    1    2  502    0 -0.30677909225E+02 -0.91893804945E+01 -0.11830404649E+02  0.34394908089E+02  0.41800000000E+01 0.  1.
         -5    1    1    2    0  502  0.11979979878E+03  0.14476245398E+02 -0.74011108408E+02  0.14162157334E+03  0.41800000000E+01 0.  1.
        -11    1    1    2    0    0 -0.42327319260E+02 -0.35710083594E+01  0.30545602571E+02  0.52320052493E+02  0.00000000000E+00 0. -1.
         11    1    1    2    0    0 -0.46794570296E+02 -0.17158565435E+01 -0.63714364626E+02  0.79070830479E+02  0.00000000000E+00 0.  1.
</event>
<event>
 6    1  0.6597032E-006  0.1715811E+03  0.7561462E-02  0.1176209E+00
          1   -1    0    0  501    0  0.00000000000E+00  0.00000000000E+00  0.47558285469E+03  0.47558285469E+03  0.00000000000E+00 0. -1.
         -1   -1    0    0    0  501 -0.00000000000E+00 -0.00000000000E+00 -0.64234082808E+02  0.64234082808E+02  0.00000000000E+00 0.  1.
          5    1    1    2  502    0  0.11135432029E+03 -0.94790599699E+02  0.13839319245E+03  0.20138319333E+03  0.41800000000E+01 0.  1.
         -5    1    1    2    0  502 -0.33729195851E+02 -0.14082021849E+02  0.33118163054E+02  0.49499970870E+02  0.41800000000E+01 0.  1.
        -11    1    1    2    0    0  0.16545724725E+02  0.40362196034E+02  0.51401796324E+02  0.67416708171E+02  0.00000000000E+00 0.  1.
         11    1    1    2    0    0 -0.94170849168E+02  0.68510425513E+02  0.18843562006E+03  0.22151706513E+03  0.00000000000E+00 0. -1.
</event>
<event>
 6    1  0.6597032E-006  0.1629586E+03  0.7561462E-02  0.1185396E+00
          2   -1    0    0  501    0  0.00000000000E+00  0.00000000000E+00  0.38477426812E+03  0.38477426812E+03  0.00000000000E+00 0. -1.
         -2   -1    0    0    0  501 -0.00000000000E+00 -0.00000000000E+00 -0.77157807056E+02  0.77157807056E+02  0.00000000000E+00 0.  1.
          5    1    1    2  502    0  0.47298126746E+02 -0.11820117977E+02  0.90771967923E+02  0.10312056315E+03  0.41800000000E+01 0. -1.
         -5    1    1    2    0  502 -0.30562319627E+02 -0.12579244976E+03  0.98188976407E+02  0.16253105329E+03  0.41800000000E+01 0. -1.
        -11    1    1    2    0    0 -0.33170900247E+02  0.64506293962E+02  0.25855632826E+02  0.77005742206E+02  0.00000000000E+00 0.  1.
         11    1    1    2    0    0  0.16435093127E+02  0.73106273771E+02  0.92799883910E+02  0.11927471653E+03  0.00000000000E+00 0. -1.
</event>
<event>
 6    1  0.6597032E-006  0.1055603E+03  0.7561462E-02  0.1269020E+00
          2   -1    0    0  501    0  0.00000000000E+00  0.00000000000E+00  0.29155387040E+03  0.29155387040E+03  0.00000000000E+00 0. -1.
         -2   -1    0    0    0  501 -0.00000000000E+00 -0.00000000000E+00 -0.57740704922E+02  0.57740704922E+02  0.00000000000E+00 0.  1.
          5    1    1    2  502    0 -0.37681588768E+02  0.19867418404E+02  0.47138428899E+02  0.63671974409E+02  0.41800000000E+01 0.  1.
         -5    1    1    2    0  502  0.76497497008E+02 -0.11552183120E+02  0.53062114902E+01  0.77659180163E+02  0.41800000000E+01 0.  1.
        -11    1    1    2    0    0 -0.15979521979E+02 -0.44930282569E+02  0.14109948023E+03  0.14894005081E+03  0.00000000000E+00 0. -1.
         11    1    1    2    0    0 -0.22836386261E+02  0.36615047285E+02  0.40269044860E+02  0.59023369940E+02  0.00000000000E+00 0.  1.
</event>
<event>
 6    1  0.6597032E-006  0.1030646E+03  0.7561462E-02  0.1273980E+00
         -2   -1    0    0    0  501 -0.00000000000E+00  0.00000000000E+00  0.19933675815E+03  0.19933675815E+03  0.00000000000E+00 0.  1.
          2   -1    0    0  501    0  0.00000000000E+00 -0.00000000000E+00 -0.68129268777E+02  0.68129268777E+02  0.00000000000E+00 0. -1.
          5    1    1    2  502    0  0.56488934087E+02  0.31160069346E+02  0.10704365681E+02  0.65528661214E+02  0.41800000000E+01 0.  1.
         -5    1    1    2    0  502 -0.43045266433E+02 -0.11722174694E+01  0.84962585610E+02  0.95343496945E+02  0.41800000000E+01 0.  1.
        -11    1    1    2    0    0  0.24900588291E+02 -0.49339197894E+02  0.87021850239E+01  0.55947509061E+02  0.00000000000E+00 0.  1.
         11    1    1    2    0    0 -0.38344255944E+02  0.19351346017E+02  0.26838353056E+02  0.50646359705E+02  0.00000000000E+00 0. -1.
</event>
<event>
 6    1  0.6597032E-006  0.9991565E+02  0.7561462E-02  0.1280473E+00
          2   -1    0    0  501    0  0.00000000000E+00  0.00000000000E+00  0.59937570385E+03  0.59937570385E+03  0.00000000000E+00 0. -1.
         -2   -1    0    0    0  501 -0.00000000000E+00 -0.00000000000E+00 -0.26959527978E+02  0.26959527978E+02  0.00000000000E+00 0.  1.
          5    1    1    2  502    0  0.48305048137E+02  0.10477708141E+02  0.32107683732E+03  0.32488608450E+03  0.41800000000E+01 0. -1.
         -5    1    1    2    0  502 -0.43886331622E+02 -0.28905341898E+02  0.32659338090E+02  0.62013173261E+02  0.41800000000E+01 0.  1.
        -11    1    1    2    0    0 -0.14515832122E+02 -0.37743634689E+02  0.89939457291E+02  0.98612358858E+02  0.00000000000E+00 0.  1.
         11    1    1    2    0    0  0.10097115607E+02  0.56171268447E+02  0.12874054318E+03  0.14082361521E+03  0.00000000000E+00 0. -1.
</event>
<event>
 6    1  0.6597032E-006  0.2610086E+03  0.7561462E-02  0.1106539E+00
          2   -1    0    0  501    0  0.00000000000E+00  0.00000000000E+00  0.41132368681E+03  0.41132368681E+03  0.00000000000E+00 0. -1.
         -2   -1    0    0    0  501 -0.00000000000E+00 -0.00000000000E+00 -0.19346206076E+03  0.19346206076E+03  0.00000000000E+00 0.  1.
          5    1    1    2  502    0  0.24103389566E+02 -0.72068291391E+01 -0.27411913114E+02  0.37440581664E+02  0.41800000000E+01 0.  1.
         -5    1    1    2    0  502  0.18173572924E+03 -0.15134602633E+03  0.12129581397E+03  0.26582633777E+03  0.41800000000E+01 0.  1.
        -11    1    1    2    0    0 -0.13915022644E+03  0.11235636982E+03  0.37106763851E+02  0.18265719608E+03  0.00000000000E+00 0.  1.
         11    1    1    2    0    0 -0.66688892359E+02  0.46196485649E+02  0.86870961339E+02  0.11886163205E+03  0.00000000000E+00 0. -1.
</event>
<event>
 6    1  0.6597032E-006  0.1146008E+03  0.7561462E-02  0.1252280E+00
         -1   -1    0    0    0  501 -0.00000000000E+00  0.00000000000E+00  0.79586370146E+02  0.79586370146E+02  0.00000000000E+00 0.  1.
          1   -1    0    0  501    0  0.00000000000E+00 -0.00000000000E+00 -0.20226477525E+03  0.20226477525E+03  0.00000000000E+00 0. -1.
          5    1    1    2  502    0 -0.92072861273E+00 -0.44608778611E+02 -0.25142356247E+02  0.51384835779E+02  0.41800000000E+01 0. -1.
         -5    1    1    2    0  502 -0.51709105797E+02  0.75366617166E+02 -0.93133846272E+01  0.91968310513E+02  0.41800000000E+01 0. -1.
        -11    1    1    2    0    0  0.26727049109E+02  0.21674306403E+02 -0.22030298054E+01  0.34481358043E+02  0.00000000000E+00 0.  1.
         11    1    1    2    0    0  0.25902785301E+02 -0.52432144958E+02 -0.86019634423E+02  0.10401664106E+03  0.00000000000E+00 0. -1.
</event>
<event>
 6    1  0.6597032E-006  0.2185800E+03  0.7561462E-02  0.1134946E+00
         -2   -1    0    0    0  501 -0.00000000000E+00  0.00000000000E+00  0.30237098471E+02  0.30237098471E+02  0.00000000000E+00 0.  1.
          2   -1    0    0  501    0  0.00000000000E+00 -0.00000000000E+00 -0.16969785863E+04  0.16969785863E+04  0.00000000000E+00 0. -1.
          5    1    1    2  502    0  0.82084500074E+02 -0.60585250988E+02 -0.53996203041E+03  0.54953153183E+03  0.41800000000E+01 0.  1.
         -5    1    1    2    0  502  0.11343396034E+03  0.29415787776E+02 -0.28917737594E+03  0.31204739878E+03  0.41800000000E+01 0.  1.
        -11    1    1    2    0    0 -0.40866901525E+02 -0.30813592473E+02 -0.16839821797E+03  0.17600437761E+03  0.00000000000E+00 0.  1.
         11    1    1    2    0    0 -0.15465155889E+03  0.61983055684E+02 -0.66920386350E+03  0.68963237655E+03  0.00000000000E+00 0. -1.
</event>
<event>
 6    1  0.6597032E-006  0.1309571E+03  0.7561462E-02  0.1226043E+00
          1   -1    0    0  501    0  0.00000000000E+00  0.00000000000E+00  0.74029328575E+02  0.74029328575E+02  0.00000000000E+00 0. -1.
         -1   -1    0    0    0  501 -0.00000000000E+00 -0.00000000000E+00 -0.32620911665E+03  0.32620911665E+03  0.00000000000E+00 0.  1.
          5    1    1    2  502    0 -0.75404974186E+00 -0.57561770511E+02 -0.41679207453E+02  0.71193783080E+02  0.41800000000E+01 0. -1.
         -5    1    1    2    0  502 -0.93859777303E+02  0.23255923282E+02 -0.15440400080E+03  0.18223216957E+03  0.41800000000E+01 0. -1.
        -11    1    1    2    0    0  0.46744844969E+02 -0.28187246496E+01 -0.70415125888E+02  0.84565452128E+02  0.00000000000E+00 0.  1.
         11    1    1    2    0    0  0.47868982076E+02  0.37124571879E+02  0.14318546072E+02  0.62247040442E+02  0.00000000000E+00 0. -1.
</event>
<event>
 6    1  0.6597032E-006  0.9799161E+02  0.7561462E-02  0.1284577E+00
         -1   -1    0    0    0  501 -0.00000000000E+00  0.00000000000E+00  0.63609358575E+03  0.63609358575E+03  0.00000000000E+00 0.  1.
          1   -1    0    0  501    0  0.00000000000E+00 -0.00000000000E+00 -0.36375070340E+02  0.36375070340E+02  0.00000000000E+00 0. -1.
          5    1    1    2  502    0 -0.27921861901E+02  0.22208539968E+02  0.26621560106E+03  0.26862812263E+03  0.41800000000E+01 0.  1.
         -5    1    1    2    0  502  0.70779747223E+02 -0.53476358877E+02  0.25570116204E+03  0.27068441079E+03  0.41800000000E+01 0.  1.
        -11    1    1    2    0    0 -0.50916343668E+02  0.14968518460E+02  0.94556017298E+02  0.10843141152E+03  0.00000000000E+00 0.  1.
         11    1    1    2    0    0  0.80584583461E+01  0.16299300450E+02 -0.16754264989E+02  0.24724711149E+02  0.00000000000E+00 0. -1.
</event>
<event>
 6    1  0.6597032E-006  0.1034605E+03  0.7561462E-02  0.1273183E+00
          1   -1    0    0  501    0  0.00000000000E+00  0.00000000000E+00  0.53333393942E+03  0.53333393942E+03  0.00000000000E+00 0. -1.
         -1   -1    0    0    0  501 -0.00000000000E+00 -0.00000000000E+00 -0.35381438132E+02  0.35381438132E+02  0.00000000000E+00 0.  1.
          5    1    1    2  502    0 -0.31292028626E+02  0.11768716119E+02  0.29702383051E+01  0.33822898312E+02  0.41800000000E+01 0. -1.
         -5    1    1    2    0  502  0.54774983666E+02  0.62838848026E+02  0.20344327269E+03  0.21989919796E+03  0.41800000000E+01 0. -1.
        -11    1    1    2    0    0 -0.29836534672E+02 -0.22756296233E+02  0.29318047357E+02  0.47619488870E+02  0.00000000000E+00 0.  1.
         11    1    1    2    0    0  0.63535796315E+01 -0.51851267912E+02  0.26222094293E+03  0.26737379242E+03  0.00000000000E+00 0. -1.
</event>
<event>
 6    1  0.6597032E-006  0.1792534E+03  0.7561462E-02  0.1168528E+00
         -3   -1    0    0    0  501 -0.00000000000E+00  0.00000000000E+00  0.17091734150E+03  0.17091734150E+03  0.00000000000E+00 0.  1.
          3   -1    0    0  501    0  0.00000000000E+00 -0.00000000000E+00 -0.21555748004E+03  0.21555748004E+03  0.00000000000E+00 0. -1.
          5    1    1    2  502    0 -0.36846943670E+02 -0.24645449674E+02 -0.12448399451E+02  0.46233434832E+02  0.41800000000E+01 0. -1.
         -5    1    1    2    0  502  0.92890518423E+02 -0.11969076574E+03  0.20883472354E+02  0.15299712296E+03  0.41800000000E+01 0. -1.
        -11    1    1    2    0    0 -0.33542342538E+02  0.27333676678E+02 -0.52582714409E+02  0.68096699467E+02  0.00000000000E+00 0. -1.
         11    1    1    2    0    0 -0.22501232215E+02  0.11700253873E+03 -0.49249704301E+00  0.11914756428E+03  0.00000000000E+00 0.  1.
</event>
<event>
 6    1  0.6597032E-006  0.7170625E+02  0.7561462E-02  0.1354385E+00
          4   -1    0    0  501    0  0.00000000000E+00  0.00000000000E+00  0.94541682579E+02  0.94541682579E+02  0.00000000000E+00 0. -1.
         -4   -1    0    0    0  501 -0.00000000000E+00 -0.00000000000E+00 -0.19979733947E+03  0.19979733947E+03  0.00000000000E+00 0.  1.
          5    1    1    2  502    0 -0.57647095190E+02  0.13589947767E+02 -0.63836306876E+01  0.59716810070E+02  0.41800000000E+01 0. -1.
         -5    1    1    2    0  502  0.13556391092E+02 -0.79794273817E+01 -0.12853293250E+03  0.12955938459E+03  0.41800000000E+01 0. -1.
        -11    1    1    2    0    0  0.43661091411E+02 -0.23691986408E+02  0.54883520487E+02  0.74025684355E+02  0.00000000000E+00 0. -1.
         11    1    1    2    0    0  0.42961268700E+00  0.18081466023E+02 -0.25222614198E+02  0.31037143032E+02  0.00000000000E+00 0.  1.
</event>
<event>
 6    1  0.6597032E-006  0.1100715E+03  0.7561462E-02  0.1260438E+00
         -1   -1    0    0    0  501 -0.00000000000E+00  0.00000000000E+00  0.45578522314E+03  0.45578522314E+03  0.00000000000E+00 0.  1.
          1   -1    0    0  501    0  0.00000000000E+00 -0.00000000000E+00 -0.27483071864E+02  0.27483071864E+02  0.00000000000E+00 0. -1.
          5    1    1    2  502    0  0.60358096141E+01 -0.73845394955E+02  0.14412651568E+03  0.16210952556E+03  0.41800000000E+01 0. -1.
         -5    1    1    2    0  502  0.61539832734E+00  0.52144506888E+02  0.12688125857E+03  0.13724341329E+03  0.41800000000E+01 0. -1.
        -11    1    1    2    0    0 -0.47349727209E+02  0.23539212879E+02  0.10557847423E+03  0.11808008058E+03  0.00000000000E+00 0. -1.
         11    1    1    2    0    0  0.40698519267E+02 -0.18383248123E+01  0.51715902785E+02  0.65835275571E+02  0.00000000000E+00 0.  1.
</event>
<event>
 6    1  0.6597032E-006  0.1205016E+03  0.7561462E-02  0.1242272E+00
         -2   -1    0    0    0  501 -0.00000000000E+00  0.00000000000E+00  0.27703701864E+03  0.27703701864E+03  0.00000000000E+00 0.  1.
          2   -1    0    0  501    0  0.00000000000E+00 -0.00000000000E+00 -0.63588245251E+02  0.63588245251E+02  0.00000000000E+00 0. -1.
          5    1    1    2  502    0  0.40266647166E+01 -0.56146362671E+02  0.21193770023E+02  0.60293253004E+02  0.41800000000E+01 0. -1.
         -5    1    1    2    0  502 -0.77752916149E+02  0.34264278112E+02  0.90429849951E+02  0.12415549479E+03  0.41800000000E+01 0. -1.
        -11    1    1    2    0    0  0.58105706059E+02  0.43664002811E+02  0.10652973671E+03  0.12896279704E+03  0.00000000000E+00 0.  1.
         11    1    1    2    0    0  0.15620545374E+02 -0.21781918251E+02 -0.47045832996E+01  0.27213719049E+02  0.00000000000E+00 0. -1.
</event>
<event>
 6    1  0.6597032E-006  0.9263983E+02  0.7561462E-02  0.1296582E+00
          2   -1    0    0  501    0  0.00000000000E+00  0.00000000000E+00  0.33415261856E+03  0.33415261856E+03  0.00000000000E+00 0. -1.
         -2   -1    0    0    0  501 -0.00000000000E+00 -0.00000000000E+00 -0.41790840970E+02  0.41790840970E+02  0.00000000000E+00 0.  1.
          5    1    1    2  502    0 -0.42154806751E+01 -0.34636964905E+02 -0.11682926379E+00  0.35142220537E+02  0.41800000000E+01 0.  1.
         -5    1    1    2    0  502  0.13044357170E+02  0.73563886460E+02  0.12729377268E+03  0.14765831371E+03  0.41800000000E+01 0.  1.
        -11    1    1    2    0    0  0.27756750362E+02 -0.14470928876E+02  0.11608041194E+02  0.33385499750E+02  0.00000000000E+00 0.  1.
         11    1    1    2    0    0 -0.36585626857E+02 -0.24455992679E+02  0.15357679298E+03  0.15975742553E+03  0.00000000000E+00 0. -1.
</event>
<event>
 6    1  0.6597032E-006  0.8298665E+02  0.7561462E-02  0.1320783E+00
          2   -1    0    0  501    0  0.00000000000E+00  0.00000000000E+00  0.26538414247E+03  0.26538414247E+03  0.00000000000E+00 0. -1.
         -2   -1    0    0    0  501 -0.00000000000E+00 -0.00000000000E+00 -0.64094315542E+02  0.64094315542E+02  0.00000000000E+00 0.  1.
          5    1    1    2  502    0  0.55850701895E+02  0.36910951236E+02 -0.15155247186E+02  0.68766802605E+02  0.41800000000E+01 0.  1.
         -5    1    1    2    0  502  0.49961579319E+01 -0.12565595996E+02  0.89907812251E+02  0.91015069634E+02  0.41800000000E+01 0.  1.
        -11    1    1    2    0    0 -0.20880370422E+02 -0.37285820533E+02  0.11974473441E+03  0.12714174649E+03  0.00000000000E+00 0. -1.
         11    1    1    2    0    0 -0.39966489405E+02  0.12940465293E+02  0.67925274576E+01  0.42554839285E+02  0.00000000000E+00 0.  1.
</event>
<event>
 6    1  0.6597032E-006  0.1036693E+03  0.7561462E-02  0.1272764E+00
          1   -1    0    0  501    0  0.00000000000E+00  0.00000000000E+00  0.52921559818E+02  0.52921559818E+02  0.00000000000E+00 0. -1.
         -1   -1    0    0    0  501 -0.00000000000E+00 -0.00000000000E+00 -0.40215573340E+03  0.40215573340E+03  0.00000000000E+00 0.  1.
          5    1    1    2  502    0 -0.34527297951E+01 -0.24236122259E+02 -0.81868066180E+00  0.24848613709E+02  0.41800000000E+01 0.  1.
         -5    1    1    2    0  502  0.72435392679E+02  0.22827726845E+02 -0.28117045752E+03  0.29127699842E+03  0.41800000000E+01 0.  1.
        -11    1    1    2    0    0 -0.12965651793E+02 -0.36545460363E+02  0.59968046038E+01  0.39238252573E+02  0.00000000000E+00 0. -1.
         11    1    1    2    0    0 -0.56017011091E+02  0.37953855777E+02 -0.73241840010E+02  0.99713428524E+02  0.00000000000E+00 0.  1.
</event>
<event>
 6    1  0.6597032E-006  0.8336580E+02  0.7561462E-02  0.1319762E+00
         -1   -1    0    0    0  501 -0.00000000000E+00  0.00000000000E+00  0.49900415246E+02  0.49900415246E+02  0.00000000000E+00 0.  1.
          1   -1    0    0  501    0  0.00000000000E+00 -0.00000000000E+00 -0.44002941499E+03  0.44002941499E+03  0.00000000000E+00 0. -1.
          5    1    1    2  502    0 -0.21902255290E+01 -0.43605314712E+02 -0.10340986760E+03  0.11232672734E+03  0.41800000000E+01 0. -1.
         -5    1    1    2    0  502 -0.18027311502E+02 -0.35252307962E+01  0.34579344456E+02  0.39377844978E+02  0.41800000000E+01 0. -1.
        -11    1    1    2    0    0 -0.30549996699E+02 -0.53510624147E+01 -0.12487480799E+03  0.12866877569E+03  0.00000000000E+00 0.  1.
         11    1    1    2    0    0  0.50767533730E+02  0.52481607923E+02 -0.19642366861E+03  0.20955648223E+03  0.00000000000E+00 0. -1.
</event>
<event>
 6    1  0.6597032E-006  0.1647795E+03  0.7561462E-02  0.1183404E+00
          2   -1    0    0  501    0  0.00000000000E+00  0.00000000000E+00  0.30188873552E+03  0.30188873552E+03  0.00000000000E+00 0. -1.
         -2   -1    0    0    0  501 -0.00000000000E+00 -0.00000000000E+00 -0.10321888223E+03  0.10321888223E+03  0.00000000000E+00 0.  1.
          5    1    1    2  502    0 -0.47106302406E+02  0.55040686173E+02  0.25293366772E+02  0.76848602222E+02  0.41800000000E+01 0.  1.
         -5    1    1    2    0  502 -0.91075827963E+02 -0.65998407624E+02  0.73784323767E+02  0.13458155550E+03  0.41800000000E+01 0.  1.
        -11    1    1    2    0    0  0.38524420367E+02 -0.15186530830E+02  0.78145250618E+02  0.88438916080E+02  0.00000000000E+00 0. -1.
         11    1    1    2    0    0  0.99657710002E+02  0.26144252281E+02  0.21446912132E+02  0.10523854394E+03  0.00000000000E+00 0.  1.
</event>
<event>
 6    1  0.6597032E-006  0.1317418E+03  0.7561462E-02  0.1224894E+00
          4   -1    0    0  501    0  0.00000000000E+00  0.00000000000E+00  0.40834953078E+02  0.40834953078E+02  0.00000000000E+00 0. -1.
         -4   -1    0    0    0  501 -0.00000000000E+00 -0.00000000000E+00 -0.52839993692E+03  0.52839993692E+03  0.00000000000E+00 0.  1.
          5    1    1    2  502    0 -0.17315339723E+01  0.76413906353E+02 -0.76674785217E+02  0.10834472014E+03  0.41800000000E+01 0. -1.
         -5    1    1    2    0  502  0.56481050534E+02  0.19551646070E+01 -0.22397580012E+03  0.23103368408E+03  0.41800000000E+01 0. -1.
        -11    1    1    2    0    0 -0.43035293153E+02  0.74295917334E+01 -0.89041179094E+02  0.99174426465E+02  0.00000000000E+00 0.  1.
         11    1    1    2    0    0 -0.11714223408E+02 -0.85798662693E+02 -0.97873219412E+02  0.13068205932E+03  0.00000000000E+00 0. -1.
</event>
<event>
 6    1  0.6597032E-006  0.2959862E+03  0.7561462E-02  0.1087264E+00
         -1   -1    0    0    0  501 -0.00000000000E+00  0.00000000000E+00  0.31158031158E+03  0.31158031158E+03  0.00000000000E+00 0.  1.
          1   -1    0    0  501    0  0.00000000000E+00 -0.00000000000E+00 -0.31358855956E+03  0.31358855956E+03  0.00000000000E+00 0. -1.
          5    1    1    2  502    0  0.80344869806E+02  0.14654056167E+03  0.27520180732E+02  0.16942333684E+03  0.41800000000E+01 0. -1.
         -5    1    1    2    0  502  0.11603673015E+01  0.13164544260E+03 -0.69933130536E+02  0.14913076194E+03  0.41800000000E+01 0. -1.
        -11    1    1    2    0    0 -0.40445525340E+02 -0.20690583776E+03 -0.83581267245E+01  0.21098749845E+03  0.00000000000E+00 0. -1.
         11    1    1    2    0    0 -0.41059711768E+02 -0.71280166509E+02  0.48762828544E+02  0.95627273911E+02  0.00000000000E+00 0.  1.
</event>
<event>
 6    1  0.1079612E-005  0.3938113E+03  0.7561462E-02  0.1045944E+00
         -1   -1    0    0    0  501 -0.00000000000E+00  0.00000000000E+00  0.17258048922E+04  0.17258048922E+04  0.00000000000E+00 0.  1.
          1   -1    0    0  501    0  0.00000000000E+00 -0.00000000000E+00 -0.99281087708E+02  0.99281087708E+02  0.00000000000E+00 0. -1.
          5    1    1    2  502    0 -0.15821699471E+03  0.15030996396E+03  0.39590763326E+03  0.45209073110E+03  0.41800000000E+01 0.  1.
         -5    1    1    2    0  502 -0.10649156243E+03  0.13639486248E+03  0.60992212783E+03  0.63400826951E+03  0.41800000000E+01 0.  1.
        -11    1    1    2    0    0  0.18851179041E+03 -0.15480571359E+03  0.43583850138E+03  0.49945640788E+03  0.00000000000E+00 0.  1.
         11    1    1    2    0    0  0.76196766730E+02 -0.13189911285E+03  0.18485554204E+03  0.23953057144E+03  0.00000000000E+00 0. -1.
</event>
<event>
 6    1  0.6597032E-006  0.7879828E+02  0.7561462E-02  0.1332497E+00
         -2   -1    0    0    0  501 -0.00000000000E+00  0.00000000000E+00  0.64404975683E+02  0.64404975683E+02  0.00000000000E+00 0.  1.
          2   -1    0    0  501    0  0.00000000000E+00 -0.00000000000E+00 -0.25742450405E+03  0.25742450405E+03  0.00000000000E+00 0. -1.
          5    1    1    2  502    0 -0.30226614353E+02  0.30648429288E+02  0.36700084214E+02  0.56721627396E+02  0.41800000000E+01 0.  1.
         -5    1    1    2    0  502 -0.82788443881E+01 -0.35578224616E+02 -0.68987313060E+02  0.78173340049E+02  0.41800000000E+01 0.  1.
        -11    1    1    2    0    0  0.26137417304E+02 -0.30433606711E+02 -0.27759197328E+02  0.48784649604E+02  0.00000000000E+00 0.  1.
         11    1    1    2    0    0  0.12368041437E+02  0.35363402039E+02 -0.13297310220E+03  0.13814986269E+03  0.00000000000E+00 0. -1.
</event>
<event>
 6    1  0.6597032E-006  0.9690287E+02  0.7561462E-02  0.1286947E+00
         -1   -1    0    0    0  501 -0.00000000000E+00  0.00000000000E+00  0.57719274305E+02  0.57719274305E+02  0.00000000000E+00 0.  1.
          1   -1    0    0  501    0  0.00000000000E+00 -0.00000000000E+00 -0.23702286353E+03  0.23702286353E+03  0.00000000000E+00 0. -1.
          5    1    1    2  502    0 -0.66399538275E+02  0.19200650641E+02 -0.52110165183E+02  0.86663172014E+02  0.41800000000E+01 0.  1.
         -5    1    1    2    0  502  0.57930251607E+02  0.21135907933E+02 -0.31936720744E+02  0.69570591397E+02  0.41800000000E+01 0.  1.
        -11    1    1    2    0    0 -0.48111756056E+01 -0.47445648815E+02 -0.60876861006E+01  0.48075949541E+02  0.00000000000E+00 0.  1.
         11    1    1    2    0    0  0.13280462273E+02  0.71090902412E+01 -0.89169017197E+02  0.90432424882E+02  0.00000000000E+00 0. -1.
</event>
<event>
 6    1  0.6597032E-006  0.1588483E+03  0.7561462E-02  0.1190003E+00
          2   -1    0    0  501    0  0.00000000000E+00  0.00000000000E+00  0.48627198134E+02  0.48627198134E+02  0.00000000000E+00 0.  1.
         -2   -1    0    0    0  501 -0.00000000000E+00 -0.00000000000E+00 -0.96698171522E+03  0.96698171522E+03  0.00000000000E+00 0. -1.
          5    1    1    2  502    0 -0.64011272764E+02  0.10120028472E+02 -0.16297740709E+02  0.66954811398E+02  0.41800000000E+01 0.  1.
         -5    1    1    2    0  502 -0.12899282181E+02  0.93634504635E+02 -0.60255758193E+03  0.60994009860E+03  0.41800000000E+01 0. -1.
        -11    1    1    2    0    0 -0.13187280459E+02 -0.53246062060E+02 -0.99620508448E+02  0.11372463759E+03  0.00000000000E+00 0.  1.
         11    1    1    2    0    0  0.90097835404E+02 -0.50508471046E+02 -0.19987868600E+03  0.22498936577E+03  0.00000000000E+00 0. -1.
</event>
<event>
 6    1  0.7719133E-006  0.1758961E+03  0.7561462E-02  0.1171835E+00
         -1   -1    0    0    0  501 -0.00000000000E+00  0.00000000000E+00  0.66366529601E+02  0.66366529601E+02  0.00000000000E+00 0.  1.
          1   -1    0    0  501    0  0.00000000000E+00 -0.00000000000E+00 -0.56523386009E+03  0.56523386009E+03  0.00000000000E+00 0. -1.
          5    1    1    2  502    0  0.46063220526E+02  0.77070642736E+02 -0.12678544395E+03  0.15541468867E+03  0.41800000000E+01 0. -1.
         -5    1    1    2    0  502 -0.71379078751E+02  0.77259627483E+02 -0.77999017137E+02  0.13101657146E+03  0.41800000000E+01 0. -1.
        -11    1    1    2    0    0  0.93637846656E+01 -0.84126486930E+02 -0.70112365674E+02  0.10991219262E+03  0.00000000000E+00 0.  1.
         11    1    1    2    0    0  0.15952073559E+02 -0.70203783288E+02 -0.22397050373E+03  0.23525693694E+03  0.00000000000E+00 0. -1.
</event>
<event>
 6    1  0.6597032E-006  0.1089536E+03  0.7561462E-02  0.1262520E+00
         -2   -1    0    0    0  501 -0.00000000000E+00  0.00000000000E+00  0.23624257444E+02  0.23624257444E+02  0.00000000000E+00 0. -1.
          2   -1    0    0  501    0  0.00000000000E+00 -0.00000000000E+00 -0.62690021505E+03  0.62690021505E+03  0.00000000000E+00 0.  1.
          5    1    1    2  502    0  0.54318079223E+02 -0.39258546263E+02 -0.14839630537E+03  0.16288223670E+03  0.41800000000E+01 0. -1.
         -5    1    1    2    0  502 -0.65168341342E+02 -0.15144269708E+02 -0.22588584335E+03  0.23562289414E+03  0.41800000000E+01 0. -1.
        -11    1    1    2    0    0 -0.13620772460E+02  0.57467258535E+02 -0.21642599331E+03  0.22433952355E+03  0.00000000000E+00 0.  1.
         11    1    1    2    0    0  0.24471034579E+02 -0.30644425641E+01 -0.12567815571E+02  0.27679818096E+02  0.00000000000E+00 0. -1.
</event>
<event>
 6    1  0.6597032E-006  0.7905491E+02  0.7561462E-02  0.1331755E+00
         -2   -1    0    0    0  501 -0.00000000000E+00  0.00000000000E+00  0.76997515300E+01  0.76997515300E+01  0.00000000000E+00 0.  1.
          2   -1    0    0  501    0  0.00000000000E+00 -0.00000000000E+00 -0.82535904795E+03  0.82535904795E+03  0.00000000000E+00 0. -1.
          5    1    1    2  502    0  0.63261850133E+02  0.20861723974E+02 -0.39048168795E+03  0.39614478949E+03  0.41800000000E+01 0. -1.
         -5    1    1    2    0  502 -0.47165145408E+02 -0.32601356365E+02 -0.25236377860E+03  0.25882880158E+03  0.41800000000E+01 0.  1.
        -11    1    1    2    0    0  0.31229892609E+01  0.14165563197E+02 -0.68184835160E+02  0.69710745143E+02  0.00000000000E+00 0. -1.
         11    1    1    2    0    0 -0.19219693986E+02 -0.24259308060E+01 -0.10662899471E+03  0.10837446327E+03  0.00000000000E+00 0.  1.
</event>
<event>
 6    1  0.6597032E-006  0.1155800E+03  0.7561462E-02  0.1250572E+00
          1   -1    0    0  501    0  0.00000000000E+00  0.00000000000E+00  0.11720729687E+03  0.11720729687E+03  0.00000000000E+00 0. -1.
         -1   -1    0    0    0  501 -0.00000000000E+00 -0.00000000000E+00 -0.17445050992E+03  0.17445050992E+03  0.00000000000E+00 0.  1.
          5    1    1    2  502    0  0.39731893577E+02  0.12835750857E+02 -0.26917338428E+01  0.42048753826E+02  0.41800000000E+01 0.  1.
         -5    1    1    2    0  502 -0.75340019399E+02  0.37144504130E+02 -0.10216476112E+03  0.13232892172E+03  0.41800000000E+01 0.  1.
        -11    1    1    2    0    0  0.59311681899E+02 -0.54974335458E+02  0.26371126776E+02  0.85061680539E+02  0.00000000000E+00 0.  1.
         11    1    1    2    0    0 -0.23703556077E+02  0.49940804711E+01  0.21242155137E+02  0.32218450697E+02  0.00000000000E+00 0. -1.
</event>
<event>
 6    1  0.6597032E-006  0.1299384E+03  0.7561462E-02  0.1227547E+00
          1   -1    0    0  501    0  0.00000000000E+00  0.00000000000E+00  0.15755554057E+03  0.15755554057E+03  0.00000000000E+00 0. -1.
         -1   -1    0    0    0  501 -0.00000000000E+00 -0.00000000000E+00 -0.19242682556E+03  0.19242682556E+03  0.00000000000E+00 0.  1.
          5    1    1    2  502    0 -0.29689900592E+02 -0.27601790536E+02 -0.15717602019E+01  0.40783475430E+02  0.41800000000E+01 0. -1.
         -5    1    1    2    0  502 -0.28424731074E+02  0.91151843398E+02 -0.12224381318E+03  0.15516973336E+03  0.41800000000E+01 0. -1.
        -11    1    1    2    0    0  0.81027179529E+02 -0.58896193127E+02  0.82516932107E+02  0.12978139108E+03  0.00000000000E+00 0. -1.
         11    1    1    2    0    0 -0.22912547863E+02 -0.46538597337E+01  0.64273562769E+01  0.24247766262E+02  0.00000000000E+00 0.  1.
</event>
<event>
 6    1  0.6597032E-006  0.9635303E+02  0.7561462E-02  0.1288157E+00
          1   -1    0    0  501    0  0.00000000000E+00  0.00000000000E+00  0.88936258822E+02  0.88936258822E+02  0.00000000000E+00 0. -1.
         -1   -1    0    0    0  501 -0.00000000000E+00 -0.00000000000E+00 -0.18913148685E+03  0.18913148685E+03  0.00000000000E+00 0.  1.
          5    1    1    2  502    0  0.37356329256E+02  0.20466643181E+02 -0.11213926988E+03  0.12002944250E+03  0.41800000000E+01 0. -1.
         -5    1    1    2    0  502  0.17642156489E+02 -0.41420077298E+02  0.16435537039E+02  0.48108915668E+02  0.41800000000E+01 0. -1.
        -11    1    1    2    0    0  0.53342000961E+01 -0.27063048675E+02  0.13560306024E+02  0.30736691327E+02  0.00000000000E+00 0. -1.
         11    1    1    2    0    0 -0.60332685841E+02  0.48016482793E+02 -0.18051801216E+02  0.79192696177E+02  0.00000000000E+00 0.  1.
</event>
<event>
 6    1  0.6597032E-006  0.1161200E+03  0.7561462E-02  0.1249639E+00
          1   -1    0    0  501    0  0.00000000000E+00  0.00000000000E+00  0.13062753627E+03  0.13062753627E+03  0.00000000000E+00 0. -1.
         -1   -1    0    0    0  501 -0.00000000000E+00 -0.00000000000E+00 -0.12744672940E+03  0.12744672940E+03  0.00000000000E+00 0.  1.
          5    1    1    2  502    0 -0.60553341365E+02  0.85121737299E+02 -0.29572947295E+01  0.10458793096E+03  0.41800000000E+01 0. -1.
         -5    1    1    2    0  502  0.22922455181E+02 -0.28598905619E+02 -0.10630939582E+02  0.38390436707E+02  0.41800000000E+01 0. -1.
        -11    1    1    2    0    0  0.53635215977E+02 -0.35242015670E+02  0.43370129702E+02  0.77457757595E+02  0.00000000000E+00 0. -1.
         11    1    1    2    0    0 -0.16004329793E+02 -0.21280816010E+02 -0.26601088522E+02  0.37638140399E+02  0.00000000000E+00 0.  1.
</event>
<event>
 6    1  0.6597032E-006  0.2195508E+03  0.7561462E-02  0.1134218E+00
          2   -1    0    0  501    0  0.00000000000E+00  0.00000000000E+00  0.86044561632E+03  0.86044561632E+03  0.00000000000E+00 0. -1.
         -2   -1    0    0    0  501 -0.00000000000E+00 -0.00000000000E+00 -0.69748206538E+02  0.69748206538E+02  0.00000000000E+00 0.  1.
          5    1    1    2  502    0 -0.18750247692E+03 -0.20879563854E+01  0.18238973628E+03  0.26162000442E+03  0.41800000000E+01 0.  1.
         -5    1    1    2    0  502 -0.28642421280E+02  0.45989588118E+01  0.15723589937E+03  0.15994417516E+03  0.41800000000E+01 0.  1.
        -11    1    1    2    0    0  0.12804589362E+03 -0.26854591085E+02  0.17971698363E+03  0.22229510598E+03  0.00000000000E+00 0.  1.
         11    1    1    2    0    0  0.88099004580E+02  0.24343588658E+02  0.27135479050E+03  0.28633453729E+03  0.00000000000E+00 0. -1.
</event>
<event>
 6    1  0.6597032E-006  0.2216195E+03  0.7561462E-02  0.1132681E+00
          3   -1    0    0  501    0  0.00000000000E+00  0.00000000000E+00  0.78907903023E+03  0.78907903023E+03  0.00000000000E+00 0. -1.
         -3   -1    0    0    0  501 -0.00000000000E+00 -0.00000000000E+00 -0.10488772009E+03  0.10488772009E+03  0.00000000000E+00 0.  1.
          5    1    1    2  502    0  0.67620107396E+01  0.12241294353E+03 -0.35664096575E+01  0.12272263528E+03  0.41800000000E+01 0.  1.
         -5    1    1    2    0  502 -0.62002594623E+02  0.75108021535E+02  0.89734283890E+02  0.13249622917E+03  0.41800000000E+01 0.  1.
        -11    1    1    2    0    0 -0.19843826003E+02 -0.88578415848E+02  0.20974473195E+03  0.22854488786E+03  0.00000000000E+00 0.  1.
         11    1    1    2    0    0  0.75084409887E+02 -0.10894254922E+03  0.38827870395E+03  0.41020299801E+03  0.00000000000E+00 0. -1.
</event>
<event>
 6    1  0.6597032E-006  0.1189960E+03  0.7561462E-02  0.1244763E+00
         -2   -1    0    0    0  501 -0.00000000000E+00  0.00000000000E+00  0.47737443278E+02  0.47737443278E+02  0.00000000000E+00 0.  1.
          2   -1    0    0  501    0  0.00000000000E+00 -0.00000000000E+00 -0.36915450155E+03  0.36915450155E+03  0.00000000000E+00 0. -1.
          5    1    1    2  502    0 -0.42004941138E+02  0.41960941597E+02 -0.33935014987E+02  0.68514183509E+02  0.41800000000E+01 0. -1.
         -5    1    1    2    0  502 -0.34391832480E+01 -0.77178074686E+02 -0.64286975311E+02  0.10059110690E+03  0.41800000000E+01 0. -1.
        -11    1    1    2    0    0  0.26764519616E+02  0.62528685430E+02 -0.10546549134E+03  0.12549560102E+03  0.00000000000E+00 0.  1.
         11    1    1    2    0    0  0.18679604770E+02 -0.27311552340E+02 -0.11772957664E+03  0.12229105340E+03  0.00000000000E+00 0. -1.
</event>
<event>
 6    1  0.6597032E-006  0.1156696E+03  0.7561462E-02  0.1250417E+00
         -1   -1    0    0    0  501 -0.00000000000E+00  0.00000000000E+00  0.29109793911E+02  0.29109793911E+02  0.00000000000E+00 0.  1.
          1   -1    0    0  501    0  0.00000000000E+00 -0.00000000000E+00 -0.51105225940E+03  0.51105225940E+03  0.00000000000E+00 0. -1.
          5    1    1    2  502    0 -0.69711357797E+02 -0.11430547124E+02 -0.93640657229E+02  0.11737280733E+03  0.41800000000E+01 0.  1.
         -5    1    1    2    0  502  0.34674818098E+02  0.48737273211E+02 -0.14456265239E+03  0.15650398614E+03  0.41800000000E+01 0.  1.
        -11    1    1    2    0    0  0.46301358732E+02  0.13773281074E+02 -0.16362662759E+03  0.17060830094E+03  0.00000000000E+00 0. -1.
         11    1    1    2    0    0 -0.11264819033E+02 -0.51080007161E+02 -0.80112528276E+02  0.95676958910E+02  0.00000000000E+00 0.  1.
</event>
<event>
 6    1  0.6597032E-006  0.1010930E+03  0.7561462E-02  0.1278014E+00
          1   -1    0    0  501    0  0.00000000000E+00  0.00000000000E+00  0.63921951159E+03  0.63921951159E+03  0.00000000000E+00 0. -1.
         -1   -1    0    0    0  501 -0.00000000000E+00 -0.00000000000E+00 -0.66177459711E+02  0.66177459711E+02  0.00000000000E+00 0.  1.
          5    1    1    2  502    0  0.24220230641E+02 -0.70417165875E+01 -0.43614483209E+02  0.50555918451E+02  0.41800000000E+01 0. -1.
         -5    1    1    2    0  502 -0.15914658439E+02 -0.61426799632E+02  0.62520102774E+02  0.89178269310E+02  0.41800000000E+01 0.  1.
        -11    1    1    2    0    0  0.29636894669E+02  0.68983488047E+02  0.39422107453E+03  0.40130701807E+03  0.00000000000E+00 0. -1.
         11    1    1    2    0    0 -0.37942466871E+02 -0.51497182749E+00  0.15991535778E+03  0.16435576546E+03  0.00000000000E+00 0.  1.
</event>
<event>
 6    1  0.6597032E-006  0.7804028E+02  0.7561462E-02  0.1334707E+00
          2   -1    0    0  501    0  0.00000000000E+00  0.00000000000E+00  0.46753932844E+03  0.46753932844E+03  0.00000000000E+00 0. -1.
         -2   -1    0    0    0  501 -0.00000000000E+00 -0.00000000000E+00 -0.48761350740E+02  0.48761350740E+02  0.00000000000E+00 0.  1.
          5    1    1    2  502    0  0.11434686427E+02 -0.14209390469E+02 -0.35923945002E+02  0.40505074444E+02  0.41800000000E+01 0.  1.
         -5    1    1    2    0  502 -0.38614151956E+02 -0.98286522902E+00  0.92391500563E+02  0.10022814241E+03  0.41800000000E+01 0.  1.
        -11    1    1    2    0    0 -0.46043236204E+01  0.50672918220E+02  0.17047526684E+03  0.17790660764E+03  0.00000000000E+00 0.  1.
         11    1    1    2    0    0  0.31783789149E+02 -0.35480662522E+02  0.19183515530E+03  0.19766085468E+03  0.00000000000E+00 0. -1.
</event>
<event>
 6    1  0.6597032E-006  0.1619391E+03  0.7561462E-02  0.1186525E+00
          1   -1    0    0  501    0  0.00000000000E+00  0.00000000000E+00  0.63353067284E+03  0.63353067284E+03  0.00000000000E+00 0. -1.
         -1   -1    0    0    0  501 -0.00000000000E+00 -0.00000000000E+00 -0.43999714565E+02  0.43999714565E+02  0.00000000000E+00 0.  1.
          5    1    1    2  502    0 -0.10207712111E+03  0.86927474491E+02  0.17719897891E+03  0.22224552865E+03  0.41800000000E+01 0.  1.
         -5    1    1    2    0  502  0.34136452721E+02  0.15737423874E+02  0.87858099654E+02  0.95652924625E+02  0.41800000000E+01 0.  1.
        -11    1    1    2    0    0  0.66842859948E+01 -0.88877040151E+02  0.15358472859E+03  0.17757273665E+03  0.00000000000E+00 0.  1.
         11    1    1    2    0    0  0.61256382397E+02 -0.13787858213E+02  0.17088915111E+03  0.18205919748E+03  0.00000000000E+00 0. -1.
</event>
<event>
 6    1  0.6597032E-006  0.1125710E+03  0.7561462E-02  0.1255881E+00
          2   -1    0    0  501    0  0.00000000000E+00  0.00000000000E+00  0.10177522817E+03  0.10177522817E+03  0.00000000000E+00 0. -1.
         -2   -1    0    0    0  501 -0.00000000000E+00 -0.00000000000E+00 -0.15336610097E+03  0.15336610097E+03  0.00000000000E+00 0.  1.
          5    1    1    2  502    0 -0.78453190454E+02  0.16906809288E+02 -0.47992830432E+02  0.93603031284E+02  0.41800000000E+01 0.  1.
         -5    1    1    2    0  502  0.45136945462E+02 -0.18722757128E+02 -0.32838297361E+02  0.59022975643E+02  0.41800000000E+01 0.  1.
        -11    1    1    2    0    0 -0.16009052150E+02 -0.32102417703E+02 -0.47733826586E-01  0.35872792638E+02  0.00000000000E+00 0. -1.
         11    1    1    2    0    0  0.49325297142E+02  0.33918365542E+02  0.29287988821E+02  0.66642529577E+02  0.00000000000E+00 0.  1.
</event>
<event>
 6    1  0.6597032E-006  0.7498049E+02  0.7561462E-02  0.1343931E+00
          3   -1    0    0  501    0  0.00000000000E+00  0.00000000000E+00  0.71372427239E+02  0.71372427239E+02  0.00000000000E+00 0. -1.
         -3   -1    0    0    0  501 -0.00000000000E+00 -0.00000000000E+00 -0.13783571703E+03  0.13783571703E+03  0.00000000000E+00 0.  1.
          5    1    1    2  502    0 -0.61555574908E+02  0.50242867694E+01 -0.76415376462E+02  0.98341824366E+02  0.41800000000E+01 0. -1.
         -5    1    1    2    0  502  0.46881717531E+02  0.11406769834E+02  0.27133994621E+01  0.48506131296E+02  0.41800000000E+01 0. -1.
        -11    1    1    2    0    0  0.45944489877E+01 -0.25596587339E+02 -0.19396848384E+02  0.32442749146E+02  0.00000000000E+00 0.  1.
         11    1    1    2    0    0  0.10079408389E+02  0.91655307357E+01  0.26635535597E+02  0.29917439457E+02  0.00000000000E+00 0. -1.
</event>
<event>
 6    1  0.6597032E-006  0.1177045E+03  0.7561462E-02  0.1246933E+00
         -2   -1    0    0    0  501 -0.00000000000E+00  0.00000000000E+00  0.71031236528E+02  0.71031236528E+02  0.00000000000E+00 0.  1.
          2   -1    0    0  501    0  0.00000000000E+00 -0.00000000000E+00 -0.37458316401E+03  0.37458316401E+03  0.00000000000E+00 0. -1.
          5    1    1    2  502    0  0.41690573200E+02  0.27068632237E+02 -0.60361972422E+01  0.50246620007E+02  0.41800000000E+01 0. -1.
         -5    1    1    2    0  502 -0.27941209263E+02 -0.83250096281E+02 -0.10310489102E+02  0.88515921118E+02  0.41800000000E+01 0. -1.
        -11    1    1    2    0    0  0.20431451046E+02  0.59844637690E+02 -0.11491050540E+03  0.13116115699E+03  0.00000000000E+00 0.  1.
         11    1    1    2    0    0 -0.34180814984E+02 -0.36631736451E+01 -0.17229473575E+03  0.17569070243E+03  0.00000000000E+00 0. -1.
</event>
<event>
 6    1  0.6597032E-006  0.1130674E+03  0.7561462E-02  0.1254993E+00
          1   -1    0    0  501    0  0.00000000000E+00  0.00000000000E+00  0.49195778494E+03  0.49195778494E+03  0.00000000000E+00 0. -1.
         -1   -1    0    0    0  501 -0.00000000000E+00 -0.00000000000E+00 -0.52739932458E+02  0.52739932458E+02  0.00000000000E+00 0.  1.
          5    1    1    2  502    0 -0.17702331429E+02 -0.10609721840E+02 -0.21801493398E+02  0.30310332395E+02  0.41800000000E+01 0. -1.
         -5    1    1    2    0  502  0.90113078408E+02 -0.74552469060E+01  0.10048753986E+03  0.13524483603E+03  0.41800000000E+01 0. -1.
        -11    1    1    2    0    0 -0.91430936140E+02  0.24191923436E+02  0.26057364324E+03  0.27720658144E+03  0.00000000000E+00 0.  1.
         11    1    1    2    0    0  0.19020189160E+02 -0.61269546903E+01  0.99958162782E+02  0.10193596753E+03  0.00000000000E+00 0. -1.
</event>
<event>
 6    1  0.6597032E-006  0.9167614E+02  0.7561462E-02  0.1298843E+00
         -1   -1    0    0    0  501 -0.00000000000E+00  0.00000000000E+00  0.35185084437E+02  0.35185084437E+02  0.00000000000E+00 0.  1.
          1   -1    0    0  501    0  0.00000000000E+00 -0.00000000000E+00 -0.58654172581E+03  0.58654172581E+03  0.00000000000E+00 0. -1.
          5    1    1    2  502    0  0.18432651809E+02  0.39672768742E+02  0.73280314733E+01  0.44551808916E+02  0.41800000000E+01 0. -1.
         -5    1    1    2    0  502 -0.37103188417E+02  0.11524325418E+02 -0.14155463985E+03  0.14684905560E+03  0.41800000000E+01 0. -1.
        -11    1    1    2    0    0  0.45864553558E+02 -0.56347426480E+02 -0.35425776725E+03  0.36163124229E+03  0.00000000000E+00 0. -1.
         11    1    1    2    0    0 -0.27194016950E+02  0.51503323203E+01 -0.62872265751E+02  0.68694703446E+02  0.00000000000E+00 0.  1.
</event>
<event>
 6    1  0.6597032E-006  0.1181106E+03  0.7561462E-02  0.1246247E+00
         -3   -1    0    0    0  501 -0.00000000000E+00  0.00000000000E+00  0.16045946893E+03  0.16045946893E+03  0.00000000000E+00 0.  1.
          3   -1    0    0  501    0  0.00000000000E+00 -0.00000000000E+00 -0.10517486269E+03  0.10517486269E+03  0.00000000000E+00 0. -1.
          5    1    1    2  502    0 -0.27024682349E+02 -0.96504328109E+01  0.50009357820E+02  0.57808931655E+02  0.41800000000E+01 0.  1.
         -5    1    1    2    0  502  0.52349605740E+02  0.77076637600E+02 -0.49652044104E+01  0.93399223442E+02  0.41800000000E+01 0.  1.
        -11    1    1    2    0    0 -0.16044681660E+02  0.20223743511E+02  0.16305544012E+01  0.25866780218E+02  0.00000000000E+00 0.  1.
         11    1    1    2    0    0 -0.92802417315E+01 -0.87649948300E+02  0.86098984317E+01  0.88559396309E+02  0.00000000000E+00 0. -1.
</event>
<event>
 6    1  0.6597032E-006  0.9691515E+02  0.7561462E-02  0.1286920E+00
         -2   -1    0    0    0  501 -0.00000000000E+00  0.00000000000E+00  0.45595418395E+03  0.45595418395E+03  0.00000000000E+00 0.  1.
          2   -1    0    0  501    0  0.00000000000E+00 -0.00000000000E+00 -0.25150605673E+02  0.25150605673E+02  0.00000000000E+00 0. -1.
          5    1    1    2  502    0  0.76224733654E+02  0.17017721311E+02  0.10015104401E+03  0.12707288018E+03  0.41800000000E+01 0. -1.
         -5    1    1    2    0  502 -0.82348295366E+02 -0.23166627009E+02  0.29568329554E+03  0.30783764879E+03  0.41800000000E+01 0.  1.
        -11    1    1    2    0    0  0.91786875384E+01  0.16661633746E+02  0.19486305413E+02  0.27231864473E+02  0.00000000000E+00 0. -1.
         11    1    1    2    0    0 -0.30551258261E+01 -0.10512728048E+02  0.15482933308E+02  0.18962396174E+02  0.00000000000E+00 0.  1.
</event>
<event>
 6    1  0.6597032E-006  0.9450853E+02  0.7561462E-02  0.1292287E+00
         -2   -1    0    0    0  501 -0.00000000000E+00  0.00000000000E+00  0.16881657079E+03  0.16881657079E+03  0.00000000000E+00 0.  1.
          2   -1    0    0  501    0  0.00000000000E+00 -0.00000000000E+00 -0.71578131894E+02  0.71578131894E+02  0.00000000000E+00 0. -1.
          5    1    1    2  502    0  0.83575021080E+01 -0.52217051710E+02  0.70191129493E+01  0.53508958851E+02  0.41800000000E+01 0. -1.
         -5    1    1    2    0  502 -0.21888176532E+02  0.61383101730E+02  0.63188177706E+02  0.90869112748E+02  0.41800000000E+01 0. -1.
        -11    1    1    2    0    0 -0.14164640483E+02 -0.31856896064E+02 -0.17391951423E+02  0.38961247941E+02  0.00000000000E+00 0.  1.
         11    1    1    2    0    0  0.27695314908E+02  0.22690846044E+02  0.44423099663E+02  0.57055383144E+02  0.00000000000E+00 0. -1.
</event>
<event>
 6    1  0.6597032E-006  0.1136868E+03  0.7561462E-02  0.1253891E+00
          2   -1    0    0  501    0  0.00000000000E+00  0.00000000000E+00  0.17891274602E+03  0.17891274602E+03  0.00000000000E+00 0. -1.
         -2   -1    0    0    0  501 -0.00000000000E+00 -0.00000000000E+00 -0.10283209001E+03  0.10283209001E+03  0.00000000000E+00 0.  1.
          5    1    1    2  502    0 -0.45714186771E+02 -0.85773782073E+02 -0.23748300469E+01  0.97314134539E+02  0.41800000000E+01 0.  1.
         -5    1    1    2    0  502 -0.16781986734E+02  0.44217933119E+02  0.11454900390E+02  0.48842070298E+02  0.41800000000E+01 0.  1.
        -11    1    1    2    0    0  0.41531822804E+02  0.68942301365E+01 -0.14540035410E+02  0.44540266550E+02  0.00000000000E+00 0.  1.
         11    1    1    2    0    0  0.20964350701E+02  0.34661618817E+02  0.81540621073E+02  0.91048364643E+02  0.00000000000E+00 0. -1.
</event>
<event>
 6    1  0.6597032E-006  0.7582324E+02  0.7561462E-02  0.1341341E+00
          3   -1    0    0  501    0  0.00000000000E+00  0.00000000000E+00  0.10756916749E+03  0.10756916749E+03  0.00000000000E+00 0. -1.
         -3   -1    0    0    0  501 -0.00000000000E+00 -0.00000000000E+00 -0.11086758965E+03  0.11086758965E+03  0.00000000000E+00 0.  1.
          5    1    1    2  502    0 -0.20035164228E+02  0.41075623634E+02  0.37243838247E+02  0.59103219454E+02  0.41800000000E+01 0.  1.
         -5    1    1    2    0  502  0.22200769241E+02 -0.41529461190E+02 -0.46569873518E+02  0.66361101717E+02  0.41800000000E+01 0.  1.
        -11    1    1    2    0    0  0.23166600820E+02  0.16544400350E+02  0.39066522439E+02  0.48338408662E+02  0.00000000000E+00 0. -1.
         11    1    1    2    0    0 -0.25332205833E+02 -0.16090562794E+02 -0.33038909329E+02  0.44634027300E+02  0.00000000000E+00 0.  1.
</event>
<event>
 6    1  0.6597032E-006  0.2912791E+03  0.7561462E-02  0.1089683E+00
          2   -1    0    0  501    0  0.00000000000E+00  0.00000000000E+00  0.54754376720E+03  0.54754376720E+03  0.00000000000E+00 0. -1.
         -2   -1    0    0    0  501 -0.00000000000E+00 -0.00000000000E+00 -0.21570633032E+03  0.21570633032E+03  0.00000000000E+00 0.  1.
          5    1    1    2  502    0 -0.46317553591E+02  0.26366622060E+03 -0.36987342748E+02  0.27027898102E+03  0.41800000000E+01 0.  1.
         -5    1    1    2    0  502  0.25621556340E+02  0.15361401558E+02  0.20784583665E+02  0.36632064169E+02  0.41800000000E+01 0.  1.
        -11    1    1    2    0    0 -0.48535813490E-01 -0.24362291796E+03  0.24537035849E+03  0.34577267291E+03  0.00000000000E+00 0.  1.
         11    1    1    2    0    0  0.20744533064E+02 -0.35404704202E+02  0.10266983748E+03  0.11056637942E+03  0.00000000000E+00 0. -1.
</event>
<event>
 6    1  0.6597032E-006  0.9810550E+02  0.7561462E-02  0.1284331E+00
          1   -1    0    0  501    0  0.00000000000E+00  0.00000000000E+00  0.28739057036E+03  0.28739057036E+03  0.00000000000E+00 0. -1.
         -1   -1    0    0    0  501 -0.00000000000E+00 -0.00000000000E+00 -0.51720784472E+02  0.51720784472E+02  0.00000000000E+00 0.  1.
          5    1    1    2  502    0  0.29144096176E+02 -0.47798811814E+02  0.10295514690E+03  0.11726610519E+03  0.41800000000E+01 0.  1.
         -5    1    1    2    0  502 -0.56919441211E+02  0.30046264783E+01  0.73120264127E+01  0.57617607537E+02  0.41800000000E+01 0.  1.
        -11    1    1    2    0    0 -0.20817117764E+02  0.17443781462E+02  0.98764367802E+02  0.10243065094E+03  0.00000000000E+00 0. -1.
         11    1    1    2    0    0  0.48592462799E+02  0.27350403873E+02  0.26638244768E+02  0.61796991166E+02  0.00000000000E+00 0.  1.
</event>
<event>
 6    1  0.6597032E-006  0.1365234E+03  0.7561462E-02  0.1218085E+00
         -1   -1    0    0    0  501 -0.00000000000E+00  0.00000000000E+00  0.12720788132E+03  0.12720788132E+03  0.00000000000E+00 0.  1.
          1   -1    0    0  501    0  0.00000000000E+00 -0.00000000000E+00 -0.27077786634E+03  0.27077786634E+03  0.00000000000E+00 0. -1.
          5    1    1    2  502    0  0.96705797350E+01 -0.54976429418E+02 -0.39884391483E+02  0.68732561337E+02  0.41800000000E+01 0. -1.
         -5    1    1    2    0  502  0.87147255960E+02 -0.18528859305E+02  0.58536768165E+02  0.10668640249E+03  0.41800000000E+01 0. -1.
        -11    1    1    2    0    0 -0.49430237215E+02  0.61667415733E+02 -0.35276564144E+02  0.86548567245E+02  0.00000000000E+00 0. -1.
         11    1    1    2    0    0 -0.47387598481E+02  0.11837872990E+02 -0.12694579756E+03  0.13601821659E+03  0.00000000000E+00 0.  1.
</event>
<event>
 6    1  0.6597032E-006  0.1216013E+03  0.7561462E-02  0.1240478E+00
         -2   -1    0    0    0  501 -0.00000000000E+00  0.00000000000E+00  0.16659492573E+03  0.16659492573E+03  0.00000000000E+00 0.  1.
          2   -1    0    0  501    0  0.00000000000E+00 -0.00000000000E+00 -0.11142331882E+03  0.11142331882E+03  0.00000000000E+00 0. -1.
          5    1    1    2  502    0 -0.45269894250E+01 -0.97223950985E+02  0.65454533397E+02  0.11736591763E+03  0.41800000000E+01 0.  1.
         -5    1    1    2    0  502 -0.24093100043E+02  0.36952817982E+02  0.27004738899E+02  0.51891391863E+02  0.41800000000E+01 0.  1.
        -11    1    1    2    0    0  0.42406069648E+02  0.29405548980E+01 -0.21917953696E+02  0.47825916618E+02  0.00000000000E+00 0.  1.
         11    1    1    2    0    0 -0.13785980180E+02  0.57330578105E+02 -0.15369711692E+02  0.60935018445E+02  0.00000000000E+00 0. -1.
</event>
<event>
 6    1  0.6597032E-006  0.1028478E+03  0.7561462E-02  0.1274419E+00
         -1   -1    0    0    0  501 -0.00000000000E+00  0.00000000000E+00  0.94308722079E+02  0.94308722079E+02  0.00000000000E+00 0.  1.
          1   -1    0    0  501    0  0.00000000000E+00 -0.00000000000E+00 -0.18831218855E+03  0.18831218855E+03  0.00000000000E+00 0. -1.
          5    1    1    2  502    0 -0.79445811557E+02 -0.42766205320E+02  0.28069475659E+02  0.94583048984E+02  0.41800000000E+01 0.  1.
         -5    1    1    2    0  502  0.31516116043E+02  0.13066759483E+02 -0.25231850130E+02  0.42639470385E+02  0.41800000000E+01 0.  1.
        -11    1    1    2    0    0 -0.94132822688E+01 -0.80183486400E+01  0.11669848958E+02  0.17002622524E+02  0.00000000000E+00 0.  1.
         11    1    1    2    0    0  0.57342977783E+02  0.37717794477E+02 -0.10851094096E+03  0.12839576874E+03  0.00000000000E+00 0. -1.
</event>
<event>
 6    1  0.6597032E-006  0.1357759E+03  0.7561462E-02  0.1219128E+00
          1   -1    0    0  501    0  0.00000000000E+00  0.00000000000E+00  0.75102770980E+02  0.75102770980E+02  0.00000000000E+00 0. -1.
         -1   -1    0    0    0  501 -0.00000000000E+00 -0.00000000000E+00 -0.39279373269E+03  0.39279373269E+03  0.00000000000E+00 0.  1.
          5    1    1    2  502    0  0.55505666456E+02  0.41108222418E+02 -0.14153408410E+03  0.15754407105E+03  0.41800000000E+01 0. -1.
         -5    1    1    2    0  502  0.39460421912E+02 -0.83129475254E+02 -0.14079811597E+03  0.16825342913E+03  0.41800000000E+01 0. -1.
        -11    1    1    2    0    0 -0.79346384564E+02  0.17638314699E+02 -0.62404763625E+02  0.10247591625E+03  0.00000000000E+00 0.  1.
         11    1    1    2    0    0 -0.15619703803E+02  0.24382938138E+02  0.27046001986E+02  0.39623087242E+02  0.00000000000E+00 0. -1.
</event>
<event>
 6    1  0.6597032E-006  0.9339599E+02  0.7561462E-02  0.1294830E+00
          2   -1    0    0  501    0  0.00000000000E+00  0.00000000000E+00  0.47853964940E+03  0.47853964940E+03  0.00000000000E+00 0. -1.
         -2   -1    0    0    0  501 -0.00000000000E+00 -0.00000000000E+00 -0.24811267555E+02  0.24811267555E+02  0.00000000000E+00 0.  1.
          5    1    1    2  502    0  0.56658584708E+02  0.11554922345E+02  0.81304463028E+02  0.99857896832E+02  0.41800000000E+01 0. -1.
         -5    1    1    2    0  502 -0.62653458832E+02 -0.12878142302E+02  0.15130580652E+03  0.16432352826E+03  0.41800000000E+01 0. -1.
        -11    1    1    2    0    0 -0.24229002039E+02 -0.16792448591E+02  0.21554612741E+02  0.36518929337E+02  0.00000000000E+00 0.  1.
         11    1    1    2    0    0  0.30223876163E+02  0.18115668548E+02  0.19956349955E+03  0.20265056253E+03  0.00000000000E+00 0. -1.
</event>
<event>
 6    1  0.6597032E-006  0.2731472E+03  0.7561462E-02  0.1099492E+00
         -4   -1    0    0    0  501 -0.00000000000E+00  0.00000000000E+00  0.81159709292E+02  0.81159709292E+02  0.00000000000E+00 0. -1.
          4   -1    0    0  501    0  0.00000000000E+00 -0.00000000000E+00 -0.10205269980E+04  0.10205269980E+04  0.00000000000E+00 0.  1.
          5    1    1    2  502    0 -0.11367619525E+03  0.31365011219E+02 -0.27945975161E+03  0.30335007247E+03  0.41800000000E+01 0.  1.
         -5    1    1    2    0  502 -0.15238515474E+03 -0.48737148928E+02 -0.16530979748E+03  0.23008986639E+03  0.41800000000E+01 0.  1.
        -11    1    1    2    0    0  0.32083435209E+02  0.11873538310E+02 -0.13444021015E+03  0.13872453940E+03  0.00000000000E+00 0.  1.
         11    1    1    2    0    0  0.23397791478E+03  0.54985993995E+01 -0.36015752942E+03  0.42952222899E+03  0.00000000000E+00 0. -1.
</event>
<event>
 6    1  0.6597032E-006  0.1161498E+03  0.7561462E-02  0.1249587E+00
         -2   -1    0    0    0  501 -0.00000000000E+00  0.00000000000E+00  0.64448665834E+02  0.64448665834E+02  0.00000000000E+00 0.  1.
          2   -1    0    0  501    0  0.00000000000E+00 -0.00000000000E+00 -0.24749064444E+03  0.24749064444E+03  0.00000000000E+00 0. -1.
          5    1    1    2  502    0 -0.25668917083E+02  0.33720968664E+02 -0.25057712526E+02  0.49410104118E+02  0.41800000000E+01 0. -1.
         -5    1    1    2    0  502  0.61687558238E+02 -0.65459734453E+02 -0.23201537269E+02  0.92984490146E+02  0.41800000000E+01 0. -1.
        -11    1    1    2    0    0 -0.82568940366E+01  0.59700451457E+02 -0.60148947191E+02  0.85148200518E+02  0.00000000000E+00 0. -1.
         11    1    1    2    0    0 -0.27761747118E+02 -0.27961685668E+02 -0.74633781624E+02  0.84396515497E+02  0.00000000000E+00 0.  1.
</event>
<event>
 6    1  0.6597032E-006  0.1008119E+03  0.7561462E-02  0.1278598E+00
          4   -1    0    0  501    0  0.00000000000E+00  0.00000000000E+00  0.64062926045E+03  0.64062926045E+03  0.00000000000E+00 0. -1.
         -4   -1    0    0    0  501 -0.00000000000E+00 -0.00000000000E+00 -0.19719827936E+02  0.19719827936E+02  0.00000000000E+00 0.  1.
          5    1    1    2  502    0  0.17495668799E+02 -0.64775276123E+02  0.33600404917E+03  0.34266328704E+03  0.41800000000E+01 0.  1.
         -5    1    1    2    0  502 -0.18027498083E+02  0.42331119406E+02  0.80704470905E+02  0.92992464111E+02  0.41800000000E+01 0.  1.
        -11    1    1    2    0    0  0.41320989039E+02 -0.64730481868E+00  0.58396544110E+02  0.71540195014E+02  0.00000000000E+00 0. -1.
         11    1    1    2    0    0 -0.40789159756E+02  0.23091461536E+02  0.14580436832E+03  0.15315314222E+03  0.00000000000E+00 0.  1.
</event>
<event>
 6    1  0.6597032E-006  0.1215037E+03  0.7561462E-02  0.1240637E+00
          1   -1    0    0  501    0  0.00000000000E+00  0.00000000000E+00  0.24639508990E+03  0.24639508990E+03  0.00000000000E+00 0. -1.
         -1   -1    0    0    0  501 -0.00000000000E+00 -0.00000000000E+00 -0.89586447154E+02  0.89586447154E+02  0.00000000000E+00 0.  1.
          5    1    1    2  502    0 -0.31358284753E+02  0.83297958999E+02  0.31658537503E+01  0.89159335047E+02  0.41800000000E+01 0.  1.
         -5    1    1    2    0  502 -0.86053144814E+01 -0.45092665941E+02 -0.13299569927E+02  0.47976566356E+02  0.41800000000E+01 0.  1.
        -11    1    1    2    0    0  0.29810536913E+02  0.27958424285E+02  0.69509911043E+02  0.80634789841E+02  0.00000000000E+00 0.  1.
         11    1    1    2    0    0  0.10153062322E+02 -0.66163717343E+02  0.97432447882E+02  0.11821084581E+03  0.00000000000E+00 0. -1.
</event>
<event>
 6    1  0.6597032E-006  0.8966680E+02  0.7561462E-02  0.1303661E+00
          2   -1    0    0  501    0  0.00000000000E+00  0.00000000000E+00  0.13117000012E+03  0.13117000012E+03  0.00000000000E+00 0. -1.
         -2   -1    0    0    0  501 -0.00000000000E+00 -0.00000000000E+00 -0.91596775523E+02  0.91596775523E+02  0.00000000000E+00 0.  1.
          5    1    1    2  502    0 -0.19269654396E+01  0.52212759069E+02  0.51417788035E+02  0.73424428713E+02  0.41800000000E+01 0.  1.
         -5    1    1    2    0  502  0.14131870664E+02 -0.35247653896E+02 -0.38259913959E+02  0.54068477783E+02  0.41800000000E+01 0.  1.
        -11    1    1    2    0    0 -0.30180138419E+02  0.27451833562E+02  0.50492072951E+00  0.40800721389E+02  0.00000000000E+00 0. -1.
         11    1    1    2    0    0  0.17975233195E+02 -0.44416938734E+02  0.25910429795E+02  0.54473147762E+02  0.00000000000E+00 0.  1.
</event>
<event>
 6    1  0.6597032E-006  0.1091879E+03  0.7561462E-02  0.1262081E+00
          2   -1    0    0  501    0  0.00000000000E+00  0.00000000000E+00  0.68959071789E+02  0.68959071789E+02  0.00000000000E+00 0.  1.
         -2   -1    0    0    0  501 -0.00000000000E+00 -0.00000000000E+00 -0.23224278340E+03  0.23224278340E+03  0.00000000000E+00 0. -1.
          5    1    1    2  502    0 -0.64941482302E+02  0.31474541750E+02 -0.13165502658E+03  0.15019507757E+03  0.41800000000E+01 0.  1.
         -5    1    1    2    0  502  0.11874566739E+02 -0.38822623695E+02 -0.24925515722E+01  0.40888710656E+02  0.41800000000E+01 0.  1.
        -11    1    1    2    0    0  0.21876183165E+01  0.43059066089E+02 -0.48707161469E+01  0.43388854814E+02  0.00000000000E+00 0.  1.
         11    1    1    2    0    0  0.50879297246E+02 -0.35710984144E+02 -0.24265417311E+02  0.66729212149E+02  0.00000000000E+00 0. -1.
</event>
<event>
 6    1  0.6597032E-006  0.1181911E+03  0.7561462E-02  0.1246111E+00
          2   -1    0    0  501    0  0.00000000000E+00  0.00000000000E+00  0.51913570999E+03  0.51913570999E+03  0.00000000000E+00 0.  1.
         -2   -1    0    0    0  501 -0.00000000000E+00 -0.00000000000E+00 -0.31042452356E+02  0.31042452356E+02  0.00000000000E+00 0. -1.
          5    1    1    2  502    0  0.64433531776E+02  0.63848997589E+02  0.10420916744E+03  0.13822227566E+03  0.41800000000E+01 0. -1.
         -5    1    1    2    0  502 -0.15513177053E+02 -0.38770451112E+02  0.89234267495E+02  0.98610513826E+02  0.41800000000E+01 0. -1.
        -11    1    1    2    0    0 -0.36213368925E+02 -0.57967596972E+02  0.15663726198E+03  0.17090021132E+03  0.00000000000E+00 0. -1.
         11    1    1    2    0    0 -0.12706985798E+02  0.32889050495E+02  0.13801256072E+03  0.14244516154E+03  0.00000000000E+00 0.  1.
</event>
<event>
 6    1  0.9901033E-006  0.1364338E+03  0.7561462E-02  0.1218210E+00
         -2   -1    0    0    0  501 -0.00000000000E+00  0.00000000000E+00  0.17242296996E+04  0.17242296996E+04  0.00000000000E+00 0.  1.
          2   -1    0    0  501    0  0.00000000000E+00 -0.00000000000E+00 -0.14194570538E+02  0.14194570538E+02  0.00000000000E+00 0. -1.
          5    1    1    2  502    0 -0.26496328773E+02  0.10606614712E+03  0.10082613650E+04  0.10141797353E+04  0.41800000000E+01 0.  1.
         -5    1    1    2    0  502  0.26796977035E+02  0.33590074051E+01  0.49360807839E+02  0.56420941675E+02  0.41800000000E+01 0.  1.
        -11    1    1    2    0    0 -0.32533192952E+02 -0.95739926532E+02  0.55881257546E+03  0.56788734505E+03  0.00000000000E+00 0.  1.
         11    1    1    2    0    0  0.32232544690E+02 -0.13685227992E+02  0.93600380833E+02  0.99936248151E+02  0.00000000000E+00 0. -1.
</event>
<event>
 6    1  0.6597032E-006  0.1340412E+03  0.7561462E-02  0.1221580E+00
         -1   -1    0    0    0  501 -0.00000000000E+00  0.00000000000E+00  0.37508717621E+02  0.37508717621E+02  0.00000000000E+00 0.  1.
          1   -1    0    0  501    0  0.00000000000E+00 -0.00000000000E+00 -0.62078546087E+03  0.62078546087E+03  0.00000000000E+00 0. -1.
          5    1    1    2  502    0  0.30207775354E+02 -0.34690574324E+02 -0.77296311800E+02  0.90045198965E+02  0.41800000000E+01 0.  1.
         -5    1    1    2    0  502 -0.10984374559E+03 -0.23737631872E+02 -0.14558808322E+03  0.18396327347E+03  0.41800000000E+01 0.  1.
        -11    1    1    2    0    0  0.59568418108E+02  0.65145668111E+02 -0.34951847315E+03  0.36049343625E+03  0.00000000000E+00 0. -1.
         11    1    1    2    0    0  0.20067552125E+02 -0.67174619153E+01 -0.10873875075E+02  0.23792269795E+02  0.00000000000E+00 0.  1.
</event>
<event>
 6    1  0.6597032E-006  0.4686760E+03  0.7561462E-02  0.1022295E+00
         -1   -1    0    0    0  501 -0.00000000000E+00  0.00000000000E+00  0.29541042001E+03  0.29541042001E+03  0.00000000000E+00 0.  1.
          1   -1    0    0  501    0  0.00000000000E+00 -0.00000000000E+00 -0.80933354453E+03  0.80933354453E+03  0.00000000000E+00 0. -1.
          5    1    1    2  502    0  0.18945481585E+03 -0.35196567200E+03 -0.95001195762E+02  0.41087183052E+03  0.41800000000E+01 0. -1.
         -5    1    1    2    0  502 -0.17266972111E+02 -0.75082760117E+02 -0.25409417994E+02  0.81232260312E+02  0.41800000000E+01 0. -1.
        -11    1    1    2    0    0 -0.11174229378E+03  0.27923429743E+03 -0.19751265299E+03  0.35981853922E+03  0.00000000000E+00 0.  1.
         11    1    1    2    0    0 -0.60445549958E+02  0.14781413469E+03 -0.19599985778E+03  0.25282133449E+03  0.00000000000E+00 0. -1.
</event>
<event>
 6    1  0.6597032E-006  0.1033704E+03  0.7561462E-02  0.1273364E+00
          2   -1    0    0  501    0  0.00000000000E+00  0.00000000000E+00  0.14677942491E+03  0.14677942491E+03  0.00000000000E+00 0. -1.
         -2   -1    0    0    0  501 -0.00000000000E+00 -0.00000000000E+00 -0.93957368229E+02  0.93957368229E+02  0.00000000000E+00 0.  1.
          5    1    1    2  502    0 -0.37618349569E+02  0.42664931272E+02 -0.15495917505E+02  0.59101881899E+02  0.41800000000E+01 0. -1.
         -5    1    1    2    0  502  0.53672877996E+02 -0.41257666015E+02  0.11839930786E+01  0.67836915297E+02  0.41800000000E+01 0. -1.
        -11    1    1    2    0    0 -0.38118313501E+02  0.26411063706E+02  0.62744273011E+02  0.78021752774E+02  0.00000000000E+00 0. -1.
         11    1    1    2    0    0  0.22063785074E+02 -0.27818328962E+02  0.43897080942E+01  0.35776243167E+02  0.00000000000E+00 0.  1.
</event>
<event>
 6    1  0.6597032E-006  0.2461048E+03  0.7561462E-02  0.1115792E+00
         -2   -1    0    0    0  501 -0.00000000000E+00  0.00000000000E+00  0.74401620545E+03  0.74401620545E+03  0.00000000000E+00 0.  1.
          2   -1    0    0  501    0  0.00000000000E+00 -0.00000000000E+00 -0.90545447222E+02  0.90545447222E+02  0.00000000000E+00 0. -1.
          5    1    1    2  502    0  0.24748661943E+02  0.85313593159E+02  0.19391626910E+03  0.21333517588E+03  0.41800000000E+01 0.  1.
         -5    1    1    2    0  502  0.11190640633E+03  0.10467545130E+03  0.10192894409E+03  0.18408415447E+03  0.41800000000E+01 0.  1.
        -11    1    1    2    0    0 -0.89337554759E+02 -0.18097310595E+03  0.26927111221E+03  0.33651061742E+03  0.00000000000E+00 0. -1.
         11    1    1    2    0    0 -0.47317513512E+02 -0.90159385046E+01  0.88354432836E+02  0.10063170491E+03  0.00000000000E+00 0.  1.
</event>
<event>
 6    1  0.6597032E-006  0.1035236E+03  0.7561462E-02  0.1273056E+00
         -1   -1    0    0    0  501 -0.00000000000E+00  0.00000000000E+00  0.39035853727E+02  0.39035853727E+02  0.00000000000E+00 0.  1.
          1   -1    0    0  501    0  0.00000000000E+00 -0.00000000000E+00 -0.46090846848E+03  0.46090846848E+03  0.00000000000E+00 0. -1.
          5    1    1    2  502    0 -0.87388263590E+02 -0.27613728868E+01 -0.29823293307E+03  0.31081294787E+03  0.41800000000E+01 0. -1.
         -5    1    1    2    0  502  0.16499286412E+02 -0.10118548844E+02  0.78039013342E+00  0.19816480302E+02  0.41800000000E+01 0. -1.
        -11    1    1    2    0    0  0.46720217076E+02  0.41334744523E+02 -0.33013065441E+02  0.70577632989E+02  0.00000000000E+00 0.  1.
         11    1    1    2    0    0  0.24168760102E+02 -0.28454822792E+02 -0.91407006371E+02  0.98737261045E+02  0.00000000000E+00 0. -1.
</event>
<event>
 6    1  0.6597032E-006  0.1175460E+03  0.7561462E-02  0.1247201E+00
          1   -1    0    0  501    0  0.00000000000E+00  0.00000000000E+00  0.90150963318E+02  0.90150963318E+02  0.00000000000E+00 0. -1.
         -1   -1    0    0    0  501 -0.00000000000E+00 -0.00000000000E+00 -0.21157198361E+03  0.21157198361E+03  0.00000000000E+00 0.  1.
          5    1    1    2  502    0  0.80406966693E+02 -0.25968647245E+02 -0.62911055796E+02  0.10542734121E+03  0.41800000000E+01 0.  1.
         -5    1    1    2    0  502 -0.91068157066E+01  0.62861097891E+02 -0.36370994216E+02  0.73312845673E+02  0.41800000000E+01 0.  1.
        -11    1    1    2    0    0 -0.51913084861E+01 -0.17038270126E+02 -0.46491797952E+02  0.49786942158E+02  0.00000000000E+00 0.  1.
         11    1    1    2    0    0 -0.66108842500E+02 -0.19854180520E+02  0.24352827673E+02  0.73195817889E+02  0.00000000000E+00 0. -1.
</event>
<event>
 6    1  0.6597032E-006  0.9974160E+02  0.7561462E-02  0.1280840E+00
         -3   -1    0    0    0  501 -0.00000000000E+00  0.00000000000E+00  0.50237734901E+03  0.50237734901E+03  0.00000000000E+00 0.  1.
          3   -1    0    0  501    0  0.00000000000E+00 -0.00000000000E+00 -0.28250403680E+02  0.28250403680E+02  0.00000000000E+00 0. -1.
          5    1    1    2  502    0  0.16238650419E+02 -0.59134215375E+02  0.12269686225E+03  0.13723170771E+03  0.41800000000E+01 0.  1.
         -5    1    1    2    0  502  0.81170585554E+01  0.57943337178E+02  0.24562946819E+03  0.25253638353E+03  0.41800000000E+01 0.  1.
        -11    1    1    2    0    0  0.71723202913E+01  0.33474665327E+02  0.84073689069E+02  0.90776542073E+02  0.00000000000E+00 0.  1.
         11    1    1    2    0    0 -0.31528029266E+02 -0.32283787131E+02  0.21726925825E+02  0.50083119378E+02  0.00000000000E+00 0. -1.
</event>
<event>
 6    1  0.6597032E-006  0.7943759E+02  0.7561462E-02  0.1330655E+00
          2   -1    0    0  501    0  0.00000000000E+00  0.00000000000E+00  0.77894663803E+03  0.77894663803E+03  0.00000000000E+00 0.  1.
         -2   -1    0    0    0  501 -0.00000000000E+00 -0.00000000000E+00 -0.14982497494E+02  0.14982497494E+02  0.00000000000E+00 0. -1.
          5    1    1    2  502    0  0.28046003119E+01 -0.18900821348E+02  0.46087490505E+01  0.20095268059E+02  0.41800000000E+01 0.  1.
         -5    1    1    2    0  502 -0.20676140984E+02  0.49549311817E+02  0.43554407787E+03  0.43886074474E+03  0.41800000000E+01 0.  1.
        -11    1    1    2    0    0 -0.17835679250E+02 -0.43893103935E+02  0.19303079929E+03  0.19876017081E+03  0.00000000000E+00 0. -1.
         11    1    1    2    0    0  0.35707219922E+02  0.13244613467E+02  0.13078051432E+03  0.13621295190E+03  0.00000000000E+00 0.  1.
</event>
<event>
 6    1  0.6597032E-006  0.6087196E+02  0.7561462E-02  0.1394209E+00
          2   -1    0    0  501    0  0.00000000000E+00  0.00000000000E+00  0.26839165295E+02  0.26839165295E+02  0.00000000000E+00 0. -1.
         -2   -1    0    0    0  501 -0.00000000000E+00 -0.00000000000E+00 -0.51194564943E+03  0.51194564943E+03  0.00000000000E+00 0.  1.
          5    1    1    2  502    0  0.79599418652E+01  0.15331547586E+02 -0.21728459730E+03  0.21801028794E+03  0.41800000000E+01 0. -1.
         -5    1    1    2    0  502  0.53389241537E+01  0.13438971635E+02  0.15436413307E+02  0.21560735737E+02  0.41800000000E+01 0. -1.
        -11    1    1    2    0    0 -0.31982525614E+02  0.19292780500E+02 -0.17953412835E+03  0.18337828815E+03  0.00000000000E+00 0.  1.
         11    1    1    2    0    0  0.18683659595E+02 -0.48063299720E+02 -0.10372417180E+03  0.11583550289E+03  0.00000000000E+00 0. -1.
</event>
<event>
 6    1  0.6597032E-006  0.1177153E+03  0.7561462E-02  0.1246914E+00
         -1   -1    0    0    0  501 -0.00000000000E+00  0.00000000000E+00  0.19485797062E+03  0.19485797062E+03  0.00000000000E+00 0.  1.
          1   -1    0    0  501    0  0.00000000000E+00 -0.00000000000E+00 -0.71927870844E+02  0.71927870844E+02  0.00000000000E+00 0. -1.
          5    1    1    2  502    0  0.23425080725E+02 -0.37023204742E+02  0.19955311987E+02  0.48323275684E+02  0.41800000000E+01 0. -1.
         -5    1    1    2    0  502 -0.64227573918E+02  0.62868561354E+02  0.49276919264E+02  0.10258325609E+03  0.41800000000E+01 0. -1.
        -11    1    1    2    0    0 -0.43146003615E+00  0.31120850792E+02  0.84282384548E+01  0.32244824627E+02  0.00000000000E+00 0. -1.
         11    1    1    2    0    0  0.41233953229E+02 -0.56966207404E+02  0.45269630070E+02  0.83634485061E+02  0.00000000000E+00 0.  1.
</event>
<event>
 6    1  0.6597032E-006  0.1104272E+03  0.7561462E-02  0.1259781E+00
          1   -1    0    0  501    0  0.00000000000E+00  0.00000000000E+00  0.43423053081E+02  0.43423053081E+02  0.00000000000E+00 0. -1.
         -1   -1    0    0    0  501 -0.00000000000E+00 -0.00000000000E+00 -0.59225776944E+03  0.59225776944E+03  0.00000000000E+00 0.  1.
          5    1    1    2  502    0  0.34735701600E+02 -0.98782876490E+01 -0.29658108551E+03  0.29880087385E+03  0.41800000000E+01 0.  1.
         -5    1    1    2    0  502  0.35757860201E+02 -0.69466370426E+02 -0.79698853325E+02  0.11168518616E+03  0.41800000000E+01 0.  1.
        -11    1    1    2    0    0 -0.38833664189E+02  0.39869896901E+02 -0.16487159622E+03  0.17401237138E+03  0.00000000000E+00 0.  1.
         11    1    1    2    0    0 -0.31659897612E+02  0.39474761174E+02 -0.76831813024E+01  0.51182391127E+02  0.00000000000E+00 0. -1.
</event>
<event>
 6    1  0.6597032E-006  0.5197696E+02  0.7561462E-02  0.1434961E+00
         -1   -1    0    0    0  501 -0.00000000000E+00  0.00000000000E+00  0.56979423282E+02  0.56979423282E+02  0.00000000000E+00 0.  1.
          1   -1    0    0  501    0  0.00000000000E+00 -0.00000000000E+00 -0.26744110171E+03  0.26744110171E+03  0.00000000000E+00 0. -1.
          5    1    1    2  502    0 -0.62924355137E+01  0.88552880062E+00 -0.92173641326E+02  0.92486925893E+02  0.41800000000E+01 0. -1.
         -5    1    1    2    0  502  0.35941732973E+02  0.49673888857E+01  0.32937518805E+02  0.49181659859E+02  0.41800000000E+01 0. -1.
        -11    1    1    2    0    0 -0.18532917973E+02 -0.28845319096E+02 -0.54018882576E+01  0.34708815582E+02  0.00000000000E+00 0.  1.
         11    1    1    2    0    0 -0.11116379486E+02  0.22992401410E+02 -0.14582366765E+03  0.14804312366E+03  0.00000000000E+00 0. -1.
</event>
<event>
 6    1  0.6597032E-006  0.1385018E+03  0.7561462E-02  0.1215359E+00
          1   -1    0    0  501    0  0.00000000000E+00  0.00000000000E+00  0.61202830123E+03  0.61202830123E+03  0.00000000000E+00 0. -1.
         -1   -1    0    0    0  501 -0.00000000000E+00 -0.00000000000E+00 -0.43763977299E+02  0.43763977299E+02  0.00000000000E+00 0.  1.
          5    1    1    2  502    0  0.82491169838E+02 -0.15684505873E+01  0.82912088183E+02  0.11704332491E+03  0.41800000000E+01 0.  1.
         -5    1    1    2    0  502 -0.94995769615E+01 -0.82297690210E+02  0.12199170291E+03  0.14752152303E+03  0.41800000000E+01 0.  1.
        -11    1    1    2    0    0 -0.45487229489E+02  0.46543963789E+02  0.32381668741E+03  0.33029180380E+03  0.00000000000E+00 0. -1.
         11    1    1    2    0    0 -0.27504363388E+02  0.37322177008E+02  0.39543845426E+02  0.60935626797E+02  0.00000000000E+00 0.  1.
</event>
<event>
 6    1  0.6597032E-006  0.9941307E+02  0.7561462E-02  0.1281535E+00
         -2   -1    0    0    0  501 -0.00000000000E+00  0.00000000000E+00  0.95611868884E+02  0.95611868884E+02  0.00000000000E+00 0.  1.
          2   -1    0    0  501    0  0.00000000000E+00 -0.00000000000E+00 -0.12852552337E+03  0.12852552337E+03  0.00000000000E+00 0. -1.
          5    1    1    2  502    0  0.21073069391E+02 -0.54560986730E+02  0.28556789969E+02  0.65222221519E+02  0.41800000000E+01 0.  1.
         -5    1    1    2    0  502  0.19355293098E+01  0.49383624025E+02 -0.37886955004E+02  0.62412998286E+02  0.41800000000E+01 0.  1.
        -11    1    1    2    0    0 -0.38967251623E+02  0.37790017339E+02 -0.21172825621E+01  0.54323245439E+02  0.00000000000E+00 0.  1.
         11    1    1    2    0    0  0.15958652922E+02 -0.32612654634E+02 -0.21466206885E+02  0.42178927007E+02  0.00000000000E+00 0. -1.
</event>
<event>
 6    1  0.6597032E-006  0.1604371E+03  0.7561462E-02  0.1188204E+00
         -2   -1    0    0    0  501 -0.00000000000E+00  0.00000000000E+00  0.37323237131E+02  0.37323237131E+02  0.00000000000E+00 0.  1.
          2   -1    0    0  501    0  0.00000000000E+00 -0.00000000000E+00 -0.76941625391E+03  0.76941625391E+03  0.00000000000E+00 0. -1.
          5    1    1    2  502    0  0.75393005862E+01  0.12193017185E+03 -0.28417525620E+03  0.30934908518E+03  0.41800000000E+01 0.  1.
         -5    1    1    2    0  502  0.46002143949E+02 -0.64087178392E+01 -0.43443176046E+02  0.63734220456E+02  0.41800000000E+01 0.  1.
        -11    1    1    2    0    0 -0.68778381069E+02 -0.50774350823E+02 -0.17547725260E+03  0.19519417661E+03  0.00000000000E+00 0.  1.
         11    1    1    2    0    0  0.15236936534E+02 -0.64747103192E+02 -0.22899733193E+03  0.23846200879E+03  0.00000000000E+00 0. -1.
</event>
<event>
 6    1  0.6597032E-006  0.8728218E+02  0.7561462E-02  0.1309570E+00
          2   -1    0    0  501    0  0.00000000000E+00  0.00000000000E+00  0.62611968191E+02  0.62611968191E+02  0.00000000000E+00 0. -1.
         -2   -1    0    0    0  501 -0.00000000000E+00 -0.00000000000E+00 -0.32751051201E+03  0.32751051201E+03  0.00000000000E+00 0.  1.
          5    1    1    2  502    0  0.34165888348E+02  0.16385540060E+02 -0.17729244432E+03  0.18134463616E+03  0.41800000000E+01 0. -1.
         -5    1    1    2    0  502 -0.55647924039E+02 -0.45756288040E+02 -0.84868009521E+02  0.11140188861E+03  0.41800000000E+01 0. -1.
        -11    1    1    2    0    0  0.26735839650E+02  0.42458296398E+02  0.32254887732E+02  0.59648049736E+02  0.00000000000E+00 0. -1.
         11    1    1    2    0    0 -0.52538039586E+01 -0.13087548417E+02 -0.34992977708E+02  0.37727905700E+02  0.00000000000E+00 0.  1.
</event>
<event>
 6    1  0.6597032E-006  0.8033628E+02  0.7561462E-02  0.1328100E+00
          1   -1    0    0  501    0  0.00000000000E+00  0.00000000000E+00  0.20180209518E+03  0.20180209518E+03  0.00000000000E+00 0. -1.
         -1   -1    0    0    0  501 -0.00000000000E+00 -0.00000000000E+00 -0.14980555175E+03  0.14980555175E+03  0.00000000000E+00 0.  1.
          5    1    1    2  502    0  0.15506543998E+02 -0.23037446176E+02 -0.84355355003E+02  0.88907115298E+02  0.41800000000E+01 0. -1.
         -5    1    1    2    0  502 -0.36861005980E+02  0.67491872199E+02 -0.15454830400E+02  0.78550689096E+02  0.41800000000E+01 0. -1.
        -11    1    1    2    0    0 -0.36144775540E+01 -0.21027638060E+02 -0.64042929071E+01  0.22276466910E+02  0.00000000000E+00 0.  1.
         11    1    1    2    0    0  0.24968939536E+02 -0.23426787964E+02  0.15821102174E+03  0.16187337562E+03  0.00000000000E+00 0. -1.
</event>
<event>
 6    1  0.6597032E-006  0.6348137E+02  0.7561462E-02  0.1383777E+00
         -1   -1    0    0    0  501 -0.00000000000E+00  0.00000000000E+00  0.14841945199E+04  0.14841945199E+04  0.00000000000E+00 0.  1.
          1   -1    0    0  501    0  0.00000000000E+00 -0.00000000000E+00 -0.95299500957E+01  0.95299500957E+01  0.00000000000E+00 0. -1.
          5    1    1    2  502    0  0.10063665756E+02  0.30623560500E+02  0.11430208123E+04  0.11434828943E+04  0.41800000000E+01 0. -1.
         -5    1    1    2    0  502 -0.54480758076E+01 -0.11771300859E+02  0.15144125799E+02  0.20373070464E+02  0.41800000000E+01 0.  1.
        -11    1    1    2    0    0 -0.37515858337E+02 -0.27848323181E+02  0.25762544670E+03  0.26182788148E+03  0.00000000000E+00 0.  1.
         11    1    1    2    0    0  0.32900268388E+02  0.89960635396E+01  0.58874184973E+02  0.68040623715E+02  0.00000000000E+00 0. -1.
</event>
<event>
 6    1  0.6597032E-006  0.1029199E+03  0.7561462E-02  0.1274273E+00
          2   -1    0    0  501    0  0.00000000000E+00  0.00000000000E+00  0.40099620013E+02  0.40099620013E+02  0.00000000000E+00 0.  1.
         -2   -1    0    0    0  501 -0.00000000000E+00 -0.00000000000E+00 -0.39874977862E+03  0.39874977862E+03  0.00000000000E+00 0. -1.
          5    1    1    2  502    0 -0.19392323754E+02 -0.52342006747E+02 -0.12745361903E+03  0.13920361092E+03  0.41800000000E+01 0.  1.
         -5    1    1    2    0  502 -0.12584857182E+02  0.56920251936E+02 -0.18163852056E+03  0.19080963881E+03  0.41800000000E+01 0. -1.
        -11    1    1    2    0    0  0.19410660859E+02 -0.45043844599E+02 -0.83942190599E+01  0.49761276158E+02  0.00000000000E+00 0.  1.
         11    1    1    2    0    0  0.12566520078E+02  0.40465599410E+02 -0.41163799960E+02  0.59074872743E+02  0.00000000000E+00 0. -1.
</event>
<event>
 6    1  0.6597032E-006  0.9387872E+02  0.7561462E-02  0.1293722E+00
         -4   -1    0    0    0  501 -0.00000000000E+00  0.00000000000E+00  0.40084276200E+03  0.40084276200E+03  0.00000000000E+00 0.  1.
          4   -1    0    0  501    0  0.00000000000E+00 -0.00000000000E+00 -0.56583042161E+02  0.56583042161E+02  0.00000000000E+00 0. -1.
          5    1    1    2  502    0  0.40174649121E+01 -0.21212732917E+02 -0.10123732716E+01  0.22014026478E+02  0.41800000000E+01 0.  1.
         -5    1    1    2    0  502 -0.66479695124E+02  0.57572994569E+02  0.26055406490E+03  0.27502743991E+03  0.41800000000E+01 0.  1.
        -11    1    1    2    0    0  0.23443916860E+02 -0.30184039401E+02  0.10797717453E+03  0.11454153697E+03  0.00000000000E+00 0.  1.
         11    1    1    2    0    0  0.39018313352E+02 -0.61762222509E+01 -0.23259146317E+02  0.45842800804E+02  0.00000000000E+00 0. -1.
</event>
<event>
 6    1  0.6597032E-006  0.4526210E+03  0.7561462E-02  0.1026943E+00
          1   -1    0    0  501    0  0.00000000000E+00  0.00000000000E+00  0.87944215536E+03  0.87944215536E+03  0.00000000000E+00 0. -1.
         -1   -1    0    0    0  501 -0.00000000000E+00 -0.00000000000E+00 -0.32307144546E+03  0.32307144546E+03  0.00000000000E+00 0.  1.
          5    1    1    2  502    0 -0.31561902084E+02 -0.76562668720E+02 -0.49112487963E+02  0.96371701130E+02  0.41800000000E+01 0.  1.
         -5    1    1    2    0  502 -0.18971402171E+03 -0.31666313072E+03  0.45290879001E+02  0.37193505416E+03  0.41800000000E+01 0.  1.
        -11    1    1    2    0    0  0.15459520327E+03  0.31088575004E+03  0.32209029614E+03  0.47359453683E+03  0.00000000000E+00 0.  1.
         11    1    1    2    0    0  0.66680720530E+02  0.82340049402E+02  0.23810202272E+03  0.26061230871E+03  0.00000000000E+00 0. -1.
</event>
<event>
 6    1  0.6597032E-006  0.8923657E+02  0.7561462E-02  0.1304711E+00
          1   -1    0    0  501    0  0.00000000000E+00  0.00000000000E+00  0.12713004065E+03  0.12713004065E+03  0.00000000000E+00 0. -1.
         -1   -1    0    0    0  501 -0.00000000000E+00 -0.00000000000E+00 -0.12883488790E+03  0.12883488790E+03  0.00000000000E+00 0.  1.
          5    1    1    2  502    0  0.97450936892E+01  0.37966116815E+02 -0.82429100453E+02  0.91369698908E+02  0.41800000000E+01 0.  1.
         -5    1    1    2    0  502 -0.15559900420E+02 -0.49207531532E+02  0.11426641830E+02  0.53023883336E+02  0.41800000000E+01 0.  1.
        -11    1    1    2    0    0  0.43250965811E+02 -0.97781165587E+01  0.38635481561E+02  0.58812907108E+02  0.00000000000E+00 0. -1.
         11    1    1    2    0    0 -0.37436159080E+02  0.21019531275E+02  0.30662129820E+02  0.52758439200E+02  0.00000000000E+00 0.  1.
</event>
<event>
 6    1  0.6597032E-006  0.9724520E+02  0.7561462E-02  0.1286198E+00
          2   -1    0    0  501    0  0.00000000000E+00  0.00000000000E+00  0.25546012381E+03  0.25546012381E+03  0.00000000000E+00 0. -1.
         -2   -1    0    0    0  501 -0.00000000000E+00 -0.00000000000E+00 -0.50967709742E+02  0.50967709742E+02  0.00000000000E+00 0.  1.
          5    1    1    2  502    0  0.49469412584E+02 -0.66765632322E+00  0.68189051058E+02  0.84349793305E+02  0.41800000000E+01 0. -1.
         -5    1    1    2    0  502 -0.63471134494E+02  0.48079044536E+01  0.11871659613E+02  0.64885357062E+02  0.41800000000E+01 0. -1.
        -11    1    1    2    0    0 -0.18112390285E+01 -0.40948726300E+02  0.20545504029E+02  0.45849716555E+02  0.00000000000E+00 0.  1.
         11    1    1    2    0    0  0.15812960938E+02  0.36808478169E+02  0.10388619937E+03  0.11134296663E+03  0.00000000000E+00 0. -1.
</event>
<event>
 6    1  0.6597032E-006  0.6439806E+02  0.7561462E-02  0.1380250E+00
          1   -1    0    0  501    0  0.00000000000E+00  0.00000000000E+00  0.25733428031E+03  0.25733428031E+03  0.00000000000E+00 0. -1.
         -1   -1    0    0    0  501 -0.00000000000E+00 -0.00000000000E+00 -0.11065764879E+03  0.11065764879E+03  0.00000000000E+00 0.  1.
          5    1    1    2  502    0  0.46610735495E+01 -0.23372551354E+02  0.33047646409E+02  0.40958773134E+02  0.41800000000E+01 0.  1.
         -5    1    1    2    0  502  0.31673578057E+02  0.36725172763E+02 -0.88992285411E+02  0.10143496993E+03  0.41800000000E+01 0.  1.
        -11    1    1    2    0    0 -0.24837568919E+02 -0.27917483765E+02  0.20361541067E+03  0.20701576315E+03  0.00000000000E+00 0. -1.
         11    1    1    2    0    0 -0.11497082687E+02  0.14564862356E+02 -0.99414014909E+00  0.18582422888E+02  0.00000000000E+00 0.  1.
</event>
<event>
 6    1  0.6597032E-006  0.2236880E+03  0.7561462E-02  0.1131163E+00
          1   -1    0    0  501    0  0.00000000000E+00  0.00000000000E+00  0.49457537537E+03  0.49457537537E+03  0.00000000000E+00 0. -1.
         -1   -1    0    0    0  501 -0.00000000000E+00 -0.00000000000E+00 -0.10797871336E+03  0.10797871336E+03  0.00000000000E+00 0.  1.
          5    1    1    2  502    0  0.21572019853E+02  0.36476792327E+02  0.28258057780E+02  0.51106737800E+02  0.41800000000E+01 0. -1.
         -5    1    1    2    0  502  0.17559825347E+03 -0.87550375179E+02  0.15599369238E+03  0.25070165392E+03  0.41800000000E+01 0. -1.
        -11    1    1    2    0    0 -0.14080633298E+03  0.56902451358E+02  0.94359526679E+02  0.17879606442E+03  0.00000000000E+00 0.  1.
         11    1    1    2    0    0 -0.56363940346E+02 -0.58288685052E+01  0.10798538516E+03  0.12194963258E+03  0.00000000000E+00 0. -1.
</event>
<event>
 6    1  0.6597032E-006  0.8276914E+02  0.7561462E-02  0.1321372E+00
         -2   -1    0    0    0  501 -0.00000000000E+00  0.00000000000E+00  0.20173410004E+02  0.20173410004E+02  0.00000000000E+00 0.  1.
          2   -1    0    0  501    0  0.00000000000E+00 -0.00000000000E+00 -0.65558531387E+03  0.65558531387E+03  0.00000000000E+00 0. -1.
          5    1    1    2  502    0  0.70937394430E+01 -0.40476209160E+02 -0.30503982085E+02  0.51347930535E+02  0.41800000000E+01 0.  1.
         -5    1    1    2    0  502  0.28455067784E+02  0.27761742270E+02 -0.32422297841E+03  0.32667784948E+03  0.41800000000E+01 0.  1.
        -11    1    1    2    0    0  0.19081913244E+01 -0.28501896298E+02 -0.32032013782E+02  0.42919100569E+02  0.00000000000E+00 0.  1.
         11    1    1    2    0    0 -0.37456998551E+02  0.41216363189E+02 -0.24865292959E+03  0.25481384328E+03  0.00000000000E+00 0. -1.
</event>
<event>
 6    1  0.6597032E-006  0.1163590E+03  0.7561462E-02  0.1249227E+00
         -1   -1    0    0    0  501 -0.00000000000E+00  0.00000000000E+00  0.95926230704E+02  0.95926230704E+02  0.00000000000E+00 0.  1.
          1   -1    0    0  501    0  0.00000000000E+00 -0.00000000000E+00 -0.22131037248E+03  0.22131037248E+03  0.00000000000E+00 0. -1.
          5    1    1    2  502    0  0.23026368081E+02 -0.62944691273E+01 -0.47381863207E+02  0.53219802044E+02  0.41800000000E+01 0.  1.
         -5    1    1    2    0  502 -0.56204492865E+02  0.94074290934E+02  0.17517388539E+01  0.10967888686E+03  0.41800000000E+01 0.  1.
        -11    1    1    2    0    0  0.34909315057E+02 -0.49897673987E+02  0.53858347775E+01  0.61134649450E+02  0.00000000000E+00 0.  1.
         11    1    1    2    0    0 -0.17311902727E+01 -0.37882147819E+02 -0.85139852204E+02  0.93203264838E+02  0.00000000000E+00 0. -1.
</event>
<event>
 6    1  0.6597032E-006  0.1173954E+03  0.7561462E-02  0.1247457E+00
         -2   -1    0    0    0  501 -0.00000000000E+00  0.00000000000E+00  0.17079384598E+03  0.17079384598E+03  0.00000000000E+00 0.  1.
          2   -1    0    0  501    0  0.00000000000E+00 -0.00000000000E+00 -0.96315424216E+02  0.96315424216E+02  0.00000000000E+00 0. -1.
          5    1    1    2  502    0  0.66874620902E+02 -0.74615775657E+02  0.46499901753E+02  0.11054158566E+03  0.41800000000E+01 0.  1.
         -5    1    1    2    0  502 -0.16660186369E+02  0.29131293040E+02 -0.11926067085E+02  0.35859413271E+02  0.41800000000E+01 0.  1.
        -11    1    1    2    0    0  0.18749457080E+02  0.13245541850E+01 -0.13322902074E+02  0.23039016999E+02  0.00000000000E+00 0. -1.
         11    1    1    2    0    0 -0.68963891613E+02  0.44159928432E+02  0.53227489173E+02  0.97669254268E+02  0.00000000000E+00 0.  1.
</event>
<event>
 6    1  0.6597032E-006  0.1408138E+03  0.7561462E-02  0.1212238E+00
         -1   -1    0    0    0  501 -0.00000000000E+00  0.00000000000E+00  0.36466045150E+02  0.36466045150E+02  0.00000000000E+00 0.  1.
          1   -1    0    0  501    0  0.00000000000E+00 -0.00000000000E+00 -0.58447347525E+03  0.58447347525E+03  0.00000000000E+00 0. -1.
          5    1    1    2  502    0  0.91859563139E+02 -0.31943562227E+02 -0.20734121630E+03  0.22905550176E+03  0.41800000000E+01 0.  1.
         -5    1    1    2    0  502 -0.32277997796E+01  0.56733224682E+02 -0.15621769162E+03  0.16628444621E+03  0.41800000000E+01 0.  1.
        -11    1    1    2    0    0 -0.40049798549E+02  0.32937664065E+02 -0.53743835287E+02  0.74681161676E+02  0.00000000000E+00 0.  1.
         11    1    1    2    0    0 -0.48581964810E+02 -0.57727326520E+02 -0.13070468689E+03  0.15091841076E+03  0.00000000000E+00 0. -1.
</event>
<event>
 6    1  0.6597032E-006  0.9682789E+02  0.7561462E-02  0.1287111E+00
          1   -1    0    0  501    0  0.00000000000E+00  0.00000000000E+00  0.31260205072E+03  0.31260205072E+03  0.00000000000E+00 0. -1.
         -1   -1    0    0    0  501 -0.00000000000E+00 -0.00000000000E+00 -0.47395428291E+02  0.47395428291E+02  0.00000000000E+00 0.  1.
          5    1    1    2  502    0 -0.31832206166E+02  0.27347845792E+02  0.84970280489E+02  0.94861029855E+02  0.41800000000E+01 0.  1.
         -5    1    1    2    0  502  0.57396785531E+02 -0.48451252851E+01 -0.41703675490E+01  0.57902768447E+02  0.41800000000E+01 0.  1.
        -11    1    1    2    0    0 -0.35926705271E+01 -0.54662400638E+02  0.12095023610E+03  0.13277742631E+03  0.00000000000E+00 0.  1.
         11    1    1    2    0    0 -0.21971908838E+02  0.32159680131E+02  0.63456473393E+02  0.74456254402E+02  0.00000000000E+00 0. -1.
</event>
<event>
 6    1  0.6597032E-006  0.1132835E+03  0.7561462E-02  0.1254607E+00
          2   -1    0    0  501    0  0.00000000000E+00  0.00000000000E+00  0.21642021561E+03  0.21642021561E+03  0.00000000000E+00 0. -1.
         -2   -1    0    0    0  501 -0.00000000000E+00 -0.00000000000E+00 -0.10808334682E+03  0.10808334682E+03  0.00000000000E+00 0.  1.
          5    1    1    2  502    0  0.88438547060E+02  0.54024084107E+02 -0.39487951245E+02  0.11098084953E+03  0.41800000000E+01 0. -1.
         -5    1    1    2    0  502 -0.16625000410E+02  0.57194630050E+01  0.41421690242E+02  0.45192164345E+02  0.41800000000E+01 0. -1.
        -11    1    1    2    0    0 -0.63248096250E+02 -0.68009321944E+02  0.40430592293E+02  0.10129275563E+03  0.00000000000E+00 0.  1.
         11    1    1    2    0    0 -0.85654503998E+01  0.82657748318E+01  0.65972537509E+02  0.67037792919E+02  0.00000000000E+00 0. -1.
</event>
<event>
 6    1  0.6597032E-006  0.1033968E+03  0.7561462E-02  0.1273311E+00
         -1   -1    0    0    0  501 -0.00000000000E+00  0.00000000000E+00  0.36932690571E+02  0.36932690571E+02  0.00000000000E+00 0.  1.
          1   -1    0    0  501    0  0.00000000000E+00 -0.00000000000E+00 -0.37630770876E+03  0.37630770876E+03  0.00000000000E+00 0. -1.
          5    1    1    2  502    0 -0.69393233276E+02 -0.36564384294E+02 -0.16044310917E+03  0.17863884993E+03  0.41800000000E+01 0.  1.
         -5    1    1    2    0  502  0.40171998992E+02  0.45359398811E+01 -0.20373482519E+02  0.45463341756E+02  0.41800000000E+01 0.  1.
        -11    1    1    2    0    0 -0.24747230057E+02  0.21138179163E+02 -0.11325577740E+03  0.11783937851E+03  0.00000000000E+00 0. -1.
         11    1    1    2    0    0  0.53968464341E+02  0.10890265250E+02 -0.45302649098E+02  0.71298829134E+02  0.00000000000E+00 0.  1.
</event>
<event>
 6    1  0.6597032E-006  0.1410419E+03  0.7561462E-02  0.1211934E+00
         -1   -1    0    0    0  501 -0.00000000000E+00  0.00000000000E+00  0.66820346928E+02  0.66820346928E+02  0.00000000000E+00 0.  1.
          1   -1    0    0  501    0  0.00000000000E+00 -0.00000000000E+00 -0.32597128644E+03  0.32597128644E+03  0.00000000000E+00 0. -1.
          5    1    1    2  502    0 -0.43059110995E+00  0.47469708298E+02 -0.51652916294E+02  0.70278409034E+02  0.41800000000E+01 0.  1.
         -5    1    1    2    0  502  0.93618545897E+02 -0.49557845979E+02 -0.62956696860E+02  0.12329408061E+03  0.41800000000E+01 0.  1.
        -11    1    1    2    0    0 -0.76682339419E+02 -0.37623145763E+02 -0.12637883016E+03  0.15253619567E+03  0.00000000000E+00 0. -1.
         11    1    1    2    0    0 -0.16505615367E+02  0.39711283444E+02 -0.18162496199E+02  0.46682948060E+02  0.00000000000E+00 0.  1.
</event>
<event>
 6    1  0.6597032E-006  0.8153685E+02  0.7561462E-02  0.1324746E+00
         -2   -1    0    0    0  501 -0.00000000000E+00  0.00000000000E+00  0.16740769417E+03  0.16740769417E+03  0.00000000000E+00 0.  1.
          2   -1    0    0  501    0  0.00000000000E+00 -0.00000000000E+00 -0.12105784808E+03  0.12105784808E+03  0.00000000000E+00 0. -1.
          5    1    1    2  502    0 -0.10878931419E+02 -0.16269056028E+02 -0.34576175606E+02  0.39950189642E+02  0.41800000000E+01 0.  1.
         -5    1    1    2    0  502 -0.38127491652E+02 -0.27748677115E+02  0.11119479031E+03  0.12085300366E+03  0.41800000000E+01 0.  1.
        -11    1    1    2    0    0 -0.12615513469E+02  0.29970401203E+02  0.27081826837E+02  0.42317862341E+02  0.00000000000E+00 0.  1.
         11    1    1    2    0    0  0.61621936540E+02  0.14047331941E+02 -0.57350595442E+02  0.85344486613E+02  0.00000000000E+00 0. -1.
</event>
<event>
 6    1  0.6597032E-006  0.1474140E+03  0.7561462E-02  0.1203687E+00
         -2   -1    0    0    0  501 -0.00000000000E+00  0.00000000000E+00  0.55448328030E+02  0.55448328030E+02  0.00000000000E+00 0.  1.
          2   -1    0    0  501    0  0.00000000000E+00 -0.00000000000E+00 -0.68285713146E+03  0.68285713146E+03  0.00000000000E+00 0. -1.
          5    1    1    2  502    0 -0.22670513956E+02  0.55811560619E+02 -0.48591039308E+01  0.60580242594E+02  0.41800000000E+01 0.  1.
         -5    1    1    2    0  502 -0.89104520127E+02 -0.29601280050E+02 -0.10862582642E+03  0.14364154640E+03  0.41800000000E+01 0.  1.
        -11    1    1    2    0    0  0.92121343771E+02  0.16365859316E+02 -0.27160129463E+03  0.28726546359E+03  0.00000000000E+00 0.  1.
         11    1    1    2    0    0  0.19653690312E+02 -0.42576139885E+02 -0.24232257845E+03  0.24681820690E+03  0.00000000000E+00 0. -1.
</event>
<event>
 6    1  0.6597032E-006  0.1410368E+03  0.7561462E-02  0.1211941E+00
         -1   -1    0    0    0  501 -0.00000000000E+00  0.00000000000E+00  0.12687631751E+03  0.12687631751E+03  0.00000000000E+00 0.  1.
          1   -1    0    0  501    0  0.00000000000E+00 -0.00000000000E+00 -0.20530705808E+03  0.20530705808E+03  0.00000000000E+00 0. -1.
          5    1    1    2  502    0  0.24569290127E+02  0.67326681385E+00  0.19136753386E+02  0.31429143095E+02  0.41800000000E+01 0.  1.
         -5    1    1    2    0  502 -0.12417774411E+03 -0.49986067242E+02 -0.23302595435E+02  0.13593823011E+03  0.41800000000E+01 0.  1.
        -11    1    1    2    0    0  0.38805852112E+02  0.48881138724E+02  0.75647451657E+01  0.62868793933E+02  0.00000000000E+00 0.  1.
         11    1    1    2    0    0  0.60802601871E+02  0.43166170373E+00 -0.81829643685E+02  0.10194720845E+03  0.00000000000E+00 0. -1.
</event>
<event>
 6    1  0.6597032E-006  0.9196635E+02  0.7561462E-02  0.1298159E+00
          2   -1    0    0  501    0  0.00000000000E+00  0.00000000000E+00  0.46767239852E+02  0.46767239852E+02  0.00000000000E+00 0.  1.
         -2   -1    0    0    0  501 -0.00000000000E+00 -0.00000000000E+00 -0.26277772905E+03  0.26277772905E+03  0.00000000000E+00 0. -1.
          5    1    1    2  502    0 -0.46395643176E+02 -0.19837971050E+02 -0.34424394653E+02  0.61225910759E+02  0.41800000000E+01 0.  1.
         -5    1    1    2    0  502  0.72550744071E+02  0.15489612432E+02 -0.96408833197E+02  0.12171965362E+03  0.41800000000E+01 0.  1.
        -11    1    1    2    0    0 -0.12174893296E+02  0.28555902962E+02 -0.92609447038E+02  0.97673831201E+02  0.00000000000E+00 0. -1.
         11    1    1    2    0    0 -0.13980207599E+02 -0.24207544343E+02  0.74321856941E+01  0.28925573319E+02  0.00000000000E+00 0.  1.
</event>
<event>
 6    1  0.6597032E-006  0.1178222E+03  0.7561462E-02  0.1246734E+00
          2   -1    0    0  501    0  0.00000000000E+00  0.00000000000E+00  0.10616514974E+04  0.10616514974E+04  0.00000000000E+00 0. -1.
         -2   -1    0    0    0  501 -0.00000000000E+00 -0.00000000000E+00 -0.14642668013E+02  0.14642668013E+02  0.00000000000E+00 0.  1.
          5    1    1    2  502    0  0.80135775166E+02 -0.51285611850E+02  0.50166770575E+03  0.51062698307E+03  0.41800000000E+01 0.  1.
         -5    1    1    2    0  502 -0.37762689132E+02  0.54099694586E+01  0.10100873469E+03  0.10805334490E+03  0.41800000000E+01 0.  1.
        -11    1    1    2    0    0 -0.26042641602E+02 -0.20836553559E+02  0.76957483978E+02  0.83873926140E+02  0.00000000000E+00 0.  1.
         11    1    1    2    0    0 -0.16330444433E+02  0.66712195950E+02  0.36737490501E+03  0.37373991135E+03  0.00000000000E+00 0. -1.
</event>
<event>
 6    1  0.6597032E-006  0.8750969E+02  0.7561462E-02  0.1308997E+00
         -1   -1    0    0    0  501 -0.00000000000E+00  0.00000000000E+00  0.30992293464E+03  0.30992293464E+03  0.00000000000E+00 0.  1.
          1   -1    0    0  501    0  0.00000000000E+00 -0.00000000000E+00 -0.48636231174E+02  0.48636231174E+02  0.00000000000E+00 0. -1.
          5    1    1    2  502    0  0.57998765930E+02 -0.37420573420E+02  0.55722502222E+02  0.88806676654E+02  0.41800000000E+01 0. -1.
         -5    1    1    2    0  502 -0.21552574664E+02  0.28902097060E+02  0.15416319371E+03  0.15837805209E+03  0.41800000000E+01 0. -1.
        -11    1    1    2    0    0 -0.18863427192E+02  0.33843136643E+02  0.66562616364E+02  0.77017976346E+02  0.00000000000E+00 0.  1.
         11    1    1    2    0    0 -0.17582764073E+02 -0.25324660283E+02 -0.15161608832E+02  0.34356460721E+02  0.00000000000E+00 0. -1.
</event>
<event>
 6    1  0.6597032E-006  0.1090218E+03  0.7561462E-02  0.1262392E+00
          2   -1    0    0  501    0  0.00000000000E+00  0.00000000000E+00  0.25797460651E+03  0.25797460651E+03  0.00000000000E+00 0. -1.
         -2   -1    0    0    0  501 -0.00000000000E+00 -0.00000000000E+00 -0.49621601125E+02  0.49621601125E+02  0.00000000000E+00 0.  1.
          5    1    1    2  502    0 -0.34446259639E+01  0.74634615781E+02  0.49311273822E+02  0.89617327827E+02  0.41800000000E+01 0. -1.
         -5    1    1    2    0  502 -0.20061771385E+01 -0.51873594001E+02  0.44154439225E+02  0.68278703887E+02  0.41800000000E+01 0. -1.
        -11    1    1    2    0    0  0.43493635941E+02  0.53622732530E+01  0.78920879927E+02  0.90271566012E+02  0.00000000000E+00 0. -1.
         11    1    1    2    0    0 -0.38042832839E+02 -0.28123295033E+02  0.35966412408E+02  0.59428609906E+02  0.00000000000E+00 0.  1.
</event>
<event>
 6    1  0.6597032E-006  0.6423312E+02  0.7561462E-02  0.1380880E+00
         -2   -1    0    0    0  501 -0.00000000000E+00  0.00000000000E+00  0.15639006296E+03  0.15639006296E+03  0.00000000000E+00 0. -1.
          2   -1    0    0  501    0  0.00000000000E+00 -0.00000000000E+00 -0.86902725136E+02  0.86902725136E+02  0.00000000000E+00 0.  1.
          5    1    1    2  502    0  0.35201966132E+02 -0.28283547769E+02  0.94481633004E+02  0.10480166444E+03  0.41800000000E+01 0.  1.
         -5    1    1    2    0  502 -0.19074965031E+01  0.75964977852E+01 -0.37210743242E+02  0.38255158268E+02  0.41800000000E+01 0.  1.
        -11    1    1    2    0    0 -0.47658958005E+02  0.30733696123E+02 -0.22765264712E+02  0.61108048839E+02  0.00000000000E+00 0.  1.
         11    1    1    2    0    0  0.14364488376E+02 -0.10046646140E+02  0.34981712777E+02  0.39127916552E+02  0.00000000000E+00 0. -1.
</event>
<event>
 6    1  0.6597032E-006  0.1007849E+03  0.7561462E-02  0.1278654E+00
         -4   -1    0    0    0  501 -0.00000000000E+00  0.00000000000E+00  0.46345644801E+03  0.46345644801E+03  0.00000000000E+00 0.  1.
          4   -1    0    0  501    0  0.00000000000E+00 -0.00000000000E+00 -0.29709238914E+02  0.29709238914E+02  0.00000000000E+00 0. -1.
          5    1    1    2  502    0 -0.46725474634E+02 -0.90709937679E+01  0.20398801373E+03  0.20950927200E+03  0.41800000000E+01 0.  1.
         -5    1    1    2    0  502  0.56499610935E+02 -0.36576367127E+02  0.82423008493E+02  0.10649441956E+03  0.41800000000E+01 0.  1.
        -11    1    1    2    0    0  0.31763218134E+02  0.19466260789E+02  0.23752100824E+02  0.44181439868E+02  0.00000000000E+00 0. -1.
         11    1    1    2    0    0 -0.41537354435E+02  0.26181100106E+02  0.12358408605E+03  0.13298055550E+03  0.00000000000E+00 0.  1.
</event>
<event>
 6    1  0.6597032E-006  0.6285137E+02  0.7561462E-02  0.1386241E+00
          3   -1    0    0  501    0  0.00000000000E+00  0.00000000000E+00  0.61963286954E+02  0.61963286954E+02  0.00000000000E+00 0. -1.
         -3   -1    0    0    0  501 -0.00000000000E+00 -0.00000000000E+00 -0.28255336765E+03  0.28255336765E+03  0.00000000000E+00 0.  1.
          5    1    1    2  502    0  0.44612337166E+02 -0.37209275509E+02 -0.11368929473E+02  0.59342360660E+02  0.41800000000E+01 0. -1.
         -5    1    1    2    0  502  0.32832378137E+01 -0.17234185464E+01 -0.16698806908E+03  0.16708152931E+03  0.41800000000E+01 0. -1.
        -11    1    1    2    0    0 -0.35012341980E+02  0.25939158035E+02  0.23745363392E+02  0.49624049544E+02  0.00000000000E+00 0. -1.
         11    1    1    2    0    0 -0.12883233000E+02  0.12993536020E+02 -0.65978445528E+02  0.68468715083E+02  0.00000000000E+00 0.  1.
</event>
<event>
 6    1  0.6597032E-006  0.8218827E+02  0.7561462E-02  0.1322954E+00
          1   -1    0    0  501    0  0.00000000000E+00  0.00000000000E+00  0.97305741807E+02  0.97305741807E+02  0.00000000000E+00 0. -1.
         -1   -1    0    0    0  501 -0.00000000000E+00 -0.00000000000E+00 -0.14732712138E+03  0.14732712138E+03  0.00000000000E+00 0.  1.
          5    1    1    2  502    0 -0.26594599018E+02  0.17430728423E+02  0.25840708717E+02  0.41186376598E+02  0.41800000000E+01 0.  1.
         -5    1    1    2    0  502  0.37554322619E+02  0.97569934066E+01 -0.99571216956E+02  0.10694590087E+03  0.41800000000E+01 0.  1.
        -11    1    1    2    0    0 -0.38806397154E+01 -0.59790871533E+02  0.18678500311E+02  0.62760609120E+02  0.00000000000E+00 0.  1.
         11    1    1    2    0    0 -0.70790838856E+01  0.32603149703E+02  0.50306283526E+01  0.33739976598E+02  0.00000000000E+00 0. -1.
</event>
<event>
 6    1  0.6597032E-006  0.1351567E+03  0.7561462E-02  0.1219999E+00
          2   -1    0    0  501    0  0.00000000000E+00  0.00000000000E+00  0.64013094747E+03  0.64013094747E+03  0.00000000000E+00 0.  1.
         -2   -1    0    0    0  501 -0.00000000000E+00 -0.00000000000E+00 -0.32842346306E+02  0.32842346306E+02  0.00000000000E+00 0. -1.
          5    1    1    2  502    0  0.43920533106E+02  0.59395761427E+02  0.74833837867E+02  0.10523519085E+03  0.41800000000E+01 0. -1.
         -5    1    1    2    0  502  0.47381046392E+02 -0.45127238817E+02  0.20098863997E+03  0.21141271731E+03  0.41800000000E+01 0. -1.
        -11    1    1    2    0    0 -0.55285697428E+01  0.32566005591E+02  0.84263430834E+02  0.90506549926E+02  0.00000000000E+00 0. -1.
         11    1    1    2    0    0 -0.85773009755E+02 -0.46834528201E+02  0.24720269249E+03  0.26581883569E+03  0.00000000000E+00 0.  1.
</event>
<event>
 6    1  0.6597032E-006  0.8234601E+02  0.7561462E-02  0.1322523E+00
          2   -1    0    0  501    0  0.00000000000E+00  0.00000000000E+00  0.14279686874E+03  0.14279686874E+03  0.00000000000E+00 0. -1.
         -2   -1    0    0    0  501 -0.00000000000E+00 -0.00000000000E+00 -0.18646970708E+03  0.18646970708E+03  0.00000000000E+00 0.  1.
          5    1    1    2  502    0 -0.21170630429E+02 -0.15424779149E+02 -0.13908480436E+03  0.14159157676E+03  0.41800000000E+01 0.  1.
         -5    1    1    2    0  502  0.51708313215E+02 -0.13131356143E+02 -0.50001070676E+01  0.53746215127E+02  0.41800000000E+01 0.  1.
        -11    1    1    2    0    0  0.22759370820E+02 -0.26171667648E+01  0.47008110239E+02  0.52293412111E+02  0.00000000000E+00 0. -1.
         11    1    1    2    0    0 -0.53297053607E+02  0.31173302057E+02  0.53403962854E+02  0.81635371824E+02  0.00000000000E+00 0.  1.
</event>
<event>
 6    1  0.6597032E-006  0.1162531E+03  0.7561462E-02  0.1249409E+00
         -2   -1    0    0    0  501 -0.00000000000E+00  0.00000000000E+00  0.18636117360E+03  0.18636117360E+03  0.00000000000E+00 0.  1.
          2   -1    0    0  501    0  0.00000000000E+00 -0.00000000000E+00 -0.11016083166E+03  0.11016083166E+03  0.00000000000E+00 0. -1.
          5    1    1    2  502    0 -0.34880531151E+02 -0.33037165730E+02  0.64945490431E+02  0.80891871656E+02  0.41800000000E+01 0.  1.
         -5    1    1    2    0  502 -0.35307252140E+02  0.81826911360E+02  0.15172577246E+02  0.90498204273E+02  0.41800000000E+01 0.  1.
        -11    1    1    2    0    0  0.51208584511E+02 -0.54948715230E+02  0.33873891345E+02  0.82396122166E+02  0.00000000000E+00 0.  1.
         11    1    1    2    0    0  0.18979198780E+02  0.61589695993E+01 -0.37791617084E+02  0.42735807172E+02  0.00000000000E+00 0. -1.
</event>
<event>
 6    1  0.6597032E-006  0.8993599E+02  0.7561462E-02  0.1303007E+00
          1   -1    0    0  501    0  0.00000000000E+00  0.00000000000E+00  0.51704528231E+02  0.51704528231E+02  0.00000000000E+00 0. -1.
         -1   -1    0    0    0  501 -0.00000000000E+00 -0.00000000000E+00 -0.23989530656E+03  0.23989530656E+03  0.00000000000E+00 0.  1.
          5    1    1    2  502    0  0.30215623999E+02  0.47494369644E+01 -0.10590645189E+03  0.11031405185E+03  0.41800000000E+01 0.  1.
         -5    1    1    2    0  502 -0.52049103199E+02 -0.21954597614E+02 -0.11665965752E+01  0.56656392824E+02  0.41800000000E+01 0.  1.
        -11    1    1    2    0    0  0.23231521850E+02 -0.33974532213E+02 -0.22894346089E+02  0.47096958813E+02  0.00000000000E+00 0. -1.
         11    1    1    2    0    0 -0.13980426491E+01  0.51179692863E+02 -0.58223383777E+02  0.77532431300E+02  0.00000000000E+00 0.  1.
</event>
<event>
 6    1  0.6597032E-006  0.8860198E+02  0.7561462E-02  0.1306273E+00
          2   -1    0    0  501    0  0.00000000000E+00  0.00000000000E+00  0.27870719430E+03  0.27870719430E+03  0.00000000000E+00 0. -1.
         -2   -1    0    0    0  501 -0.00000000000E+00 -0.00000000000E+00 -0.53068588748E+02  0.53068588748E+02  0.00000000000E+00 0.  1.
          5    1    1    2  502    0 -0.41953757993E+02 -0.29514599483E+02  0.43506041042E+02  0.67390484488E+02  0.41800000000E+01 0. -1.
         -5    1    1    2    0  502  0.64119860691E+02  0.14437631887E+02  0.79178047069E+01  0.66332237870E+02  0.41800000000E+01 0.  1.
        -11    1    1    2    0    0  0.10220449983E+02 -0.13332553113E+02 -0.17510652409E+01  0.16890257542E+02  0.00000000000E+00 0.  1.
         11    1    1    2    0    0 -0.32386552681E+02  0.28409520709E+02  0.17596582504E+03  0.18116280315E+03  0.00000000000E+00 0. -1.
</event>
<event>
 6    1  0.6597032E-006  0.1300475E+03  0.7561462E-02  0.1227385E+00
          1   -1    0    0  501    0  0.00000000000E+00  0.00000000000E+00  0.14687078307E+03  0.14687078307E+03  0.00000000000E+00 0. -1.
         -1   -1    0    0    0  501 -0.00000000000E+00 -0.00000000000E+00 -0.15161680922E+03  0.15161680922E+03  0.00000000000E+00 0.  1.
          5    1    1    2  502    0 -0.15412064202E+02  0.18239952815E+02 -0.43848389688E+02  0.50103705251E+02  0.41800000000E+01 0. -1.
         -5    1    1    2    0  502  0.77097352292E+02 -0.80733998700E+02 -0.10913779015E+02  0.11224332162E+03  0.41800000000E+01 0. -1.
        -11    1    1    2    0    0 -0.31215000357E+02  0.82150171858E+02  0.47243241879E+02  0.99774500183E+02  0.00000000000E+00 0.  1.
         11    1    1    2    0    0 -0.30470287733E+02 -0.19656125973E+02  0.27729006747E+01  0.36366065239E+02  0.00000000000E+00 0. -1.
</event>
<event>
 6    1  0.6597032E-006  0.1636065E+03  0.7561462E-02  0.1184684E+00
          1   -1    0    0  501    0  0.00000000000E+00  0.00000000000E+00  0.18207317018E+03  0.18207317018E+03  0.00000000000E+00 0. -1.
         -1   -1    0    0    0  501 -0.00000000000E+00 -0.00000000000E+00 -0.20628127461E+03  0.20628127461E+03  0.00000000000E+00 0.  1.
          5    1    1    2  502    0 -0.12207260872E+03  0.33465582504E+02  0.25388818647E+02  0.12916551987E+03  0.41800000000E+01 0.  1.
         -5    1    1    2    0  502 -0.28315110177E+02  0.77734637109E+01 -0.69488495922E+02  0.75553263781E+02  0.41800000000E+01 0.  1.
        -11    1    1    2    0    0  0.53183030547E+02 -0.50402996379E+02 -0.23278752472E+02  0.76881708480E+02  0.00000000000E+00 0.  1.
         11    1    1    2    0    0  0.97204688347E+02  0.91639501638E+01  0.43170325313E+02  0.10675395265E+03  0.00000000000E+00 0. -1.
</event>
<event>
 6    1  0.6733867E-006  0.1160591E+03  0.7561462E-02  0.1249744E+00
         -2   -1    0    0    0  501 -0.00000000000E+00  0.00000000000E+00  0.24766415835E+02  0.24766415835E+02  0.00000000000E+00 0.  1.
          2   -1    0    0  501    0  0.00000000000E+00 -0.00000000000E+00 -0.90898082801E+03  0.90898082801E+03  0.00000000000E+00 0. -1.
          5    1    1    2  502    0 -0.41474642663E+02  0.36422984916E+02 -0.49589095258E+02  0.74319113172E+02  0.41800000000E+01 0.  1.
         -5    1    1    2    0  502 -0.20444502361E+02  0.37477091968E+02 -0.39821667629E+03  0.40052029134E+03  0.41800000000E+01 0.  1.
        -11    1    1    2    0    0  0.13395279413E+02 -0.83360587951E+02 -0.19506860393E+03  0.21255630166E+03  0.00000000000E+00 0.  1.
         11    1    1    2    0    0  0.48523865611E+02  0.94605110677E+01 -0.24134003669E+03  0.24635153767E+03  0.00000000000E+00 0. -1.
</event>
<event>
 6    1  0.6597032E-006  0.1815263E+03  0.7561462E-02  0.1166334E+00
         -1   -1    0    0    0  501 -0.00000000000E+00  0.00000000000E+00  0.81862571048E+02  0.81862571048E+02  0.00000000000E+00 0.  1.
          1   -1    0    0  501    0  0.00000000000E+00 -0.00000000000E+00 -0.60540472383E+03  0.60540472383E+03  0.00000000000E+00 0. -1.
          5    1    1    2  502    0  0.20765074017E+02  0.81573378275E+02 -0.12403921095E+03  0.14996200384E+03  0.41800000000E+01 0. -1.
         -5    1    1    2    0  502  0.10800696915E+03 -0.28315791195E+02 -0.84394719931E+01  0.11205349840E+03  0.41800000000E+01 0.  1.
        -11    1    1    2    0    0 -0.59532915441E+02  0.23196028474E+02 -0.15274050205E+03  0.16556534881E+03  0.00000000000E+00 0. -1.
         11    1    1    2    0    0 -0.69239127722E+02 -0.76453615554E+02 -0.23832296779E+03  0.25968644384E+03  0.00000000000E+00 0.  1.
</event>
<event>
 6    1  0.6597032E-006  0.1138057E+03  0.7561462E-02  0.1253680E+00
          2   -1    0    0  501    0  0.00000000000E+00  0.00000000000E+00  0.78341930749E+02  0.78341930749E+02  0.00000000000E+00 0. -1.
         -2   -1    0    0    0  501 -0.00000000000E+00 -0.00000000000E+00 -0.27011803440E+03  0.27011803440E+03  0.00000000000E+00 0.  1.
          5    1    1    2  502    0  0.97760143781E+02  0.15666792296E+02 -0.12553363191E+03  0.15993329620E+03  0.41800000000E+01 0.  1.
         -5    1    1    2    0  502 -0.11584548311E+02  0.28821414565E+02  0.13358931643E+02  0.34070649418E+02  0.41800000000E+01 0.  1.
        -11    1    1    2    0    0 -0.45049418872E+02 -0.26679276732E+02 -0.93818058529E+02  0.10743864321E+03  0.00000000000E+00 0.  1.
         11    1    1    2    0    0 -0.41126176598E+02 -0.17808930128E+02  0.14216655138E+02  0.47017376332E+02  0.00000000000E+00 0. -1.
</event>
<event>
 6    1  0.6597032E-006  0.1427003E+03  0.7561462E-02  0.1209741E+00
          3   -1    0    0  501    0  0.00000000000E+00  0.00000000000E+00  0.43655576917E+02  0.43655576917E+02  0.00000000000E+00 0. -1.
         -3   -1    0    0    0  501 -0.00000000000E+00 -0.00000000000E+00 -0.57034761808E+03  0.57034761808E+03  0.00000000000E+00 0.  1.
          5    1    1    2  502    0  0.11862840452E+02  0.53243327778E+02 -0.78919780828E+02  0.96028033107E+02  0.41800000000E+01 0. -1.
         -5    1    1    2    0  502  0.86498562076E+02 -0.40444725721E+02 -0.30948132472E+03  0.32390421398E+03  0.41800000000E+01 0. -1.
        -11    1    1    2    0    0 -0.85553265598E+02  0.29828030438E+02 -0.81081819621E+02  0.12158673500E+03  0.00000000000E+00 0. -1.
         11    1    1    2    0    0 -0.12808136931E+02 -0.42626632495E+02 -0.57209115988E+02  0.72484212914E+02  0.00000000000E+00 0.  1.
</event>
<event>
 6    1  0.1720317E-005  0.2174020E+03  0.7561462E-02  0.1135835E+00
          2   -1    0    0  501    0  0.00000000000E+00  0.00000000000E+00  0.13806594079E+04  0.13806594079E+04  0.00000000000E+00 0. -1.
         -2   -1    0    0    0  501 -0.00000000000E+00 -0.00000000000E+00 -0.48770394442E+02  0.48770394442E+02  0.00000000000E+00 0.  1.
          5    1    1    2  502    0  0.20001595759E+03 -0.15748167729E+02  0.38088231572E+03  0.43051503912E+03  0.41800000000E+01 0.  1.
         -5    1    1    2    0  502  0.88493387697E+01  0.23134516479E+02  0.46997304325E+01  0.25555361776E+02  0.41800000000E+01 0.  1.
        -11    1    1    2    0    0 -0.13565586155E+03 -0.57813288852E+01  0.77877631005E+03  0.79052417903E+03  0.00000000000E+00 0. -1.
         11    1    1    2    0    0 -0.73209434815E+02 -0.16050198642E+01  0.16753065721E+03  0.18283522237E+03  0.00000000000E+00 0.  1.
</event>
<event>
 6    1  0.6597032E-006  0.7478111E+02  0.7561462E-02  0.1344550E+00
         -1   -1    0    0    0  501 -0.00000000000E+00  0.00000000000E+00  0.92525823606E+02  0.92525823606E+02  0.00000000000E+00 0.  1.
          1   -1    0    0  501    0  0.00000000000E+00 -0.00000000000E+00 -0.13587814332E+03  0.13587814332E+03  0.00000000000E+00 0. -1.
          5    1    1    2  502    0  0.22266732629E+02  0.15016747439E+02  0.40314968290E+02  0.48621797107E+02  0.41800000000E+01 0.  1.
         -5    1    1    2    0  502 -0.22944667976E+02 -0.46288551518E+02 -0.64203088029E+02  0.82514221214E+02  0.41800000000E+01 0.  1.
        -11    1    1    2    0    0 -0.27151080822E+02  0.32919692654E+02 -0.43150408019E+02  0.60686448788E+02  0.00000000000E+00 0. -1.
         11    1    1    2    0    0  0.27829016169E+02 -0.16478885746E+01  0.23686208041E+02  0.36581499819E+02  0.00000000000E+00 0.  1.
</event>
<event>
 6    1  0.6597032E-006  0.1289931E+03  0.7561462E-02  0.1228957E+00
         -2   -1    0    0    0  501 -0.00000000000E+00  0.00000000000E+00  0.27719839995E+02  0.27719839995E+02  0.00000000000E+00 0.  1.
          2   -1    0    0  501    0  0.00000000000E+00 -0.00000000000E+00 -0.80969095249E+03  0.80969095249E+03  0.00000000000E+00 0. -1.
          5    1    1    2  502    0  0.99198772220E+01 -0.76318689036E+02 -0.24736994384E+03  0.25909903083E+03  0.41800000000E+01 0. -1.
         -5    1    1    2    0  502 -0.64430576642E+02 -0.23992199014E+01 -0.70252254069E+02  0.95445833143E+02  0.41800000000E+01 0. -1.
        -11    1    1    2    0    0 -0.13669580252E+02  0.28547608145E+02 -0.44742381358E+02  0.54806058467E+02  0.00000000000E+00 0.  1.
         11    1    1    2    0    0  0.68180279672E+02  0.50170300792E+02 -0.41960653323E+03  0.42805987005E+03  0.00000000000E+00 0. -1.
</event>
<event>
 6    1  0.6597032E-006  0.9432551E+02  0.7561462E-02  0.1292702E+00
          2   -1    0    0  501    0  0.00000000000E+00  0.00000000000E+00  0.20348514899E+02  0.20348514899E+02  0.00000000000E+00 0. -1.
         -2   -1    0    0    0  501 -0.00000000000E+00 -0.00000000000E+00 -0.69158626880E+03  0.69158626880E+03  0.00000000000E+00 0.  1.
          5    1    1    2  502    0  0.53083974530E+02 -0.46265069519E+02 -0.33799610926E+03  0.34527844891E+03  0.41800000000E+01 0. -1.
         -5    1    1    2    0  502 -0.40143515899E+02  0.92881096439E+01 -0.53999208199E+02  0.68052610057E+02  0.41800000000E+01 0. -1.
        -11    1    1    2    0    0  0.27052393814E+02  0.17434030579E+02 -0.25706009891E+02  0.41189517815E+02  0.00000000000E+00 0. -1.
         11    1    1    2    0    0 -0.39992852445E+02  0.19542929295E+02 -0.25353642655E+03  0.25741420691E+03  0.00000000000E+00 0.  1.
</event>
<event>
 6    1  0.6597032E-006  0.1283845E+03  0.7561462E-02  0.1229873E+00
          2   -1    0    0  501    0  0.00000000000E+00  0.00000000000E+00  0.19366486154E+03  0.19366486154E+03  0.00000000000E+00 0. -1.
         -2   -1    0    0    0  501 -0.00000000000E+00 -0.00000000000E+00 -0.95797407074E+02  0.95797407074E+02  0.00000000000E+00 0.  1.
          5    1    1    2  502    0  0.82955720565E+02 -0.26248979434E+02 -0.10959980354E+02  0.87796663178E+02  0.41800000000E+01 0.  1.
         -5    1    1    2    0  502 -0.38531185288E+02 -0.32772392424E+02  0.29365825728E+02  0.58638776126E+02  0.41800000000E+01 0.  1.
        -11    1    1    2    0    0 -0.36289373722E+02 -0.18653989809E+02  0.28488628989E+02  0.49764364384E+02  0.00000000000E+00 0.  1.
         11    1    1    2    0    0 -0.81351615545E+01  0.77675361667E+02  0.50972980106E+02  0.93262464928E+02  0.00000000000E+00 0. -1.
</event>
<event>
 6    1  0.6597032E-006  0.1498630E+03  0.7561462E-02  0.1200642E+00
          2   -1    0    0  501    0  0.00000000000E+00  0.00000000000E+00  0.28803100650E+02  0.28803100650E+02  0.00000000000E+00 0. -1.
         -2   -1    0    0    0  501 -0.00000000000E+00 -0.00000000000E+00 -0.11864902710E+04  0.11864902710E+04  0.00000000000E+00 0.  1.
          5    1    1    2  502    0 -0.11953781735E+03  0.71259984013E+02 -0.54962919948E+03  0.56698942179E+03  0.41800000000E+01 0. -1.
         -5    1    1    2    0  502  0.21634447140E+02 -0.41607096816E+02 -0.37789939842E+03  0.38082099146E+03  0.41800000000E+01 0.  1.
        -11    1    1    2    0    0  0.70485197655E+02 -0.43367718750E+02 -0.83162359209E+02  0.11732391106E+03  0.00000000000E+00 0. -1.
         11    1    1    2    0    0  0.27418172559E+02  0.13714831553E+02 -0.14699621327E+03  0.15015904736E+03  0.00000000000E+00 0.  1.
</event>
<event>
 6    1  0.6597032E-006  0.5865190E+02  0.7561462E-02  0.1403578E+00
         -3   -1    0    0    0  501 -0.00000000000E+00  0.00000000000E+00  0.66360678566E+02  0.66360678566E+02  0.00000000000E+00 0.  1.
          3   -1    0    0  501    0  0.00000000000E+00 -0.00000000000E+00 -0.24522723061E+03  0.24522723061E+03  0.00000000000E+00 0. -1.
          5    1    1    2  502    0 -0.12246952488E+02  0.11298918880E+02  0.50557298248E+02  0.53396312787E+02  0.41800000000E+01 0. -1.
         -5    1    1    2    0  502  0.20302047294E+02  0.64547534489E+01 -0.71754068295E+02  0.74966363679E+02  0.41800000000E+01 0. -1.
        -11    1    1    2    0    0 -0.22609308072E+01 -0.47780594728E+02 -0.42244743989E+02  0.63817830074E+02  0.00000000000E+00 0.  1.
         11    1    1    2    0    0 -0.57941639981E+01  0.30026922399E+02 -0.11542503801E+03  0.11940740264E+03  0.00000000000E+00 0. -1.
</event>
<event>
 6    1  0.6597032E-006  0.9782280E+02  0.7561462E-02  0.1284942E+00
         -2   -1    0    0    0  501 -0.00000000000E+00  0.00000000000E+00  0.31729934853E+02  0.31729934853E+02  0.00000000000E+00 0.  1.
          2   -1    0    0  501    0  0.00000000000E+00 -0.00000000000E+00 -0.41830120741E+03  0.41830120741E+03  0.00000000000E+00 0. -1.
          5    1    1    2  502    0 -0.38832553146E+02  0.29553295057E+02 -0.12613091294E+03  0.13530648185E+03  0.41800000000E+01 0. -1.
         -5    1    1    2    0  502  0.40808990856E+02 -0.35946394835E+02 -0.22309429534E+02  0.58929619737E+02  0.41800000000E+01 0. -1.
        -11    1    1    2    0    0 -0.59985835572E+01  0.48980929457E+02 -0.10625796747E+03  0.11715745860E+03  0.00000000000E+00 0.  1.
         11    1    1    2    0    0  0.40221458474E+01 -0.42587829680E+02 -0.13187296262E+03  0.13863758207E+03  0.00000000000E+00 0. -1.
</event>
<event>
 6    1  0.6597032E-006  0.1810662E+03  0.7561462E-02  0.1166775E+00
         -2   -1    0    0    0  501 -0.00000000000E+00  0.00000000000E+00  0.79936338318E+02  0.79936338318E+02  0.00000000000E+00 0.  1.
          2   -1    0    0  501    0  0.00000000000E+00 -0.00000000000E+00 -0.58449976478E+03  0.58449976478E+03  0.00000000000E+00 0. -1.
          5    1    1    2  502    0  0.12318594567E+02  0.13327716346E+02  0.15891339458E+02  0.24482296969E+02  0.41800000000E+01 0. -1.
         -5    1    1    2    0  502 -0.13864892837E+03  0.85584439989E+02 -0.13208551166E+03  0.20979103054E+03  0.41800000000E+01 0. -1.
        -11    1    1    2    0    0  0.73333714210E+02 -0.10402571667E+03 -0.31296791709E+03  0.33785810704E+03  0.00000000000E+00 0. -1.
         11    1    1    2    0    0  0.52996619591E+02  0.51135603386E+01 -0.75401337170E+02  0.92304668540E+02  0.00000000000E+00 0.  1.
</event>
<event>
 6    1  0.6597032E-006  0.1028037E+03  0.7561462E-02  0.1274508E+00
          2   -1    0    0  501    0  0.00000000000E+00  0.00000000000E+00  0.33537761677E+03  0.33537761677E+03  0.00000000000E+00 0. -1.
         -2   -1    0    0    0  501 -0.00000000000E+00 -0.00000000000E+00 -0.48522246893E+02  0.48522246893E+02  0.00000000000E+00 0.  1.
          5    1    1    2  502    0 -0.22394512127E+02  0.30716909339E+02  0.73156573944E+02  0.82549375552E+02  0.41800000000E+01 0.  1.
         -5    1    1    2    0  502  0.19159559383E+02 -0.84644156680E+02  0.45217754054E+02  0.97948147801E+02  0.41800000000E+01 0.  1.
        -11    1    1    2    0    0 -0.19451054760E+02  0.54415296127E+02  0.34056707675E+02  0.67076279872E+02  0.00000000000E+00 0.  1.
         11    1    1    2    0    0  0.22686007504E+02 -0.48804878551E+00  0.13442433420E+03  0.13632606043E+03  0.00000000000E+00 0. -1.
</event>
<event>
 6    1  0.6597032E-006  0.1215370E+03  0.7561462E-02  0.1240583E+00
          1   -1    0    0  501    0  0.00000000000E+00  0.00000000000E+00  0.17558407801E+02  0.17558407801E+02  0.00000000000E+00 0. -1.
         -1   -1    0    0    0  501 -0.00000000000E+00 -0.00000000000E+00 -0.10785695381E+04  0.10785695381E+04  0.00000000000E+00 0.  1.
          5    1    1    2  502    0 -0.31428115138E+02 -0.11054420197E+01 -0.36499785594E+03  0.36637392875E+03  0.41800000000E+01 0. -1.
         -5    1    1    2    0  502  0.96219358400E+02 -0.23805089297E+02 -0.42048570759E+03  0.43203072795E+03  0.41800000000E+01 0. -1.
        -11    1    1    2    0    0 -0.79519893718E+02  0.41713846708E+02 -0.20679477096E+03  0.22544963030E+03  0.00000000000E+00 0.  1.
         11    1    1    2    0    0  0.14728650456E+02 -0.16803315391E+02 -0.68732795814E+02  0.72273658914E+02  0.00000000000E+00 0. -1.
</event>
<event>
 6    1  0.6597032E-006  0.2607999E+03  0.7561462E-02  0.1106664E+00
          2   -1    0    0  501    0  0.00000000000E+00  0.00000000000E+00  0.47620180550E+03  0.47620180550E+03  0.00000000000E+00 0. -1.
         -2   -1    0    0    0  501 -0.00000000000E+00 -0.00000000000E+00 -0.15597092403E+03  0.15597092403E+03  0.00000000000E+00 0.  1.
          5    1    1    2  502    0 -0.14557687201E+02 -0.82408740712E+01 -0.13404186935E+02  0.21839937946E+02  0.41800000000E+01 0.  1.
         -5    1    1    2    0  502 -0.18458007148E+03  0.15881967015E+03  0.18592693544E+03  0.30639808768E+03  0.41800000000E+01 0.  1.
        -11    1    1    2    0    0  0.68541294933E+02 -0.98987339755E+02  0.97096756218E+02  0.15467444072E+03  0.00000000000E+00 0.  1.
         11    1    1    2    0    0  0.13059646375E+03 -0.51591456323E+02  0.50611376748E+02  0.14926026318E+03  0.00000000000E+00 0. -1.
</event>
<event>
 6    1  0.6597032E-006  0.7926896E+02  0.7561462E-02  0.1331139E+00
         -1   -1    0    0    0  501 -0.00000000000E+00  0.00000000000E+00  0.26999648952E+03  0.26999648952E+03  0.00000000000E+00 0.  1.
          1   -1    0    0  501    0  0.00000000000E+00 -0.00000000000E+00 -0.65655958968E+02  0.65655958968E+02  0.00000000000E+00 0. -1.
          5    1    1    2  502    0 -0.17679863614E+02  0.45757007256E+01  0.17418722067E+03  0.17519182304E+03  0.41800000000E+01 0.  1.
         -5    1    1    2    0  502  0.17812050717E+02 -0.51542552994E+02  0.15532854300E+02  0.56856361848E+02  0.41800000000E+01 0.  1.
        -11    1    1    2    0    0 -0.28933177389E+02 -0.12343805090E+01  0.33577031392E+02  0.44340382115E+02  0.00000000000E+00 0.  1.
         11    1    1    2    0    0  0.28800990285E+02  0.48201232777E+02 -0.18956575809E+02  0.59263881488E+02  0.00000000000E+00 0. -1.
</event>
<event>
 6    1  0.6597032E-006  0.1474384E+03  0.7561462E-02  0.1203656E+00
          2   -1    0    0  501    0  0.00000000000E+00  0.00000000000E+00  0.30536254211E+03  0.30536254211E+03  0.00000000000E+00 0. -1.
         -2   -1    0    0    0  501 -0.00000000000E+00 -0.00000000000E+00 -0.89391978745E+02  0.89391978745E+02  0.00000000000E+00 0.  1.
          5    1    1    2  502    0 -0.11783347383E+03  0.34882275450E+02  0.32244230543E+02  0.12711673178E+03  0.41800000000E+01 0.  1.
         -5    1    1    2    0  502 -0.39410460244E+01 -0.41136612143E+02  0.52772608826E+02  0.67157824151E+02  0.41800000000E+01 0.  1.
        -11    1    1    2    0    0  0.63220874211E+02  0.26326473695E+02  0.16627979614E+02  0.70473057683E+02  0.00000000000E+00 0.  1.
         11    1    1    2    0    0  0.58553645642E+02 -0.20072137002E+02  0.11432574438E+03  0.13000690724E+03  0.00000000000E+00 0. -1.
</event>
<event>
 6    1  0.6597032E-006  0.1719444E+03  0.7561462E-02  0.1175835E+00
         -1   -1    0    0    0  501 -0.00000000000E+00  0.00000000000E+00  0.21420903992E+02  0.21420903992E+02  0.00000000000E+00 0.  1.
          1   -1    0    0  501    0  0.00000000000E+00 -0.00000000000E+00 -0.15203842300E+04  0.15203842300E+04  0.00000000000E+00 0. -1.
          5    1    1    2  502    0 -0.21770926005E+02 -0.15084476856E+03 -0.72719182731E+03  0.74300305755E+03  0.41800000000E+01 0. -1.
         -5    1    1    2    0  502 -0.19075002337E+02  0.11763929685E+02 -0.28127574077E+02  0.36206057218E+02  0.41800000000E+01 0. -1.
        -11    1    1    2    0    0 -0.24484489150E+02  0.15902569311E+02 -0.14776541520E+03  0.15062204303E+03  0.00000000000E+00 0.  1.
         11    1    1    2    0    0  0.65330417491E+02  0.12317826956E+03 -0.59587850940E+03  0.61197397617E+03  0.00000000000E+00 0. -1.
</event>
<event>
 6    1  0.6597032E-006  0.1144851E+03  0.7561462E-02  0.1252483E+00
          2   -1    0    0  501    0  0.00000000000E+00  0.00000000000E+00  0.11535591646E+02  0.11535591646E+02  0.00000000000E+00 0.  1.
         -2   -1    0    0    0  501 -0.00000000000E+00 -0.00000000000E+00 -0.13088231801E+04  0.13088231801E+04  0.00000000000E+00 0. -1.
          5    1    1    2  502    0 -0.67455646430E+02  0.30317903914E+01 -0.63952213406E+03  0.64309057554E+03  0.41800000000E+01 0. -1.
         -5    1    1    2    0  502  0.38572971427E+02  0.41164925026E+02 -0.22351924413E+03  0.23056615118E+03  0.41800000000E+01 0. -1.
        -11    1    1    2    0    0 -0.32795159921E+02 -0.20506009623E+02 -0.15894414004E+03  0.16358257425E+03  0.00000000000E+00 0.  1.
         11    1    1    2    0    0  0.61677834924E+02 -0.23690705794E+02 -0.27530207023E+03  0.28311947078E+03  0.00000000000E+00 0. -1.
</event>
<event>
 6    1  0.6597032E-006  0.6457604E+02  0.7561462E-02  0.1379573E+00
         -2   -1    0    0    0  501 -0.00000000000E+00  0.00000000000E+00  0.38180971850E+02  0.38180971850E+02  0.00000000000E+00 0.  1.
          2   -1    0    0  501    0  0.00000000000E+00 -0.00000000000E+00 -0.13897891252E+03  0.13897891252E+03  0.00000000000E+00 0. -1.
          5    1    1    2  502    0 -0.45099742338E+01 -0.56124247597E+02 -0.76032067247E+02  0.94702791330E+02  0.41800000000E+01 0. -1.
         -5    1    1    2    0  502  0.78622189947E+01  0.47964367140E+02 -0.15608319816E+01  0.48808847550E+02  0.41800000000E+01 0.  1.
        -11    1    1    2    0    0  0.94052669209E+01  0.54354251563E+01 -0.13818246555E+02  0.17576883408E+02  0.00000000000E+00 0. -1.
         11    1    1    2    0    0 -0.12757511682E+02  0.27244553002E+01 -0.93867948909E+01  0.16071362087E+02  0.00000000000E+00 0.  1.
</event>
<event>
 6    1  0.6597032E-006  0.1543383E+03  0.7561462E-02  0.1195241E+00
         -2   -1    0    0    0  501 -0.00000000000E+00  0.00000000000E+00  0.79068200930E+02  0.79068200930E+02  0.00000000000E+00 0.  1.
          2   -1    0    0  501    0  0.00000000000E+00 -0.00000000000E+00 -0.31584241227E+03  0.31584241227E+03  0.00000000000E+00 0. -1.
          5    1    1    2  502    0 -0.83320026814E+02 -0.81699600948E+02 -0.73602597138E+02  0.13802849839E+03  0.41800000000E+01 0.  1.
         -5    1    1    2    0  502  0.43702267428E+02 -0.21847761256E+02 -0.15743815957E+02  0.51502941577E+02  0.41800000000E+01 0.  1.
        -11    1    1    2    0    0  0.26634615500E+02  0.11942665397E+03 -0.12327027885E+03  0.17368848571E+03  0.00000000000E+00 0.  1.
         11    1    1    2    0    0  0.12983143886E+02 -0.15879291764E+02 -0.24157519397E+02  0.31690687520E+02  0.00000000000E+00 0. -1.
</event>
<event>
 6    1  0.6597032E-006  0.1289036E+03  0.7561462E-02  0.1229092E+00
         -2   -1    0    0    0  501 -0.00000000000E+00  0.00000000000E+00  0.89688525379E+02  0.89688525379E+02  0.00000000000E+00 0.  1.
          2   -1    0    0  501    0  0.00000000000E+00 -0.00000000000E+00 -0.23899232562E+03  0.23899232562E+03  0.00000000000E+00 0. -1.
          5    1    1    2  502    0 -0.26290445186E+02  0.56162442549E+02 -0.33746994569E+02  0.70722977197E+02  0.41800000000E+01 0. -1.
         -5    1    1    2    0  502 -0.59164929852E+02 -0.58150891043E+02  0.61010625290E+01  0.83286916244E+02  0.41800000000E+01 0. -1.
        -11    1    1    2    0    0  0.34888636928E+02  0.37179046950E+02 -0.17965290698E+02  0.54057841140E+02  0.00000000000E+00 0.  1.
         11    1    1    2    0    0  0.50566738110E+02 -0.35190598456E+02 -0.10369257750E+03  0.12061311642E+03  0.00000000000E+00 0. -1.
</event>
<event>
 6    1  0.6597032E-006  0.9377495E+02  0.7561462E-02  0.1293959E+00
          1   -1    0    0  501    0  0.00000000000E+00  0.00000000000E+00  0.16381475851E+03  0.16381475851E+03  0.00000000000E+00 0. -1.
         -1   -1    0    0    0  501 -0.00000000000E+00 -0.00000000000E+00 -0.10734185453E+03  0.10734185453E+03  0.00000000000E+00 0.  1.
          5    1    1    2  502    0 -0.27141642742E+02  0.78506340522E+02 -0.41335799351E+02  0.92876450088E+02  0.41800000000E+01 0. -1.
         -5    1    1    2    0  502 -0.14657960628E+02 -0.20375455803E+02  0.44533698843E+02  0.51290717889E+02  0.41800000000E+01 0. -1.
        -11    1    1    2    0    0  0.85060386758E+01 -0.40255859856E+02  0.73422777479E+02  0.84165261239E+02  0.00000000000E+00 0. -1.
         11    1    1    2    0    0  0.33293564695E+02 -0.17875024864E+02 -0.20147772991E+02  0.42824183827E+02  0.00000000000E+00 0.  1.
</event>
<event>
 6    1  0.6597032E-006  0.1497619E+03  0.7561462E-02  0.1200766E+00
          2   -1    0    0  501    0  0.00000000000E+00  0.00000000000E+00  0.44069902457E+03  0.44069902457E+03  0.00000000000E+00 0. -1.
         -2   -1    0    0    0  501 -0.00000000000E+00 -0.00000000000E+00 -0.64693171913E+02  0.64693171913E+02  0.00000000000E+00 0.  1.
          5    1    1    2  502    0  0.29966057748E+02 -0.16340597371E+02  0.57148885299E+02  0.66696680805E+02  0.41800000000E+01 0. -1.
         -5    1    1    2    0  502  0.34896455181E+01  0.13692220232E+03  0.95974550162E+02  0.16729750086E+03  0.41800000000E+01 0. -1.
        -11    1    1    2    0    0 -0.14612665070E+02 -0.96142670420E+02  0.82087308923E+02  0.12726063548E+03  0.00000000000E+00 0.  1.
         11    1    1    2    0    0 -0.18843038196E+02 -0.24438934533E+02  0.14079510827E+03  0.14413737934E+03  0.00000000000E+00 0. -1.
</event>
<event>
 6    1  0.6597032E-006  0.1074812E+03  0.7561462E-02  0.1265307E+00
          1   -1    0    0  501    0  0.00000000000E+00  0.00000000000E+00  0.18057283772E+03  0.18057283772E+03  0.00000000000E+00 0. -1.
         -1   -1    0    0    0  501 -0.00000000000E+00 -0.00000000000E+00 -0.10771367892E+03  0.10771367892E+03  0.00000000000E+00 0.  1.
          5    1    1    2  502    0  0.29084616990E+00  0.22475056142E+02  0.72165215638E+02  0.75700089089E+02  0.41800000000E+01 0.  1.
         -5    1    1    2    0  502  0.37073345634E+02  0.56522783903E+02 -0.42213322120E+02  0.79804104036E+02  0.41800000000E+01 0.  1.
        -11    1    1    2    0    0 -0.56566986931E+02 -0.16397931275E+02  0.10887714292E+02  0.59893726575E+02  0.00000000000E+00 0. -1.
         11    1    1    2    0    0  0.19202795127E+02 -0.62599908770E+02  0.32019550994E+02  0.72888596945E+02  0.00000000000E+00 0.  1.
</event>
<event>
 6    1  0.6597032E-006  0.3080996E+03  0.7561462E-02  0.1081260E+00
          2   -1    0    0  501    0  0.00000000000E+00  0.00000000000E+00  0.14754718470E+04  0.14754718470E+04  0.00000000000E+00 0. -1.
         -2   -1    0    0    0  501 -0.00000000000E+00 -0.00000000000E+00 -0.84092823530E+02  0.84092823530E+02  0.00000000000E+00 0.  1.
          5    1    1    2  502    0  0.77590323503E+02 -0.28135835099E+03  0.36157458559E+03  0.46468960965E+03  0.41800000000E+01 0. -1.
         -5    1    1    2    0  502 -0.22320750094E+02 -0.12071293051E+02  0.86976457731E+01  0.27148728196E+02  0.41800000000E+01 0. -1.
        -11    1    1    2    0    0 -0.34337982076E+02  0.18442484235E+03  0.48006674190E+03  0.51541798199E+03  0.00000000000E+00 0. -1.
         11    1    1    2    0    0 -0.20931591333E+02  0.10900480170E+03  0.54104005019E+03  0.55230835067E+03  0.00000000000E+00 0.  1.
</event>
<event>
 6    1  0.6597032E-006  0.7585784E+02  0.7561462E-02  0.1341235E+00
          1   -1    0    0  501    0  0.00000000000E+00  0.00000000000E+00  0.57260596477E+03  0.57260596477E+03  0.00000000000E+00 0. -1.
         -1   -1    0    0    0  501 -0.00000000000E+00 -0.00000000000E+00 -0.21951445388E+02  0.21951445388E+02  0.00000000000E+00 0.  1.
          5    1    1    2  502    0 -0.66549594261E+01  0.18774031344E+02  0.25230403327E+03  0.25312358709E+03  0.41800000000E+01 0.  1.
         -5    1    1    2    0  502 -0.10665858532E+02 -0.36651803565E+02  0.11813620466E+02  0.40176476591E+02  0.41800000000E+01 0.  1.
        -11    1    1    2    0    0  0.54192349585E+02  0.79005470052E+01  0.16359925999E+03  0.17252230947E+03  0.00000000000E+00 0.  1.
         11    1    1    2    0    0 -0.36871531626E+02  0.99772252154E+01  0.12293760565E+03  0.12873503700E+03  0.00000000000E+00 0. -1.
</event>
<event>
 6    1  0.6597032E-006  0.1490274E+03  0.7561462E-02  0.1201673E+00
          1   -1    0    0  501    0  0.00000000000E+00  0.00000000000E+00  0.25651940253E+03  0.25651940253E+03  0.00000000000E+00 0. -1.
         -1   -1    0    0    0  501 -0.00000000000E+00 -0.00000000000E+00 -0.11552239633E+03  0.11552239633E+03  0.00000000000E+00 0.  1.
          5    1    1    2  502    0 -0.71171905864E+02 -0.82680257223E+02  0.25859911985E+02  0.11219479741E+03  0.41800000000E+01 0.  1.
         -5    1    1    2    0  502 -0.37765299424E+02  0.40243564120E+02 -0.20723264148E+02  0.59098970977E+02  0.41800000000E+01 0.  1.
        -11    1    1    2    0    0  0.47495708533E+02 -0.14611119179E+02  0.95593066159E+02  0.10773746531E+03  0.00000000000E+00 0. -1.
         11    1    1    2    0    0  0.61441496756E+02  0.57047812283E+02  0.40267292201E+02  0.93010565158E+02  0.00000000000E+00 0.  1.
</event>
<event>
 6    1  0.6597032E-006  0.8805288E+02  0.7561462E-02  0.1307637E+00
          1   -1    0    0  501    0  0.00000000000E+00  0.00000000000E+00  0.89084786406E+02  0.89084786406E+02  0.00000000000E+00 0. -1.
         -1   -1    0    0    0  501 -0.00000000000E+00 -0.00000000000E+00 -0.13395198541E+03  0.13395198541E+03  0.00000000000E+00 0.  1.
          5    1    1    2  502    0  0.20462188493E+02 -0.44495161280E+02  0.23118099774E+02  0.54317947977E+02  0.41800000000E+01 0. -1.
         -5    1    1    2    0  502 -0.90257425116E+01  0.39667085972E+02 -0.67622675023E+02  0.79026832878E+02  0.41800000000E+01 0. -1.
        -11    1    1    2    0    0 -0.10605340754E+02  0.44819828707E+02  0.12413141702E+02  0.47700905492E+02  0.00000000000E+00 0. -1.
         11    1    1    2    0    0 -0.83110522737E+00 -0.39991753399E+02 -0.12775765455E+02  0.41991085468E+02  0.00000000000E+00 0.  1.
</event>
<event>
 6    1  0.6597032E-006  0.1133076E+03  0.7561462E-02  0.1254564E+00
         -1   -1    0    0    0  501 -0.00000000000E+00  0.00000000000E+00  0.26392461145E+02  0.26392461145E+02  0.00000000000E+00 0.  1.
          1   -1    0    0  501    0  0.00000000000E+00 -0.00000000000E+00 -0.52006364493E+03  0.52006364493E+03  0.00000000000E+00 0. -1.
          5    1    1    2  502    0  0.46057541212E+02  0.30216984225E+02 -0.10622165299E+03  0.11972833918E+03  0.41800000000E+01 0.  1.
         -5    1    1    2    0  502 -0.75925708663E+02 -0.26467660821E+01 -0.12813117767E+03  0.14901942725E+03  0.41800000000E+01 0.  1.
        -11    1    1    2    0    0 -0.14650875504E+02  0.23401179391E+02 -0.11562669714E+03  0.11887723264E+03  0.00000000000E+00 0.  1.
         11    1    1    2    0    0  0.44519042955E+02 -0.50971397534E+02 -0.14369165599E+03  0.15883110700E+03  0.00000000000E+00 0. -1.
</event>
<event>
 6    1  0.6597032E-006  0.1217593E+03  0.7561462E-02  0.1240223E+00
          1   -1    0    0  501    0  0.00000000000E+00  0.00000000000E+00  0.49520581882E+02  0.49520581882E+02  0.00000000000E+00 0. -1.
         -1   -1    0    0    0  501 -0.00000000000E+00 -0.00000000000E+00 -0.40724934296E+03  0.40724934296E+03  0.00000000000E+00 0.  1.
          5    1    1    2  502    0  0.26903856991E+02 -0.90865164354E+01 -0.13280257552E+03  0.13586897647E+03  0.41800000000E+01 0. -1.
         -5    1    1    2    0  502 -0.69559951465E+02 -0.71867493297E+02 -0.84263912978E+02  0.13084877864E+03  0.41800000000E+01 0. -1.
        -11    1    1    2    0    0  0.61930714390E+02  0.63670401679E+02 -0.13788180570E+03  0.16401440723E+03  0.00000000000E+00 0.  1.
         11    1    1    2    0    0 -0.19274619916E+02  0.17283608054E+02 -0.27804668775E+01  0.26037762506E+02  0.00000000000E+00 0. -1.
</event>
<event>
 6    1  0.6597032E-006  0.1157478E+03  0.7561462E-02  0.1250281E+00
         -2   -1    0    0    0  501 -0.00000000000E+00  0.00000000000E+00  0.19685041736E+04  0.19685041736E+04  0.00000000000E+00 0.  1.
          2   -1    0    0  501    0  0.00000000000E+00 -0.00000000000E+00 -0.10553295334E+02  0.10553295334E+02  0.00000000000E+00 0. -1.
          5    1    1    2  502    0 -0.34996511269E+01  0.96138718089E+02  0.62684131845E+03  0.63419430114E+03  0.41800000000E+01 0.  1.
         -5    1    1    2    0  502  0.69216188442E+01 -0.18419473235E+02  0.79561040202E+03  0.79586466815E+03  0.41800000000E+01 0.  1.
        -11    1    1    2    0    0  0.30705334315E+02 -0.74773146533E+02  0.44399448212E+03  0.45129252282E+03  0.00000000000E+00 0.  1.
         11    1    1    2    0    0 -0.34127302032E+02 -0.29460983211E+01  0.91504675695E+02  0.97705976856E+02  0.00000000000E+00 0. -1.
</event>
<event>
 6    1  0.6597032E-006  0.1182243E+03  0.7561462E-02  0.1246055E+00
          2   -1    0    0  501    0  0.00000000000E+00  0.00000000000E+00  0.22979579005E+03  0.22979579005E+03  0.00000000000E+00 0. -1.
         -2   -1    0    0    0  501 -0.00000000000E+00 -0.00000000000E+00 -0.10909311204E+03  0.10909311204E+03  0.00000000000E+00 0.  1.
          5    1    1    2  502    0  0.73904021206E+02  0.70482256403E+02  0.37488203651E+02  0.10886868526E+03  0.41800000000E+01 0. -1.
         -5    1    1    2    0  502 -0.47651922229E+02 -0.57184615195E+02 -0.30387091627E+02  0.80508593608E+02  0.41800000000E+01 0.  1.
        -11    1    1    2    0    0  0.90464439228E+01 -0.21603929979E+02  0.11068046411E+03  0.11313148577E+03  0.00000000000E+00 0.  1.
         11    1    1    2    0    0 -0.35298542900E+02  0.83062887712E+01  0.29211018810E+01  0.36380137441E+02  0.00000000000E+00 0. -1.
</event>
<event>
 6    1  0.6597032E-006  0.6593261E+02  0.7561462E-02  0.1374497E+00
         -1   -1    0    0    0  501 -0.00000000000E+00  0.00000000000E+00  0.26400532381E+02  0.26400532381E+02  0.00000000000E+00 0.  1.
          1   -1    0    0  501    0  0.00000000000E+00 -0.00000000000E+00 -0.50164336568E+03  0.50164336568E+03  0.00000000000E+00 0. -1.
          5    1    1    2  502    0 -0.10127393651E+02 -0.12746584701E+02 -0.25166433140E+03  0.25222499405E+03  0.41800000000E+01 0.  1.
         -5    1    1    2    0  502  0.43316117067E+02  0.26512381842E+01 -0.18212406684E+02  0.47249118710E+02  0.41800000000E+01 0.  1.
        -11    1    1    2    0    0  0.37512337297E+01  0.29496603216E+02 -0.14287668960E+02  0.32988768392E+02  0.00000000000E+00 0.  1.
         11    1    1    2    0    0 -0.36939957146E+02 -0.19401256699E+02 -0.19107842625E+03  0.19558101691E+03  0.00000000000E+00 0. -1.
</event>
<event>
 6    1  0.6597032E-006  0.1185976E+03  0.7561462E-02  0.1245429E+00
         -4   -1    0    0    0  501 -0.00000000000E+00  0.00000000000E+00  0.30574530260E+03  0.30574530260E+03  0.00000000000E+00 0. -1.
          4   -1    0    0  501    0  0.00000000000E+00 -0.00000000000E+00 -0.87623544330E+02  0.87623544330E+02  0.00000000000E+00 0.  1.
          5    1    1    2  502    0 -0.55748857213E+01 -0.23758282825E+02  0.14616974042E+03  0.14825181540E+03  0.41800000000E+01 0. -1.
         -5    1    1    2    0  502  0.82274648066E+02 -0.44417293496E+02  0.50259621191E+02  0.10623330739E+03  0.41800000000E+01 0. -1.
        -11    1    1    2    0    0 -0.57417784250E+02  0.78275841982E+02 -0.12984267909E+02  0.97941312016E+02  0.00000000000E+00 0.  1.
         11    1    1    2    0    0 -0.19281978094E+02 -0.10100265661E+02  0.34676664563E+02  0.40942412128E+02  0.00000000000E+00 0. -1.
</event>
<event>
 6    1  0.6597032E-006  0.8699299E+02  0.7561462E-02  0.1310301E+00
         -2   -1    0    0    0  501 -0.00000000000E+00  0.00000000000E+00  0.47153332378E+03  0.47153332378E+03  0.00000000000E+00 0.  1.
          2   -1    0    0  501    0  0.00000000000E+00 -0.00000000000E+00 -0.54930705350E+02  0.54930705350E+02  0.00000000000E+00 0. -1.
          5    1    1    2  502    0  0.76309357231E+00  0.50056587294E+02  0.43636326912E+02  0.66542059404E+02  0.41800000000E+01 0.  1.
         -5    1    1    2    0  502 -0.40770732169E+02  0.25273811020E+01  0.33815791724E+03  0.34064187889E+03  0.41800000000E+01 0.  1.
        -11    1    1    2    0    0 -0.11900466440E+02 -0.10181991040E+02 -0.24966549247E+02  0.29472404454E+02  0.00000000000E+00 0. -1.
         11    1    1    2    0    0  0.51908105037E+02 -0.42401977357E+02  0.59774923524E+02  0.89807686389E+02  0.00000000000E+00 0.  1.
</event>
<event>
 6    1  0.1727144E-005  0.2782047E+03  0.7561462E-02  0.1096674E+00
         -2   -1    0    0    0  501 -0.00000000000E+00  0.00000000000E+00  0.31924589508E+02  0.31924589508E+02  0.00000000000E+00 0. -1.
          2   -1    0    0  501    0  0.00000000000E+00 -0.00000000000E+00 -0.26587974582E+04  0.26587974582E+04  0.00000000000E+00 0.  1.
          5    1    1    2  502    0  0.15806837264E+03  0.33517890225E+02 -0.89323529363E+03  0.90774215589E+03  0.41800000000E+01 0.  1.
         -5    1    1    2    0  502  0.76144991930E+02  0.98837330805E+02 -0.39703106830E+03  0.41619468924E+03  0.41800000000E+01 0.  1.
        -11    1    1    2    0    0 -0.19459969441E+03 -0.10001611585E+03 -0.12199094177E+04  0.12393753474E+04  0.00000000000E+00 0.  1.
         11    1    1    2    0    0 -0.39613670161E+02 -0.32339105183E+02 -0.11669708913E+03  0.12740985519E+03  0.00000000000E+00 0. -1.
</event>
<event>
 6    1  0.6597032E-006  0.7911711E+02  0.7561462E-02  0.1331576E+00
          2   -1    0    0  501    0  0.00000000000E+00  0.00000000000E+00  0.89652399210E+02  0.89652399210E+02  0.00000000000E+00 0. -1.
         -2   -1    0    0    0  501 -0.00000000000E+00 -0.00000000000E+00 -0.35010527629E+03  0.35010527629E+03  0.00000000000E+00 0.  1.
          5    1    1    2  502    0 -0.51640503089E+02  0.35350827430E+02 -0.70106544263E+02  0.94068180103E+02  0.41800000000E+01 0. -1.
         -5    1    1    2    0  502  0.44501037916E+02  0.12722941066E+02 -0.23018924538E+03  0.23483350846E+03  0.41800000000E+01 0. -1.
        -11    1    1    2    0    0  0.41882294549E+01 -0.98496332645E+01 -0.29631663853E+02  0.31505428804E+02  0.00000000000E+00 0.  1.
         11    1    1    2    0    0  0.29512357186E+01 -0.38224135231E+02  0.69474576423E+02  0.79350558131E+02  0.00000000000E+00 0. -1.
</event>
<event>
 6    1  0.6597032E-006  0.1494690E+03  0.7561462E-02  0.1201127E+00
          2   -1    0    0  501    0  0.00000000000E+00  0.00000000000E+00  0.14384713406E+03  0.14384713406E+03  0.00000000000E+00 0.  1.
         -2   -1    0    0    0  501 -0.00000000000E+00 -0.00000000000E+00 -0.25476242231E+03  0.25476242231E+03  0.00000000000E+00 0. -1.
          5    1    1    2  502    0 -0.20050850646E+02  0.39531749520E+02  0.17697484640E+02  0.47911055033E+02  0.41800000000E+01 0. -1.
         -5    1    1    2    0  502 -0.64721348238E+02  0.65864434296E+02 -0.16039010769E+03  0.18512005744E+03  0.41800000000E+01 0. -1.
        -11    1    1    2    0    0  0.27153736160E+02  0.13151310573E+02  0.81198846821E+00  0.30181810458E+02  0.00000000000E+00 0.  1.
         11    1    1    2    0    0  0.57618462724E+02 -0.11854749439E+03  0.30965346328E+02  0.13539663344E+03  0.00000000000E+00 0. -1.
</event>
<event>
 6    1  0.6597032E-006  0.1278418E+03  0.7561462E-02  0.1230694E+00
          1   -1    0    0  501    0  0.00000000000E+00  0.00000000000E+00  0.26241190219E+03  0.26241190219E+03  0.00000000000E+00 0. -1.
         -1   -1    0    0    0  501 -0.00000000000E+00 -0.00000000000E+00 -0.80922632292E+02  0.80922632292E+02  0.00000000000E+00 0.  1.
          5    1    1    2  502    0  0.56421727489E+02 -0.90354108078E+02  0.78476787796E+02  0.13237580898E+03  0.41800000000E+01 0.  1.
         -5    1    1    2    0  502  0.25216517835E+02  0.39554840712E+02  0.87350551186E+01  0.47898139665E+02  0.41800000000E+01 0.  1.
        -11    1    1    2    0    0 -0.29137717393E+02  0.38106655354E+02  0.97801872701E+02  0.10893268592E+03  0.00000000000E+00 0. -1.
         11    1    1    2    0    0 -0.52500527931E+02  0.12692612012E+02 -0.35244457154E+01  0.54127899925E+02  0.00000000000E+00 0.  1.
</event>
<event>
 6    1  0.6597032E-006  0.2399556E+03  0.7561462E-02  0.1119822E+00
          2   -1    0    0  501    0  0.00000000000E+00  0.00000000000E+00  0.37112731143E+03  0.37112731143E+03  0.00000000000E+00 0. -1.
         -2   -1    0    0    0  501 -0.00000000000E+00 -0.00000000000E+00 -0.22188929815E+03  0.22188929815E+03  0.00000000000E+00 0.  1.
          5    1    1    2  502    0  0.20800740962E+02 -0.10854890495E+03 -0.78307481502E+02  0.13551778352E+03  0.41800000000E+01 0.  1.
         -5    1    1    2    0  502 -0.41239131834E+02 -0.12597810638E+03  0.28585392537E+02  0.13566777933E+03  0.41800000000E+01 0.  1.
        -11    1    1    2    0    0 -0.36645437194E+01  0.96561464276E+02  0.27555780826E+02  0.10048316436E+03  0.00000000000E+00 0.  1.
         11    1    1    2    0    0  0.24102934591E+02  0.13796554705E+03  0.17140432142E+03  0.22134788237E+03  0.00000000000E+00 0. -1.
</event>
<event>
 6    1  0.6597032E-006  0.6722919E+02  0.7561462E-02  0.1369777E+00
          2   -1    0    0  501    0  0.00000000000E+00  0.00000000000E+00  0.13051848908E+02  0.13051848908E+02  0.00000000000E+00 0. -1.
         -2   -1    0    0    0  501 -0.00000000000E+00 -0.00000000000E+00 -0.18166008239E+04  0.18166008239E+04  0.00000000000E+00 0.  1.
          5    1    1    2  502    0 -0.22221530468E+01  0.17106412924E+02 -0.15529977806E+04  0.15530992068E+04  0.41800000000E+01 0. -1.
         -5    1    1    2    0  502 -0.21080176018E+02 -0.18064206724E+01 -0.43668646630E+02  0.48703799391E+02  0.41800000000E+01 0. -1.
        -11    1    1    2    0    0  0.31346683603E+02  0.33386519701E+02 -0.10906966208E+03  0.11829397896E+03  0.00000000000E+00 0. -1.
         11    1    1    2    0    0 -0.80443545385E+01 -0.48686511953E+02 -0.97812885685E+02  0.10955568763E+03  0.00000000000E+00 0.  1.
</event>
<event>
 6    1  0.6597032E-006  0.1129309E+03  0.7561462E-02  0.1255237E+00
         -1   -1    0    0    0  501 -0.00000000000E+00  0.00000000000E+00  0.38589851935E+02  0.38589851935E+02  0.00000000000E+00 0.  1.
          1   -1    0    0  501    0  0.00000000000E+00 -0.00000000000E+00 -0.35400355148E+03  0.35400355148E+03  0.00000000000E+00 0. -1.
          5    1    1    2  502    0 -0.64868912449E+02 -0.29777945857E+02 -0.81743216964E+02  0.10860077247E+03  0.41800000000E+01 0. -1.
         -5    1    1    2    0  502  0.30401899532E+02  0.51538634036E+02 -0.63917936222E+02  0.87655469107E+02  0.41800000000E+01 0. -1.
        -11    1    1    2    0    0  0.69122567159E+01  0.32658258903E+02 -0.89584161805E+02  0.95601585833E+02  0.00000000000E+00 0. -1.
         11    1    1    2    0    0  0.27554756202E+02 -0.54418947082E+02 -0.80168384553E+02  0.10073557600E+03  0.00000000000E+00 0.  1.
</event>
<event>
 6    1  0.6597032E-006  0.1155529E+03  0.7561462E-02  0.1250619E+00
          1   -1    0    0  501    0  0.00000000000E+00  0.00000000000E+00  0.83609876495E+02  0.83609876495E+02  0.00000000000E+00 0. -1.
         -1   -1    0    0    0  501 -0.00000000000E+00 -0.00000000000E+00 -0.21603619315E+03  0.21603619315E+03  0.00000000000E+00 0.  1.
          5    1    1    2  502    0 -0.56675176315E+02 -0.72705114447E+02 -0.24266805827E+02  0.95417291631E+02  0.41800000000E+01 0.  1.
         -5    1    1    2    0  502  0.49821975541E+02 -0.64569121291E+01 -0.47472643437E+02  0.69246265141E+02  0.41800000000E+01 0.  1.
        -11    1    1    2    0    0 -0.16106310998E+02  0.27307634519E+02 -0.70619300255E+02  0.77409338748E+02  0.00000000000E+00 0.  1.
         11    1    1    2    0    0  0.22959511771E+02  0.51854392057E+02  0.99324328639E+01  0.57573174126E+02  0.00000000000E+00 0. -1.
</event>
<event>
 6    1  0.6597032E-006  0.1098515E+03  0.7561462E-02  0.1260845E+00
          2   -1    0    0  501    0  0.00000000000E+00  0.00000000000E+00  0.11634535653E+03  0.11634535653E+03  0.00000000000E+00 0. -1.
         -2   -1    0    0    0  501 -0.00000000000E+00 -0.00000000000E+00 -0.10947400153E+03  0.10947400153E+03  0.00000000000E+00 0.  1.
          5    1    1    2  502    0  0.40275519540E+02  0.20943511241E+02  0.14451801277E+02  0.47823373965E+02  0.41800000000E+01 0. -1.
         -5    1    1    2    0  502 -0.50441299459E+02 -0.71724231758E+02 -0.46803279337E+01  0.87909430563E+02  0.41800000000E+01 0. -1.
        -11    1    1    2    0    0 -0.29378353262E+02  0.28552612825E+02 -0.14161891315E+02  0.43346262874E+02  0.00000000000E+00 0.  1.
         11    1    1    2    0    0  0.39544133181E+02  0.22228107692E+02  0.11261772970E+02  0.46740290661E+02  0.00000000000E+00 0. -1.
</event>
<event>
 6    1  0.6597032E-006  0.1791492E+03  0.7561462E-02  0.1168629E+00
         -1   -1    0    0    0  501 -0.00000000000E+00  0.00000000000E+00  0.87849154215E+02  0.87849154215E+02  0.00000000000E+00 0.  1.
          1   -1    0    0  501    0  0.00000000000E+00 -0.00000000000E+00 -0.37839855101E+03  0.37839855101E+03  0.00000000000E+00 0. -1.
          5    1    1    2  502    0 -0.10231331397E+02  0.90740169585E+02 -0.59221955879E+02  0.10891818478E+03  0.41800000000E+01 0. -1.
         -5    1    1    2    0  502 -0.98573165296E+02  0.26397182920E+01 -0.54207308229E+02  0.11260347106E+03  0.41800000000E+01 0. -1.
        -11    1    1    2    0    0  0.11819368675E+03 -0.10148659072E+03 -0.16926580587E+03  0.23004388433E+03  0.00000000000E+00 0.  1.
         11    1    1    2    0    0 -0.93891900538E+01  0.81067028388E+01 -0.78543268168E+01  0.14682165049E+02  0.00000000000E+00 0. -1.
</event>
<event>
 6    1  0.6597032E-006  0.1284453E+03  0.7561462E-02  0.1229781E+00
          1   -1    0    0  501    0  0.00000000000E+00  0.00000000000E+00  0.31837481690E+03  0.31837481690E+03  0.00000000000E+00 0. -1.
         -1   -1    0    0    0  501 -0.00000000000E+00 -0.00000000000E+00 -0.66038995797E+02  0.66038995797E+02  0.00000000000E+00 0.  1.
          5    1    1    2  502    0 -0.79066933746E+01  0.34995885350E+02 -0.24292849219E+01  0.36202232207E+02  0.41800000000E+01 0.  1.
         -5    1    1    2    0  502  0.89576471484E+02 -0.58846666151E+02  0.80005830807E+02  0.13381061140E+03  0.41800000000E+01 0.  1.
        -11    1    1    2    0    0 -0.76167799193E+02 -0.12116917312E+02  0.72463912892E+02  0.10582708534E+03  0.00000000000E+00 0.  1.
         11    1    1    2    0    0 -0.55019789162E+01  0.35967698114E+02  0.10229536233E+03  0.10857388375E+03  0.00000000000E+00 0. -1.
</event>
<event>
 6    1  0.6597032E-006  0.1075506E+03  0.7561462E-02  0.1265174E+00
          1   -1    0    0  501    0  0.00000000000E+00  0.00000000000E+00  0.92287646050E+02  0.92287646050E+02  0.00000000000E+00 0. -1.
         -1   -1    0    0    0  501 -0.00000000000E+00 -0.00000000000E+00 -0.13287520386E+03  0.13287520386E+03  0.00000000000E+00 0.  1.
          5    1    1    2  502    0  0.49492774441E+02 -0.29652192300E+02 -0.61025061137E+01  0.58167862355E+02  0.41800000000E+01 0.  1.
         -5    1    1    2    0  502 -0.67727755801E+02  0.77165477884E+01 -0.33782014472E+02  0.76192459715E+02  0.41800000000E+01 0.  1.
        -11    1    1    2    0    0  0.45387443838E+02 -0.10574343108E+02  0.87145225677E+01  0.47410755045E+02  0.00000000000E+00 0. -1.
         11    1    1    2    0    0 -0.27152462479E+02  0.32509987619E+02 -0.94175597903E+01  0.43391772793E+02  0.00000000000E+00 0.  1.
</event>
<event>
 6    1  0.6597032E-006  0.1145815E+03  0.7561462E-02  0.1252313E+00
         -2   -1    0    0    0  501 -0.00000000000E+00  0.00000000000E+00  0.13843891193E+03  0.13843891193E+03  0.00000000000E+00 0.  1.
          2   -1    0    0  501    0  0.00000000000E+00 -0.00000000000E+00 -0.15222480792E+03  0.15222480792E+03  0.00000000000E+00 0. -1.
          5    1    1    2  502    0 -0.52957283036E+02  0.44478283965E+02  0.38132135582E+02  0.79084282478E+02  0.41800000000E+01 0. -1.
         -5    1    1    2    0  502  0.16850385441E+02 -0.59178617230E+02  0.38655648261E+02  0.72785821210E+02  0.41800000000E+01 0. -1.
        -11    1    1    2    0    0 -0.89350150668E+01 -0.32059525059E+02 -0.88856151058E+01  0.34447086917E+02  0.00000000000E+00 0.  1.
         11    1    1    2    0    0  0.45041912662E+02  0.46759858324E+02 -0.81688064726E+02  0.10434652924E+03  0.00000000000E+00 0. -1.
</event>
<event>
 6    1  0.6597032E-006  0.4013031E+03  0.7561462E-02  0.1043329E+00
          2   -1    0    0  501    0  0.00000000000E+00  0.00000000000E+00  0.13045956984E+04  0.13045956984E+04  0.00000000000E+00 0. -1.
         -2   -1    0    0    0  501 -0.00000000000E+00 -0.00000000000E+00 -0.13827768357E+03  0.13827768357E+03  0.00000000000E+00 0.  1.
          5    1    1    2  502    0  0.19052365719E+03 -0.18064820015E+03  0.29706743446E+03  0.39648400874E+03  0.41800000000E+01 0.  1.
         -5    1    1    2    0  502  0.13883928865E+03 -0.33246492068E+02  0.89191327305E+02  0.16838718055E+03  0.41800000000E+01 0.  1.
        -11    1    1    2    0    0 -0.21078178047E+03  0.10203098582E+03  0.53087820589E+03  0.58023353103E+03  0.00000000000E+00 0.  1.
         11    1    1    2    0    0 -0.11858116537E+03  0.11186370639E+03  0.24918104718E+03  0.29776866165E+03  0.00000000000E+00 0. -1.
</event>
<event>
 6    1  0.6597032E-006  0.1068905E+03  0.7561462E-02  0.1266439E+00
          2   -1    0    0  501    0  0.00000000000E+00  0.00000000000E+00  0.14605148669E+03  0.14605148669E+03  0.00000000000E+00 0. -1.
         -2   -1    0    0    0  501 -0.00000000000E+00 -0.00000000000E+00 -0.10961904740E+03  0.10961904740E+03  0.00000000000E+00 0.  1.
          5    1    1    2  502    0 -0.43532634185E+02 -0.18080025998E+02 -0.39762006974E+02  0.61809927825E+02  0.41800000000E+01 0. -1.
         -5    1    1    2    0  502  0.61317340168E+02 -0.36190289760E+02  0.27067127241E+02  0.76286663679E+02  0.41800000000E+01 0. -1.
        -11    1    1    2    0    0  0.11195763458E+00  0.70783504845E+02  0.58148559319E+02  0.91605524089E+02  0.00000000000E+00 0. -1.
         11    1    1    2    0    0 -0.17896663617E+02 -0.16513189088E+02 -0.90212402996E+01  0.25968418493E+02  0.00000000000E+00 0.  1.
</event>
<event>
 6    1  0.6597032E-006  0.1091798E+03  0.7561462E-02  0.1262096E+00
         -2   -1    0    0    0  501 -0.00000000000E+00  0.00000000000E+00  0.61058106887E+02  0.61058106887E+02  0.00000000000E+00 0.  1.
          2   -1    0    0  501    0  0.00000000000E+00 -0.00000000000E+00 -0.24422292239E+03  0.24422292239E+03  0.00000000000E+00 0. -1.
          5    1    1    2  502    0  0.20920459503E+02  0.60960483457E+02 -0.11746202781E+02  0.65645196693E+02  0.41800000000E+01 0.  1.
         -5    1    1    2    0  502  0.65164939305E+01 -0.62072836420E+02 -0.27294213311E+02  0.68249162593E+02  0.41800000000E+01 0.  1.
        -11    1    1    2    0    0 -0.84169736513E+01 -0.42666128462E+02 -0.53362570173E+02  0.68838999549E+02  0.00000000000E+00 0.  1.
         11    1    1    2    0    0 -0.19019979782E+02  0.43778481425E+02 -0.90761829239E+02  0.10254767044E+03  0.00000000000E+00 0. -1.
</event>
<event>
 6    1  0.6597032E-006  0.1087827E+03  0.7561462E-02  0.1262841E+00
         -2   -1    0    0    0  501 -0.00000000000E+00  0.00000000000E+00  0.24743306962E+02  0.24743306962E+02  0.00000000000E+00 0. -1.
          2   -1    0    0  501    0  0.00000000000E+00 -0.00000000000E+00 -0.52982287635E+03  0.52982287635E+03  0.00000000000E+00 0.  1.
          5    1    1    2  502    0 -0.70200852551E+02  0.10878074718E+02 -0.11944888297E+03  0.13903956362E+03  0.41800000000E+01 0. -1.
         -5    1    1    2    0  502  0.53404159970E+02 -0.12457476636E+02 -0.85643367952E+02  0.10178139270E+03  0.41800000000E+01 0. -1.
        -11    1    1    2    0    0  0.48284793049E+02  0.22839010480E+02 -0.19086150621E+03  0.19819474310E+03  0.00000000000E+00 0.  1.
         11    1    1    2    0    0 -0.31488100468E+02 -0.21259608563E+02 -0.10912581226E+03  0.11555048389E+03  0.00000000000E+00 0. -1.
</event>
<event>
 6    1  0.6597032E-006  0.9379294E+02  0.7561462E-02  0.1293918E+00
          2   -1    0    0  501    0  0.00000000000E+00  0.00000000000E+00  0.36271963297E+03  0.36271963297E+03  0.00000000000E+00 0. -1.
         -2   -1    0    0    0  501 -0.00000000000E+00 -0.00000000000E+00 -0.37239921334E+02  0.37239921334E+02  0.00000000000E+00 0.  1.
          5    1    1    2  502    0 -0.30923713264E+01  0.58475482553E+02  0.15024188263E+03  0.16130418630E+03  0.41800000000E+01 0. -1.
         -5    1    1    2    0  502  0.32100750637E+02 -0.29489045488E+02  0.79663820236E+01  0.44508399632E+02  0.41800000000E+01 0. -1.
        -11    1    1    2    0    0 -0.43588729186E+02  0.89059808981E+01  0.13542766777E+03  0.14254805156E+03  0.00000000000E+00 0. -1.
         11    1    1    2    0    0  0.14580349876E+02 -0.37892417963E+02  0.31843779217E+02  0.51598916814E+02  0.00000000000E+00 0.  1.
</event>
<event>
 6    1  0.6597032E-006  0.1183074E+03  0.7561462E-02  0.1245916E+00
          2   -1    0    0  501    0  0.00000000000E+00  0.00000000000E+00  0.40860395488E+03  0.40860395488E+03  0.00000000000E+00 0. -1.
         -2   -1    0    0    0  501 -0.00000000000E+00 -0.00000000000E+00 -0.55022276644E+02  0.55022276644E+02  0.00000000000E+00 0.  1.
          5    1    1    2  502    0  0.37926422261E+02 -0.78132679815E+02  0.66946005572E+02  0.10973772926E+03  0.41800000000E+01 0.  1.
         -5    1    1    2    0  502 -0.37562300584E+02  0.17704019979E+02 -0.56281395054E+01  0.42113027709E+02  0.41800000000E+01 0.  1.
        -11    1    1    2    0    0 -0.22005444085E+02 -0.16824830752E+02  0.61111597595E+02  0.67096511532E+02  0.00000000000E+00 0.  1.
         11    1    1    2    0    0  0.21641322407E+02  0.77253490588E+02  0.23115221458E+03  0.24467896303E+03  0.00000000000E+00 0. -1.
</event>
<event>
 6    1  0.6597032E-006  0.8471524E+02  0.7561462E-02  0.1316179E+00
          1   -1    0    0  501    0  0.00000000000E+00  0.00000000000E+00  0.22281794684E+03  0.22281794684E+03  0.00000000000E+00 0. -1.
         -1   -1    0    0    0  501 -0.00000000000E+00 -0.00000000000E+00 -0.58739767207E+02  0.58739767207E+02  0.00000000000E+00 0.  1.
          5    1    1    2  502    0 -0.19534438830E+01  0.25334930981E+02  0.91184379262E+02  0.94750926603E+02  0.41800000000E+01 0. -1.
         -5    1    1    2    0  502 -0.14802473481E+02 -0.56083585944E+02 -0.91695229436E+01  0.58873036141E+02  0.41800000000E+01 0. -1.
        -11    1    1    2    0    0  0.25482966057E+02  0.54530890687E+02  0.24395933852E+02  0.64947372439E+02  0.00000000000E+00 0.  1.
         11    1    1    2    0    0 -0.87270486930E+01 -0.23782235724E+02  0.57667389461E+02  0.62986378863E+02  0.00000000000E+00 0. -1.
</event>
<event>
 6    1  0.6597032E-006  0.1056266E+03  0.7561462E-02  0.1268890E+00
          2   -1    0    0  501    0  0.00000000000E+00  0.00000000000E+00  0.50266111003E+03  0.50266111003E+03  0.00000000000E+00 0. -1.
         -2   -1    0    0    0  501 -0.00000000000E+00 -0.00000000000E+00 -0.29570699945E+02  0.29570699945E+02  0.00000000000E+00 0.  1.
          5    1    1    2  502    0  0.37689838774E+02 -0.23994519133E+02  0.18672803394E+03  0.19204450514E+03  0.41800000000E+01 0. -1.
         -5    1    1    2    0  502 -0.61585163604E+01  0.65153673971E+02  0.57514602166E+02  0.87225744009E+02  0.41800000000E+01 0. -1.
        -11    1    1    2    0    0 -0.10527456918E+02  0.27264499408E+02  0.11357595231E+03  0.11727607266E+03  0.00000000000E+00 0. -1.
         11    1    1    2    0    0 -0.21003865496E+02 -0.68423654246E+02  0.11527182167E+03  0.13568548816E+03  0.00000000000E+00 0.  1.
</event>
<event>
 6    1  0.6597032E-006  0.1189769E+03  0.7561462E-02  0.1244794E+00
         -1   -1    0    0    0  501 -0.00000000000E+00  0.00000000000E+00  0.25905410384E+03  0.25905410384E+03  0.00000000000E+00 0.  1.
          1   -1    0    0  501    0  0.00000000000E+00 -0.00000000000E+00 -0.57400512586E+02  0.57400512586E+02  0.00000000000E+00 0. -1.
          5    1    1    2  502    0  0.54057367761E+02 -0.37764686950E+01  0.59735657270E+02  0.80760645580E+02  0.41800000000E+01 0. -1.
         -5    1    1    2    0  502 -0.58903102017E+02  0.55227512838E+02  0.78159694167E+02  0.11245471886E+03  0.41800000000E+01 0. -1.
        -11    1    1    2    0    0  0.28315668042E+02 -0.68248693712E+02  0.32581318672E+02  0.80753969416E+02  0.00000000000E+00 0. -1.
         11    1    1    2    0    0 -0.23469933786E+02  0.16797649569E+02  0.31176921147E+02  0.42485282571E+02  0.00000000000E+00 0.  1.
</event>
<event>
 6    1  0.6597032E-006  0.9900836E+02  0.7561462E-02  0.1282395E+00
          1   -1    0    0  501    0  0.00000000000E+00  0.00000000000E+00  0.42044706905E+03  0.42044706905E+03  0.00000000000E+00 0. -1.
         -1   -1    0    0    0  501 -0.00000000000E+00 -0.00000000000E+00 -0.27942377510E+02  0.27942377510E+02  0.00000000000E+00 0.  1.
          5    1    1    2  502    0 -0.59263343101E+02  0.12834398723E+02  0.63016859761E+02  0.87552627832E+02  0.41800000000E+01 0. -1.
         -5    1    1    2    0  502  0.54771220467E+02 -0.46008816951E+01  0.14800222264E+03  0.15793411605E+03  0.41800000000E+01 0. -1.
        -11    1    1    2    0    0  0.40363284197E+02 -0.19068743974E+02  0.54206425031E+02  0.70222134848E+02  0.00000000000E+00 0.  1.
         11    1    1    2    0    0 -0.35871161562E+02  0.10835226946E+02  0.12727918410E+03  0.13268056783E+03  0.00000000000E+00 0. -1.
</event>
<event>
 6    1  0.6597032E-006  0.2205869E+03  0.7561462E-02  0.1133446E+00
          2   -1    0    0  501    0  0.00000000000E+00  0.00000000000E+00  0.50842399188E+03  0.50842399188E+03  0.00000000000E+00 0. -1.
         -2   -1    0    0    0  501 -0.00000000000E+00 -0.00000000000E+00 -0.17252646895E+03  0.17252646895E+03  0.00000000000E+00 0.  1.
          5    1    1    2  502    0 -0.61808639745E+02  0.70355314654E+02 -0.24171550346E+02  0.96808648856E+02  0.41800000000E+01 0.  1.
         -5    1    1    2    0  502  0.59003659695E+02  0.12331064917E+03 -0.28622345781E+02  0.13972708805E+03  0.41800000000E+01 0.  1.
        -11    1    1    2    0    0  0.42331373401E+02 -0.11679304115E+03  0.18178348357E+03  0.22017673477E+03  0.00000000000E+00 0. -1.
         11    1    1    2    0    0 -0.39526393351E+02 -0.76872922669E+02  0.20690793550E+03  0.22423798916E+03  0.00000000000E+00 0.  1.
</event>
<event>
 6    1  0.6597032E-006  0.8185668E+02  0.7561462E-02  0.1323864E+00
          1   -1    0    0  501    0  0.00000000000E+00  0.00000000000E+00  0.99594799172E+02  0.99594799172E+02  0.00000000000E+00 0. -1.
         -1   -1    0    0    0  501 -0.00000000000E+00 -0.00000000000E+00 -0.22385342722E+03  0.22385342722E+03  0.00000000000E+00 0.  1.
          5    1    1    2  502    0 -0.41732866665E+02  0.75922961713E+01 -0.20457462296E+02  0.47278486491E+02  0.41800000000E+01 0. -1.
         -5    1    1    2    0  502  0.66678353330E+02  0.65777100038E+01 -0.15514804017E+03  0.16904927045E+03  0.41800000000E+01 0.  1.
        -11    1    1    2    0    0 -0.27048161446E+02 -0.28606350798E+02 -0.12751646139E+02  0.41382735807E+02  0.00000000000E+00 0.  1.
         11    1    1    2    0    0  0.21026747811E+01  0.14436344623E+02  0.64098520556E+02  0.65737733645E+02  0.00000000000E+00 0. -1.
</event>
<event>
 6    1  0.6597032E-006  0.1225242E+03  0.7561462E-02  0.1238990E+00
          1   -1    0    0  501    0  0.00000000000E+00  0.00000000000E+00  0.14327557287E+03  0.14327557287E+03  0.00000000000E+00 0. -1.
         -1   -1    0    0    0  501 -0.00000000000E+00 -0.00000000000E+00 -0.80388322489E+03  0.80388322489E+03  0.00000000000E+00 0.  1.
          5    1    1    2  502    0 -0.16854797390E+02 -0.33027795601E+02 -0.96568199370E+02  0.10352685162E+03  0.41800000000E+01 0. -1.
         -5    1    1    2    0  502  0.90402410622E+02 -0.19216841923E+02 -0.67150514008E+03  0.67784844059E+03  0.41800000000E+01 0.  1.
        -11    1    1    2    0    0  0.14341546662E+02  0.36952505554E+01 -0.44153726996E+01  0.15454137097E+02  0.00000000000E+00 0.  1.
         11    1    1    2    0    0 -0.87889159894E+02  0.48549386968E+02  0.11188106013E+03  0.15032936845E+03  0.00000000000E+00 0. -1.
</event>
<event>
 6    1  0.6597032E-006  0.9028787E+02  0.7561462E-02  0.1302156E+00
         -2   -1    0    0    0  501 -0.00000000000E+00  0.00000000000E+00  0.46099978897E+03  0.46099978897E+03  0.00000000000E+00 0.  1.
          2   -1    0    0  501    0  0.00000000000E+00 -0.00000000000E+00 -0.51917052478E+02  0.51917052478E+02  0.00000000000E+00 0. -1.
          5    1    1    2  502    0 -0.53097177302E+02 -0.13769455947E+02  0.11755225579E+03  0.12978795551E+03  0.41800000000E+01 0. -1.
         -5    1    1    2    0  502  0.52400910539E+02  0.90027784002E+01  0.28390523031E+03  0.28887117828E+03  0.41800000000E+01 0.  1.
        -11    1    1    2    0    0  0.20361139763E+02  0.32428680176E+02 -0.26156051333E+02  0.46371697529E+02  0.00000000000E+00 0.  1.
         11    1    1    2    0    0 -0.19664873000E+02 -0.27662002629E+02  0.33781301723E+02  0.47886010125E+02  0.00000000000E+00 0. -1.
</event>
<event>
 6    1  0.6597032E-006  0.8390940E+02  0.7561462E-02  0.1318309E+00
          2   -1    0    0  501    0  0.00000000000E+00  0.00000000000E+00  0.88317851153E+02  0.88317851153E+02  0.00000000000E+00 0.  1.
         -2   -1    0    0    0  501 -0.00000000000E+00 -0.00000000000E+00 -0.22388958258E+03  0.22388958258E+03  0.00000000000E+00 0. -1.
          5    1    1    2  502    0  0.31992966911E+02  0.19390773773E+02 -0.82526921568E+01  0.38537402184E+02  0.41800000000E+01 0.  1.
         -5    1    1    2    0  502 -0.45793537275E+02 -0.50701274747E+02 -0.15898217035E+03  0.17309093046E+03  0.41800000000E+01 0.  1.
        -11    1    1    2    0    0  0.30610956092E+02  0.57683254578E+01  0.54254758169E+02  0.62561034162E+02  0.00000000000E+00 0.  1.
         11    1    1    2    0    0 -0.16810385727E+02  0.25542175517E+02 -0.22591627084E+02  0.38018066925E+02  0.00000000000E+00 0. -1.
</event>
<event>
 6    1  0.6597032E-006  0.1149186E+03  0.7561462E-02  0.1251723E+00
          1   -1    0    0  501    0  0.00000000000E+00  0.00000000000E+00  0.58838333190E+02  0.58838333190E+02  0.00000000000E+00 0. -1.
         -1   -1    0    0    0  501 -0.00000000000E+00 -0.00000000000E+00 -0.35472078990E+03  0.35472078990E+03  0.00000000000E+00 0.  1.
          5    1    1    2  502    0  0.34994000293E+02 -0.94034236182E+01 -0.50098787657E+02  0.61970681430E+02  0.41800000000E+01 0. -1.
         -5    1    1    2    0  502 -0.10838631467E+03 -0.80591100212E+01 -0.20015729254E+03  0.22780025597E+03  0.41800000000E+01 0. -1.
        -11    1    1    2    0    0  0.68983984455E+02  0.25347313716E+01  0.65490728681E+01  0.69340502809E+02  0.00000000000E+00 0. -1.
         11    1    1    2    0    0  0.44083299198E+01  0.14927802268E+02 -0.52175449378E+02  0.54447682880E+02  0.00000000000E+00 0.  1.
</event>
<event>
 6    1  0.6597032E-006  0.1381614E+03  0.7561462E-02  0.1215825E+00
         -1   -1    0    0    0  501 -0.00000000000E+00  0.00000000000E+00  0.50691345995E+02  0.50691345995E+02  0.00000000000E+00 0.  1.
          1   -1    0    0  501    0  0.00000000000E+00 -0.00000000000E+00 -0.48594270253E+03  0.48594270253E+03  0.00000000000E+00 0. -1.
          5    1    1    2  502    0  0.49145795649E+02 -0.95987878175E+02 -0.25404039036E+03  0.27601263435E+03  0.41800000000E+01 0. -1.
         -5    1    1    2    0  502 -0.51405788587E+02  0.69774136245E+02 -0.56707313750E+02  0.10365412207E+03  0.41800000000E+01 0.  1.
        -11    1    1    2    0    0 -0.34095083963E+02  0.29564910461E+02 -0.26382996624E+02  0.52274479355E+02  0.00000000000E+00 0.  1.
         11    1    1    2    0    0  0.36355076901E+02 -0.33511685314E+01 -0.98120655795E+02  0.10469281275E+03  0.00000000000E+00 0. -1.
</event>
<event>
 6    1  0.6597032E-006  0.1141394E+03  0.7561462E-02  0.1253091E+00
         -2   -1    0    0    0  501 -0.00000000000E+00  0.00000000000E+00  0.16129980239E+02  0.16129980239E+02  0.00000000000E+00 0.  1.
          2   -1    0    0  501    0  0.00000000000E+00 -0.00000000000E+00 -0.88396099152E+03  0.88396099152E+03  0.00000000000E+00 0. -1.
          5    1    1    2  502    0 -0.74228899522E+02  0.11713663372E+02 -0.35920376473E+03  0.36700402781E+03  0.41800000000E+01 0. -1.
         -5    1    1    2    0  502  0.58354379023E+02 -0.14469565710E+02 -0.13105150606E+03  0.14424483188E+03  0.41800000000E+01 0.  1.
        -11    1    1    2    0    0  0.12243080271E+02 -0.44091955304E+02 -0.17437939792E+03  0.18028357650E+03  0.00000000000E+00 0.  1.
         11    1    1    2    0    0  0.36314402282E+01  0.46847857642E+02 -0.20319634258E+03  0.20855853557E+03  0.00000000000E+00 0. -1.
</event>
<event>
 6    1  0.6597032E-006  0.1701860E+03  0.7561462E-02  0.1177654E+00
         -1   -1    0    0    0  501 -0.00000000000E+00  0.00000000000E+00  0.18422241953E+03  0.18422241953E+03  0.00000000000E+00 0.  1.
          1   -1    0    0  501    0  0.00000000000E+00 -0.00000000000E+00 -0.21103338399E+03  0.21103338399E+03  0.00000000000E+00 0. -1.
          5    1    1    2  502    0 -0.53334047743E+02  0.11293705921E+03  0.80053508384E+02  0.14840935482E+03  0.41800000000E+01 0.  1.
         -5    1    1    2    0  502  0.30821592247E+02  0.31152844718E+02 -0.26105754674E+02  0.51180593097E+02  0.41800000000E+01 0.  1.
        -11    1    1    2    0    0  0.57168403802E+02 -0.77373654274E+02 -0.71614435801E+02  0.11993138115E+03  0.00000000000E+00 0. -1.
         11    1    1    2    0    0 -0.34655948307E+02 -0.66716249659E+02 -0.91442823754E+01  0.75734474460E+02  0.00000000000E+00 0.  1.
</event>
<event>
 6    1  0.6597032E-006  0.1213403E+03  0.7561462E-02  0.1240902E+00
          1   -1    0    0  501    0  0.00000000000E+00  0.00000000000E+00  0.81071297684E+02  0.81071297684E+02  0.00000000000E+00 0. -1.
         -1   -1    0    0    0  501 -0.00000000000E+00 -0.00000000000E+00 -0.18806781413E+03  0.18806781413E+03  0.00000000000E+00 0.  1.
          5    1    1    2  502    0 -0.62603219893E+02 -0.73535971282E+02 -0.26920424905E+02  0.10034382836E+03  0.41800000000E+01 0. -1.
         -5    1    1    2    0  502  0.10466905904E+02  0.38078435072E+02 -0.34527877019E+02  0.52622904027E+02  0.41800000000E+01 0. -1.
        -11    1    1    2    0    0  0.13922260651E+02 -0.28546032735E+02 -0.19181043383E+02  0.37102799784E+02  0.00000000000E+00 0.  1.
         11    1    1    2    0    0  0.38214053337E+02  0.64003568945E+02 -0.26367171134E+02  0.79069579636E+02  0.00000000000E+00 0. -1.
</event>
<event>
 6    1  0.6597032E-006  0.1107193E+03  0.7561462E-02  0.1259244E+00
         -2   -1    0    0    0  501 -0.00000000000E+00  0.00000000000E+00  0.16495623362E+02  0.16495623362E+02  0.00000000000E+00 0. -1.
          2   -1    0    0  501    0  0.00000000000E+00 -0.00000000000E+00 -0.10012527780E+04  0.10012527780E+04  0.00000000000E+00 0.  1.
          5    1    1    2  502    0 -0.68254856867E+02 -0.84172082844E+01 -0.17353750219E+03  0.18671451991E+03  0.41800000000E+01 0. -1.
         -5    1    1    2    0  502  0.19552793831E+02  0.36746349568E+02 -0.43958265172E+03  0.44156877839E+03  0.41800000000E+01 0. -1.
        -11    1    1    2    0    0  0.77591015042E+02 -0.15633440082E+02 -0.31326726864E+03  0.32311167058E+03  0.00000000000E+00 0.  1.
         11    1    1    2    0    0 -0.28888952007E+02 -0.12695701202E+02 -0.58369732055E+02  0.66353432445E+02  0.00000000000E+00 0. -1.
</event>
<event>
 6    1  0.6597032E-006  0.9960374E+02  0.7561462E-02  0.1281131E+00
         -2   -1    0    0    0  501 -0.00000000000E+00  0.00000000000E+00  0.87003874313E+02  0.87003874313E+02  0.00000000000E+00 0. -1.
          2   -1    0    0  501    0  0.00000000000E+00 -0.00000000000E+00 -0.18266044941E+03  0.18266044941E+03  0.00000000000E+00 0.  1.
          5    1    1    2  502    0 -0.31734102695E+02  0.58456573125E+02 -0.14636663533E+02  0.68234364764E+02  0.41800000000E+01 0. -1.
         -5    1    1    2    0  502 -0.40988150603E+00 -0.57525422336E+02  0.19949681235E+02  0.61031175633E+02  0.41800000000E+01 0. -1.
        -11    1    1    2    0    0 -0.13437835023E+02  0.20502011296E+02  0.31700530271E+01  0.24717546672E+02  0.00000000000E+00 0. -1.
         11    1    1    2    0    0  0.45581819224E+02 -0.21433162086E+02 -0.10413964582E+03  0.11568123665E+03  0.00000000000E+00 0.  1.
</event>
<event>
 6    1  0.6597032E-006  0.1121239E+03  0.7561462E-02  0.1256687E+00
          2   -1    0    0  501    0  0.00000000000E+00  0.00000000000E+00  0.33782437581E+03  0.33782437581E+03  0.00000000000E+00 0. -1.
         -2   -1    0    0    0  501 -0.00000000000E+00 -0.00000000000E+00 -0.44383358911E+02  0.44383358911E+02  0.00000000000E+00 0.  1.
          5    1    1    2  502    0 -0.41420475498E+02 -0.51376356478E+01  0.35798413825E+02  0.55145715364E+02  0.41800000000E+01 0.  1.
         -5    1    1    2    0  502  0.89511304794E+02  0.27235857585E+02  0.95954043794E+02  0.13408473643E+03  0.41800000000E+01 0.  1.
        -11    1    1    2    0    0 -0.28299686797E+02  0.24871356784E+02  0.12397311395E+03  0.12957156186E+03  0.00000000000E+00 0. -1.
         11    1    1    2    0    0 -0.19791142499E+02 -0.46969578721E+02  0.37715445329E+02  0.63405721058E+02  0.00000000000E+00 0.  1.
</event>
<event>
 6    1  0.6597032E-006  0.9328102E+02  0.7561462E-02  0.1295095E+00
          2   -1    0    0  501    0  0.00000000000E+00  0.00000000000E+00  0.67580002282E+02  0.67580002282E+02  0.00000000000E+00 0. -1.
         -2   -1    0    0    0  501 -0.00000000000E+00 -0.00000000000E+00 -0.18036237291E+03  0.18036237291E+03  0.00000000000E+00 0.  1.
          5    1    1    2  502    0  0.52910946230E+02 -0.93497919118E+01 -0.70716096867E+02  0.88911335587E+02  0.41800000000E+01 0. -1.
         -5    1    1    2    0  502 -0.57481740077E+02 -0.39732383208E+01 -0.50173707060E+01  0.57987787282E+02  0.41800000000E+01 0. -1.
        -11    1    1    2    0    0 -0.34515394325E+02  0.42772975556E+01  0.12795697570E+02  0.37058569806E+02  0.00000000000E+00 0.  1.
         11    1    1    2    0    0  0.39086188171E+02  0.90457326769E+01 -0.49844600629E+02  0.63984682521E+02  0.00000000000E+00 0. -1.
</event>
<event>
 6    1  0.6597032E-006  0.1411331E+03  0.7561462E-02  0.1211812E+00
          1   -1    0    0  501    0  0.00000000000E+00  0.00000000000E+00  0.24653049024E+03  0.24653049024E+03  0.00000000000E+00 0. -1.
         -1   -1    0    0    0  501 -0.00000000000E+00 -0.00000000000E+00 -0.84881978013E+02  0.84881978013E+02  0.00000000000E+00 0.  1.
          5    1    1    2  502    0  0.11029794839E+03  0.12312479178E+02  0.74378124244E+02  0.13366679591E+03  0.41800000000E+01 0. -1.
         -5    1    1    2    0  502 -0.19116868493E+02 -0.37507380257E+02  0.65464848720E+01  0.42808726901E+02  0.41800000000E+01 0. -1.
        -11    1    1    2    0    0 -0.10710717691E+03  0.11187928094E+02  0.52985408690E+02  0.12001904271E+03  0.00000000000E+00 0.  1.
         11    1    1    2    0    0  0.15926097010E+02  0.14006972985E+02  0.27738494426E+02  0.34917902732E+02  0.00000000000E+00 0. -1.
</event>
<event>
 6    1  0.6597032E-006  0.1476674E+03  0.7561462E-02  0.1203369E+00
          2   -1    0    0  501    0  0.00000000000E+00  0.00000000000E+00  0.25499771444E+03  0.25499771444E+03  0.00000000000E+00 0. -1.
         -2   -1    0    0    0  501 -0.00000000000E+00 -0.00000000000E+00 -0.13316575015E+03  0.13316575015E+03  0.00000000000E+00 0.  1.
          5    1    1    2  502    0  0.10986593798E+03 -0.13104512955E+01  0.25620146947E+01  0.10998308020E+03  0.41800000000E+01 0. -1.
         -5    1    1    2    0  502 -0.82391011466E+01 -0.47327917045E+02 -0.39620343451E+02  0.62410404058E+02  0.41800000000E+01 0. -1.
        -11    1    1    2    0    0 -0.53339375029E+02  0.66877101117E+02  0.13271520615E+03  0.15789541325E+03  0.00000000000E+00 0. -1.
         11    1    1    2    0    0 -0.48287461802E+02 -0.18238732777E+02  0.26175086903E+02  0.57874567083E+02  0.00000000000E+00 0.  1.
</event>
<event>
 6    1  0.6597032E-006  0.6563412E+02  0.7561462E-02  0.1375602E+00
         -3   -1    0    0    0  501 -0.00000000000E+00  0.00000000000E+00  0.23524989507E+03  0.23524989507E+03  0.00000000000E+00 0.  1.
          3   -1    0    0  501    0  0.00000000000E+00 -0.00000000000E+00 -0.63842139915E+02  0.63842139915E+02  0.00000000000E+00 0. -1.
          5    1    1    2  502    0  0.21965104300E+02 -0.78916100455E+00  0.13912841524E+03  0.14091585045E+03  0.41800000000E+01 0.  1.
         -5    1    1    2    0  502  0.27377404997E+02 -0.19185286358E+02 -0.20564383689E+02  0.39471050069E+02  0.41800000000E+01 0.  1.
        -11    1    1    2    0    0  0.49209923446E+01  0.20352946272E+02  0.60390831981E+02  0.63918003528E+02  0.00000000000E+00 0.  1.
         11    1    1    2    0    0 -0.54263501642E+02 -0.37849890864E+00 -0.75471083725E+01  0.54787130940E+02  0.00000000000E+00 0. -1.
</event>
<event>
 6    1  0.6597032E-006  0.8262629E+02  0.7561462E-02  0.1321759E+00
          3   -1    0    0  501    0  0.00000000000E+00  0.00000000000E+00  0.22680759814E+03  0.22680759814E+03  0.00000000000E+00 0. -1.
         -3   -1    0    0    0  501 -0.00000000000E+00 -0.00000000000E+00 -0.54483606091E+02  0.54483606091E+02  0.00000000000E+00 0.  1.
          5    1    1    2  502    0  0.54425675194E+02 -0.27048332975E+02  0.78523937117E+01  0.61423927944E+02  0.41800000000E+01 0.  1.
         -5    1    1    2    0  502 -0.26597420795E+02  0.35482915441E+02  0.88604726731E+02  0.99170207625E+02  0.41800000000E+01 0.  1.
        -11    1    1    2    0    0  0.15241329807E+02 -0.68033169210E+01 -0.13508279152E+02  0.21472234655E+02  0.00000000000E+00 0.  1.
         11    1    1    2    0    0 -0.43069584206E+02 -0.16312655450E+01  0.89375150760E+02  0.99224834010E+02  0.00000000000E+00 0. -1.
</event>
<event>
 6    1  0.6597032E-006  0.9107762E+02  0.7561462E-02  0.1300263E+00
         -1   -1    0    0    0  501 -0.00000000000E+00  0.00000000000E+00  0.22006863926E+03  0.22006863926E+03  0.00000000000E+00 0.  1.
          1   -1    0    0  501    0  0.00000000000E+00 -0.00000000000E+00 -0.77468737419E+02  0.77468737419E+02  0.00000000000E+00 0. -1.
          5    1    1    2  502    0  0.33589779892E+02  0.66212410741E+02  0.38028298640E+02  0.83522335616E+02  0.41800000000E+01 0. -1.
         -5    1    1    2    0  502 -0.12476541014E+02 -0.31099809079E+02  0.10762024812E+03  0.11279384915E+03  0.41800000000E+01 0. -1.
        -11    1    1    2    0    0  0.20926064585E+02 -0.21082862342E+02 -0.35502408737E+02  0.46290477311E+02  0.00000000000E+00 0. -1.
         11    1    1    2    0    0 -0.42039303464E+02 -0.14029739320E+02  0.32453763820E+02  0.54930714606E+02  0.00000000000E+00 0.  1.
</event>
<event>
 6    1  0.6597032E-006  0.8290540E+02  0.7561462E-02  0.1321003E+00
          2   -1    0    0  501    0  0.00000000000E+00  0.00000000000E+00  0.11063172555E+03  0.11063172555E+03  0.00000000000E+00 0. -1.
         -2   -1    0    0    0  501 -0.00000000000E+00 -0.00000000000E+00 -0.12065035883E+03  0.12065035883E+03  0.00000000000E+00 0.  1.
          5    1    1    2  502    0  0.23304335722E+02  0.33214335881E+02  0.30553014190E+02  0.50963155785E+02  0.41800000000E+01 0.  1.
         -5    1    1    2    0  502 -0.84506229829E+01 -0.35892308332E+02 -0.73184121924E+02  0.82055218774E+02  0.41800000000E+01 0.  1.
        -11    1    1    2    0    0  0.43484179657E+01 -0.40460024135E+02  0.30756226278E+02  0.51008506611E+02  0.00000000000E+00 0. -1.
         11    1    1    2    0    0 -0.19202130705E+02  0.43137996587E+02  0.18562481798E+01  0.47255203210E+02  0.00000000000E+00 0.  1.
</event>
<event>
 6    1  0.6597032E-006  0.1307945E+03  0.7561462E-02  0.1226282E+00
         -1   -1    0    0    0  501 -0.00000000000E+00  0.00000000000E+00  0.44108518017E+03  0.44108518017E+03  0.00000000000E+00 0.  1.
          1   -1    0    0  501    0  0.00000000000E+00 -0.00000000000E+00 -0.78056860626E+02  0.78056860626E+02  0.00000000000E+00 0. -1.
          5    1    1    2  502    0 -0.62361415781E+02 -0.52455391483E+01  0.40558053408E+02  0.74691967141E+02  0.41800000000E+01 0. -1.
         -5    1    1    2    0  502 -0.44444810366E+02  0.36416371054E+02  0.29198115415E+03  0.29761041653E+03  0.41800000000E+01 0. -1.
        -11    1    1    2    0    0  0.10787186946E+03 -0.52453018887E+02  0.35219054988E+02  0.12501216439E+03  0.00000000000E+00 0.  1.
         11    1    1    2    0    0 -0.10656433116E+01  0.21282186981E+02 -0.47299430001E+01  0.21827492737E+02  0.00000000000E+00 0. -1.
</event>
<event>
 6    1  0.6597032E-006  0.1960251E+03  0.7561462E-02  0.1153137E+00
          1   -1    0    0  501    0  0.00000000000E+00  0.00000000000E+00  0.38763000495E+03  0.38763000495E+03  0.00000000000E+00 0. -1.
         -1   -1    0    0    0  501 -0.00000000000E+00 -0.00000000000E+00 -0.12401654793E+03  0.12401654793E+03  0.00000000000E+00 0.  1.
          5    1    1    2  502    0  0.10453411066E+02 -0.53545485166E+02 -0.48010504460E+01  0.54926453280E+02  0.41800000000E+01 0.  1.
         -5    1    1    2    0  502 -0.14544453722E+03 -0.58074920780E+02  0.55475579441E+02  0.16619814122E+03  0.41800000000E+01 0.  1.
        -11    1    1    2    0    0  0.61689127543E+02  0.23424268971E+02  0.25417237176E+02  0.70712663501E+02  0.00000000000E+00 0.  1.
         11    1    1    2    0    0  0.73301998609E+02  0.88196136976E+02  0.18752169085E+03  0.21980929488E+03  0.00000000000E+00 0. -1.
</event>
<event>
 6    1  0.6597032E-006  0.5262431E+02  0.7561462E-02  0.1431680E+00
          1   -1    0    0  501    0  0.00000000000E+00  0.00000000000E+00  0.27781444750E+03  0.27781444750E+03  0.00000000000E+00 0. -1.
         -1   -1    0    0    0  501 -0.00000000000E+00 -0.00000000000E+00 -0.62282312102E+02  0.62282312102E+02  0.00000000000E+00 0.  1.
          5    1    1    2  502    0 -0.48233062126E+01 -0.38217193850E+02 -0.44559462740E+02  0.59049439525E+02  0.41800000000E+01 0. -1.
         -5    1    1    2    0  502  0.74555932151E+01  0.15636723574E+02  0.67925632430E+02  0.70224332929E+02  0.41800000000E+01 0. -1.
        -11    1    1    2    0    0  0.66688491975E+01  0.33603540752E+02  0.19334057868E+03  0.19635236404E+03  0.00000000000E+00 0. -1.
         11    1    1    2    0    0 -0.93011362001E+01 -0.11023070475E+02 -0.11746129764E+01  0.14470623102E+02  0.00000000000E+00 0.  1.
</event>
<event>
 6    1  0.6597032E-006  0.1515831E+03  0.7561462E-02  0.1198541E+00
          2   -1    0    0  501    0  0.00000000000E+00  0.00000000000E+00  0.95148727738E+03  0.95148727738E+03  0.00000000000E+00 0.  1.
         -2   -1    0    0    0  501 -0.00000000000E+00 -0.00000000000E+00 -0.30640091634E+02  0.30640091634E+02  0.00000000000E+00 0. -1.
          5    1    1    2  502    0 -0.94238173199E+02 -0.72446206267E+02  0.19471190436E+03  0.22816547545E+03  0.41800000000E+01 0. -1.
         -5    1    1    2    0  502 -0.22098351123E+02  0.13039872824E+02  0.25845535582E+03  0.25975954026E+03  0.41800000000E+01 0. -1.
        -11    1    1    2    0    0  0.37323526996E+02 -0.23177759651E+02  0.16206598187E+03  0.16791556416E+03  0.00000000000E+00 0.  1.
         11    1    1    2    0    0  0.79012997326E+02  0.82584093094E+02  0.30561394371E+03  0.32628678914E+03  0.00000000000E+00 0. -1.
</event>
<event>
 6    1  0.6597032E-006  0.1122035E+03  0.7561462E-02  0.1256543E+00
         -1   -1    0    0    0  501 -0.00000000000E+00  0.00000000000E+00  0.88657452777E+02  0.88657452777E+02  0.00000000000E+00 0.  1.
          1   -1    0    0  501    0  0.00000000000E+00 -0.00000000000E+00 -0.19904884766E+03  0.19904884766E+03  0.00000000000E+00 0. -1.
          5    1    1    2  502    0  0.31130029633E+02  0.57616071990E+02 -0.91807710721E+02  0.11284865371E+03  0.41800000000E+01 0. -1.
         -5    1    1    2    0  502 -0.37337160009E+02  0.20005654645E+02  0.24537439846E+02  0.49130928034E+02  0.41800000000E+01 0. -1.
        -11    1    1    2    0    0  0.45859216602E+02 -0.50299337550E+02 -0.14126090134E+02  0.69517174337E+02  0.00000000000E+00 0.  1.
         11    1    1    2    0    0 -0.39652086227E+02 -0.27322389085E+02 -0.28995033877E+02  0.56209544359E+02  0.00000000000E+00 0. -1.
</event>
<event>
 6    1  0.6597032E-006  0.1271080E+03  0.7561462E-02  0.1231811E+00
          1   -1    0    0  501    0  0.00000000000E+00  0.00000000000E+00  0.31989870515E+03  0.31989870515E+03  0.00000000000E+00 0. -1.
         -1   -1    0    0    0  501 -0.00000000000E+00 -0.00000000000E+00 -0.12286379106E+03  0.12286379106E+03  0.00000000000E+00 0.  1.
          5    1    1    2  502    0 -0.37254871331E+02 -0.10012302364E+03 -0.47344258535E+02  0.11692517486E+03  0.41800000000E+01 0.  1.
         -5    1    1    2    0  502  0.30807343580E+02  0.24259054148E+02 -0.14044936278E+02  0.41860802210E+02  0.41800000000E+01 0.  1.
        -11    1    1    2    0    0 -0.34917894733E+02  0.40257225844E+02  0.71046174319E+02  0.88811387167E+02  0.00000000000E+00 0.  1.
         11    1    1    2    0    0  0.41365422484E+02  0.35606743648E+02  0.18737793458E+03  0.19516513197E+03  0.00000000000E+00 0. -1.
</event>
<event>
 6    1  0.6597032E-006  0.1368651E+03  0.7561462E-02  0.1217611E+00
          2   -1    0    0  501    0  0.00000000000E+00  0.00000000000E+00  0.13498197410E+03  0.13498197410E+03  0.00000000000E+00 0. -1.
         -2   -1    0    0    0  501 -0.00000000000E+00 -0.00000000000E+00 -0.14742795698E+03  0.14742795698E+03  0.00000000000E+00 0.  1.
          5    1    1    2  502    0  0.68179975465E+02  0.54285064151E+02  0.49129081904E+01  0.87389852450E+02  0.41800000000E+01 0.  1.
         -5    1    1    2    0  502 -0.56352379890E+02  0.34499085252E+02 -0.58938443575E+01  0.66467942678E+02  0.41800000000E+01 0.  1.
        -11    1    1    2    0    0 -0.31822410424E+02 -0.27451411306E+01 -0.23154312811E+02  0.39450270047E+02  0.00000000000E+00 0. -1.
         11    1    1    2    0    0  0.19994814849E+02 -0.86039008273E+02  0.11689266102E+02  0.89101865903E+02  0.00000000000E+00 0.  1.
</event>
<event>
 6    1  0.6597032E-006  0.1012493E+03  0.7561462E-02  0.1277690E+00
         -1   -1    0    0    0  501 -0.00000000000E+00  0.00000000000E+00  0.26450790689E+03  0.26450790689E+03  0.00000000000E+00 0.  1.
          1   -1    0    0  501    0  0.00000000000E+00 -0.00000000000E+00 -0.47789992160E+02  0.47789992160E+02  0.00000000000E+00 0. -1.
          5    1    1    2  502    0 -0.44105744245E+02  0.11370692203E+02  0.11337111056E+03  0.12225011422E+03  0.41800000000E+01 0.  1.
         -5    1    1    2    0  502  0.63415461926E+02  0.42537924120E+01  0.32490899681E+02  0.71503472106E+02  0.41800000000E+01 0.  1.
        -11    1    1    2    0    0 -0.13029878271E+02 -0.53299627691E+02  0.53345233815E+02  0.76526740493E+02  0.00000000000E+00 0.  1.
         11    1    1    2    0    0 -0.62798394104E+01  0.37675143077E+02  0.17510670673E+02  0.42017572232E+02  0.00000000000E+00 0. -1.
</event>
<event>
 6    1  0.6597032E-006  0.1130344E+03  0.7561462E-02  0.1255052E+00
          2   -1    0    0  501    0  0.00000000000E+00  0.00000000000E+00  0.66176234739E+03  0.66176234739E+03  0.00000000000E+00 0. -1.
         -2   -1    0    0    0  501 -0.00000000000E+00 -0.00000000000E+00 -0.26677067926E+02  0.26677067926E+02  0.00000000000E+00 0.  1.
          5    1    1    2  502    0  0.23146451402E+02 -0.50031855257E+02  0.15921347191E+03  0.16853885840E+03  0.41800000000E+01 0.  1.
         -5    1    1    2    0  502 -0.90269441228E+02  0.11343618501E+02  0.20873503283E+03  0.22773896467E+03  0.41800000000E+01 0.  1.
        -11    1    1    2    0    0  0.42210736328E+02  0.34350524272E+02  0.26035345626E+03  0.26598050110E+03  0.00000000000E+00 0. -1.
         11    1    1    2    0    0  0.24912253499E+02  0.43377124844E+01  0.67833184650E+01  0.26181091142E+02  0.00000000000E+00 0.  1.
</event>
<event>
 6    1  0.6597032E-006  0.1388619E+03  0.7561462E-02  0.1214869E+00
          2   -1    0    0  501    0  0.00000000000E+00  0.00000000000E+00  0.74493763907E+03  0.74493763907E+03  0.00000000000E+00 0. -1.
         -2   -1    0    0    0  501 -0.00000000000E+00 -0.00000000000E+00 -0.41623533576E+02  0.41623533576E+02  0.00000000000E+00 0.  1.
          5    1    1    2  502    0  0.20914109125E+02  0.21647875407E+02  0.23164030831E+03  0.23362520263E+03  0.41800000000E+01 0.  1.
         -5    1    1    2    0  502  0.90983572565E+02  0.59388297385E+02  0.10494841145E+03  0.15111790697E+03  0.41800000000E+01 0.  1.
        -11    1    1    2    0    0 -0.36367474479E+02 -0.32881574972E+02  0.24958153486E+03  0.25435159468E+03  0.00000000000E+00 0. -1.
         11    1    1    2    0    0 -0.75530207212E+02 -0.48154597821E+02  0.11714385087E+03  0.14746646836E+03  0.00000000000E+00 0.  1.
</event>
<event>
 6    1  0.6597032E-006  0.1165513E+03  0.7561462E-02  0.1248897E+00
         -3   -1    0    0    0  501 -0.00000000000E+00  0.00000000000E+00  0.39911100145E+03  0.39911100145E+03  0.00000000000E+00 0.  1.
          3   -1    0    0  501    0  0.00000000000E+00 -0.00000000000E+00 -0.37868596172E+02  0.37868596172E+02  0.00000000000E+00 0. -1.
          5    1    1    2  502    0 -0.33290720674E+02  0.43374082417E+02  0.86974429573E+02  0.10281831990E+03  0.41800000000E+01 0.  1.
         -5    1    1    2    0  502  0.73650974564E+02 -0.20877550687E+02  0.17845259659E+03  0.19422445728E+03  0.41800000000E+01 0.  1.
        -11    1    1    2    0    0 -0.50671443005E+02  0.22495685998E+02  0.46165742508E+02  0.72145178675E+02  0.00000000000E+00 0. -1.
         11    1    1    2    0    0  0.10311189115E+02 -0.44992217728E+02  0.49649636605E+02  0.67791641757E+02  0.00000000000E+00 0.  1.
</event>
<event>
 6    1  0.6597032E-006  0.3702930E+03  0.7561462E-02  0.1054581E+00
          1   -1    0    0  501    0  0.00000000000E+00  0.00000000000E+00  0.14264535450E+03  0.14264535450E+03  0.00000000000E+00 0. -1.
         -1   -1    0    0    0  501 -0.00000000000E+00 -0.00000000000E+00 -0.10208536554E+04  0.10208536554E+04  0.00000000000E+00 0.  1.
          5    1    1    2  502    0 -0.22434883549E+02 -0.25415965723E+02 -0.23137767114E+02  0.41256805263E+02  0.41800000000E+01 0.  1.
         -5    1    1    2    0  502  0.98567003635E+02 -0.32322381341E+03 -0.54195363462E+03  0.63868638802E+03  0.41800000000E+01 0.  1.
        -11    1    1    2    0    0 -0.28088480174E+02  0.29555260669E+03 -0.25330564949E+03  0.39026152526E+03  0.00000000000E+00 0.  1.
         11    1    1    2    0    0 -0.48043639912E+02  0.53087172441E+02 -0.59811249712E+02  0.93294291390E+02  0.00000000000E+00 0. -1.
</event>
<event>
 6    1  0.6597032E-006  0.1354249E+03  0.7561462E-02  0.1219621E+00
         -2   -1    0    0    0  501 -0.00000000000E+00  0.00000000000E+00  0.12710109315E+03  0.12710109315E+03  0.00000000000E+00 0.  1.
          2   -1    0    0  501    0  0.00000000000E+00 -0.00000000000E+00 -0.26584604806E+03  0.26584604806E+03  0.00000000000E+00 0. -1.
          5    1    1    2  502    0 -0.70767089540E+02 -0.28675433755E+02  0.72030054952E+02  0.10505266622E+03  0.41800000000E+01 0. -1.
         -5    1    1    2    0  502 -0.35374943834E+02 -0.28503382948E+02 -0.52754724928E+02  0.69744984715E+02  0.41800000000E+01 0. -1.
        -11    1    1    2    0    0  0.54951865329E+02  0.76372777747E+02 -0.84002424672E+02  0.12613055155E+03  0.00000000000E+00 0. -1.
         11    1    1    2    0    0  0.51190168045E+02 -0.19193961044E+02 -0.74017860267E+02  0.92018938722E+02  0.00000000000E+00 0.  1.
</event>
<event>
 6    1  0.6597032E-006  0.1198329E+03  0.7561462E-02  0.1243373E+00
          1   -1    0    0  501    0  0.00000000000E+00  0.00000000000E+00  0.55436384540E+02  0.55436384540E+02  0.00000000000E+00 0. -1.
         -1   -1    0    0    0  501 -0.00000000000E+00 -0.00000000000E+00 -0.37635120335E+03  0.37635120335E+03  0.00000000000E+00 0.  1.
          5    1    1    2  502    0 -0.11042950776E+02  0.55041754695E+02 -0.16896570756E+03  0.17809667108E+03  0.41800000000E+01 0.  1.
         -5    1    1    2    0  502 -0.73270123081E+02 -0.25634816257E+02 -0.62540573155E+02  0.99771992219E+02  0.41800000000E+01 0.  1.
        -11    1    1    2    0    0  0.75098793404E+02 -0.44980482384E+02 -0.10003924151E+03  0.13293202176E+03  0.00000000000E+00 0.  1.
         11    1    1    2    0    0  0.92142804520E+01  0.15573543946E+02  0.10630703413E+02  0.20986902829E+02  0.00000000000E+00 0. -1.
</event>
<event>
 6    1  0.6597032E-006  0.1056364E+03  0.7561462E-02  0.1268871E+00
          1   -1    0    0  501    0  0.00000000000E+00  0.00000000000E+00  0.31689780663E+03  0.31689780663E+03  0.00000000000E+00 0. -1.
         -1   -1    0    0    0  501 -0.00000000000E+00 -0.00000000000E+00 -0.47873206305E+02  0.47873206305E+02  0.00000000000E+00 0.  1.
          5    1    1    2  502    0 -0.19113165838E+02  0.72689107368E+02  0.91850181748E+02  0.11875583238E+03  0.41800000000E+01 0. -1.
         -5    1    1    2    0  502  0.55031387298E+02 -0.25643617839E+02  0.43408383963E+02  0.74751648291E+02  0.41800000000E+01 0. -1.
        -11    1    1    2    0    0 -0.43882805923E+02 -0.22459783281E+02  0.13664005496E+03  0.14526061799E+03  0.00000000000E+00 0. -1.
         11    1    1    2    0    0  0.79645844631E+01 -0.24585706248E+02 -0.28740203458E+01  0.26002914266E+02  0.00000000000E+00 0.  1.
</event>
<event>
 6    1  0.6597032E-006  0.5240173E+02  0.7561462E-02  0.1432802E+00
          3   -1    0    0  501    0  0.00000000000E+00  0.00000000000E+00  0.97757893011E+02  0.97757893011E+02  0.00000000000E+00 0.  1.
         -3   -1    0    0    0  501 -0.00000000000E+00 -0.00000000000E+00 -0.12469950536E+03  0.12469950536E+03  0.00000000000E+00 0. -1.
          5    1    1    2  502    0 -0.17991937806E+02  0.17046958789E+02 -0.76838673978E+02  0.80845301958E+02  0.41800000000E+01 0. -1.
         -5    1    1    2    0  502  0.71348598564E+01 -0.12309178506E+02  0.46380648635E+02  0.48693521832E+02  0.41800000000E+01 0. -1.
        -11    1    1    2    0    0  0.19371257728E+02  0.26294914084E+02  0.35019517650E+02  0.47885642411E+02  0.00000000000E+00 0.  1.
         11    1    1    2    0    0 -0.85141797783E+01 -0.31032694367E+02 -0.31503104660E+02  0.45032932174E+02  0.00000000000E+00 0. -1.
</event>
<event>
 6    1  0.6597032E-006  0.9175335E+02  0.7561462E-02  0.1298660E+00
          2   -1    0    0  501    0  0.00000000000E+00  0.00000000000E+00  0.10501568079E+03  0.10501568079E+03  0.00000000000E+00 0. -1.
         -2   -1    0    0    0  501 -0.00000000000E+00 -0.00000000000E+00 -0.13281065525E+03  0.13281065525E+03  0.00000000000E+00 0.  1.
          5    1    1    2  502    0  0.32085638943E+02  0.32889118818E+02  0.18636861566E+02  0.49759294328E+02  0.41800000000E+01 0. -1.
         -5    1    1    2    0  502 -0.33645447785E+02  0.10521159576E+02 -0.73954810206E+02  0.82033513323E+02  0.41800000000E+01 0.  1.
        -11    1    1    2    0    0  0.32138561743E+02 -0.59270497183E+02  0.13075403430E+02  0.68679292091E+02  0.00000000000E+00 0.  1.
         11    1    1    2    0    0 -0.30578752901E+02  0.15860218789E+02  0.14447570743E+02  0.37354236298E+02  0.00000000000E+00 0. -1.
</event>
<event>
 6    1  0.6597032E-006  0.1237154E+03  0.7561462E-02  0.1237091E+00
         -4   -1    0    0    0  501 -0.00000000000E+00  0.00000000000E+00  0.10303947043E+03  0.10303947043E+03  0.00000000000E+00 0.  1.
          4   -1    0    0  501    0  0.00000000000E+00 -0.00000000000E+00 -0.24488887334E+03  0.24488887334E+03  0.00000000000E+00 0. -1.
          5    1    1    2  502    0 -0.47023310443E+02  0.33826875428E+02 -0.29242965075E+02  0.65023631340E+02  0.41800000000E+01 0. -1.
         -5    1    1    2    0  502  0.63014439515E+02  0.56042332699E+02  0.30699808518E+02  0.89841601080E+02  0.41800000000E+01 0. -1.
        -11    1    1    2    0    0  0.19048811942E+02 -0.29369388238E+02 -0.11035229412E+03  0.11577152940E+03  0.00000000000E+00 0. -1.
         11    1    1    2    0    0 -0.35039941013E+02 -0.60499819889E+02 -0.32953952229E+02  0.77291581949E+02  0.00000000000E+00 0.  1.
</event>
<event>
 6    1  0.6597032E-006  0.8965719E+02  0.7561462E-02  0.1303684E+00
         -1   -1    0    0    0  501 -0.00000000000E+00  0.00000000000E+00  0.32930779361E+03  0.32930779361E+03  0.00000000000E+00 0.  1.
          1   -1    0    0  501    0  0.00000000000E+00 -0.00000000000E+00 -0.42921573390E+02  0.42921573390E+02  0.00000000000E+00 0. -1.
          5    1    1    2  502    0  0.73647008400E+02  0.30569911444E+02  0.12505426330E+03  0.14837264742E+03  0.41800000000E+01 0.  1.
         -5    1    1    2    0  502 -0.51063507536E+02  0.83731211027E+01  0.57636659737E+02  0.77569632619E+02  0.41800000000E+01 0.  1.
        -11    1    1    2    0    0 -0.53838570014E+01 -0.24521676593E+02 -0.12428677214E+02  0.28013756557E+02  0.00000000000E+00 0. -1.
         11    1    1    2    0    0 -0.17199643862E+02 -0.14421355953E+02  0.11612397439E+03  0.11827333040E+03  0.00000000000E+00 0.  1.
</event>
<event>
 6    1  0.6597032E-006  0.1309282E+03  0.7561462E-02  0.1226085E+00
          1   -1    0    0  501    0  0.00000000000E+00  0.00000000000E+00  0.14545394531E+03  0.14545394531E+03  0.00000000000E+00 0. -1.
         -1   -1    0    0    0  501 -0.00000000000E+00 -0.00000000000E+00 -0.13858154851E+03  0.13858154851E+03  0.00000000000E+00 0.  1.
          5    1    1    2  502    0 -0.70214437825E+01  0.31510658516E+02  0.11638477904E+02  0.34570924790E+02  0.41800000000E+01 0.  1.
         -5    1    1    2    0  502  0.73839097911E+02 -0.84112251300E+02 -0.42586088557E+02  0.11982541691E+03  0.41800000000E+01 0.  1.
        -11    1    1    2    0    0 -0.85463007612E+02  0.37594232409E+02  0.46339513159E+02  0.10423340376E+03  0.00000000000E+00 0.  1.
         11    1    1    2    0    0  0.18645353484E+02  0.15007360375E+02 -0.85195057040E+01  0.25405748354E+02  0.00000000000E+00 0. -1.
</event>
<event>
 6    1  0.6597032E-006  0.1952072E+03  0.7561462E-02  0.1153847E+00
          1   -1    0    0  501    0  0.00000000000E+00  0.00000000000E+00  0.44797610270E+03  0.44797610270E+03  0.00000000000E+00 0. -1.
         -1   -1    0    0    0  501 -0.00000000000E+00 -0.00000000000E+00 -0.14757493637E+03  0.14757493637E+03  0.00000000000E+00 0.  1.
          5    1    1    2  502    0 -0.27646008368E+02  0.42369184153E+02 -0.23439085837E+02  0.55913439255E+02  0.41800000000E+01 0.  1.
         -5    1    1    2    0  502  0.12153590062E+03  0.10006083335E+03 -0.53706198012E+01  0.15757366996E+03  0.41800000000E+01 0.  1.
        -11    1    1    2    0    0  0.84125222728E+01 -0.25254058575E+02  0.11061577435E+03  0.11377340437E+03  0.00000000000E+00 0.  1.
         11    1    1    2    0    0 -0.10230241452E+03 -0.11717595893E+03  0.21859509761E+03  0.26829052549E+03  0.00000000000E+00 0. -1.
</event>
<event>
 6    1  0.6597032E-006  0.1608904E+03  0.7561462E-02  0.1187695E+00
          2   -1    0    0  501    0  0.00000000000E+00  0.00000000000E+00  0.10993099425E+03  0.10993099425E+03  0.00000000000E+00 0. -1.
         -2   -1    0    0    0  501 -0.00000000000E+00 -0.00000000000E+00 -0.23980310229E+03  0.23980310229E+03  0.00000000000E+00 0.  1.
          5    1    1    2  502    0  0.26028298978E+02  0.13028092483E+03 -0.68892143738E+02  0.14971369874E+03  0.41800000000E+01 0.  1.
         -5    1    1    2    0  502 -0.40216338825E+02 -0.83346807501E+01 -0.99220348128E+01  0.42458685643E+02  0.41800000000E+01 0.  1.
        -11    1    1    2    0    0  0.39630554569E+02 -0.23892567116E+02 -0.26501854425E+02  0.53327140434E+02  0.00000000000E+00 0.  1.
         11    1    1    2    0    0 -0.25442514722E+02 -0.98053676961E+02 -0.24556075062E+02  0.10423457173E+03  0.00000000000E+00 0. -1.
</event>
<event>
 6    1  0.6597032E-006  0.8959907E+02  0.7561462E-02  0.1303826E+00
         -2   -1    0    0    0  501 -0.00000000000E+00  0.00000000000E+00  0.42219618071E+03  0.42219618071E+03  0.00000000000E+00 0.  1.
          2   -1    0    0  501    0  0.00000000000E+00 -0.00000000000E+00 -0.73719181240E+02  0.73719181240E+02  0.00000000000E+00 0. -1.
          5    1    1    2  502    0 -0.57935772181E+02 -0.22095168624E+02  0.34233294067E+03  0.34792824668E+03  0.41800000000E+01 0. -1.
         -5    1    1    2    0  502  0.33931750564E+02  0.10998962994E+02  0.33709479443E+02  0.49255885817E+02  0.41800000000E+01 0. -1.
        -11    1    1    2    0    0  0.52085762160E+02  0.99813547278E+01 -0.41520275080E+02  0.67353450578E+02  0.00000000000E+00 0. -1.
         11    1    1    2    0    0 -0.28081740543E+02  0.11148509025E+01  0.13954854438E+02  0.31377778871E+02  0.00000000000E+00 0.  1.
</event>
<event>
 6    1  0.6597032E-006  0.1150940E+03  0.7561462E-02  0.1251417E+00
         -4   -1    0    0    0  501 -0.00000000000E+00  0.00000000000E+00  0.38671216562E+02  0.38671216562E+02  0.00000000000E+00 0.  1.
          4   -1    0    0  501    0  0.00000000000E+00 -0.00000000000E+00 -0.38827064727E+03  0.38827064727E+03  0.00000000000E+00 0. -1.
          5    1    1    2  502    0  0.56186940410E+02  0.47358746280E+02 -0.83324911972E+02  0.11117705014E+03  0.41800000000E+01 0.  1.
         -5    1    1    2    0  502 -0.13919101232E+02 -0.56618049290E+02 -0.54663196116E+02  0.80030508521E+02  0.41800000000E+01 0.  1.
        -11    1    1    2    0    0  0.21366770423E+02 -0.18917904476E+02 -0.10182306155E+03  0.10574668719E+03  0.00000000000E+00 0. -1.
         11    1    1    2    0    0 -0.63634609601E+02  0.28177207486E+02 -0.10978826108E+03  0.12998761799E+03  0.00000000000E+00 0.  1.
</event>
<event>
 6    1  0.6597032E-006  0.1931168E+03  0.7561462E-02  0.1155680E+00
          2   -1    0    0  501    0  0.00000000000E+00  0.00000000000E+00  0.10691204619E+04  0.10691204619E+04  0.00000000000E+00 0. -1.
         -2   -1    0    0    0  501 -0.00000000000E+00 -0.00000000000E+00 -0.36694553788E+02  0.36694553788E+02  0.00000000000E+00 0.  1.
          5    1    1    2  502    0  0.29501992538E+01  0.15144546064E+03  0.32867725558E+03  0.36192629355E+03  0.41800000000E+01 0.  1.
         -5    1    1    2    0  502 -0.53595701983E+02  0.42259512168E+01  0.14043265724E+03  0.15042992240E+03  0.41800000000E+01 0.  1.
        -11    1    1    2    0    0 -0.15286899136E+02 -0.75234528763E+02  0.16835477176E+03  0.18503311265E+03  0.00000000000E+00 0.  1.
         11    1    1    2    0    0  0.65932401865E+02 -0.80436883097E+02  0.39496122357E+03  0.40842568712E+03  0.00000000000E+00 0. -1.
</event>
<event>
 6    1  0.6597032E-006  0.2119568E+03  0.7561462E-02  0.1140026E+00
          1   -1    0    0  501    0  0.00000000000E+00  0.00000000000E+00  0.97965264891E+03  0.97965264891E+03  0.00000000000E+00 0. -1.
         -1   -1    0    0    0  501 -0.00000000000E+00 -0.00000000000E+00 -0.65857302062E+02  0.65857302062E+02  0.00000000000E+00 0.  1.
          5    1    1    2  502    0 -0.12077622546E+03  0.28111988232E+01  0.22762734962E+03  0.25773335479E+03  0.41800000000E+01 0.  1.
         -5    1    1    2    0  502 -0.80140136084E+02  0.23165420880E+02  0.20196167478E+02  0.85932739493E+02  0.41800000000E+01 0.  1.
        -11    1    1    2    0    0  0.58473587378E+02  0.30890855878E+02  0.15974739734E+03  0.17289487081E+03  0.00000000000E+00 0.  1.
         11    1    1    2    0    0  0.14244277416E+03 -0.56867475581E+02  0.50622443241E+03  0.52894898588E+03  0.00000000000E+00 0. -1.
</event>
<event>
 6    1  0.6597032E-006  0.3235610E+03  0.7561462E-02  0.1074022E+00
          3   -1    0    0  501    0  0.00000000000E+00  0.00000000000E+00  0.25164931975E+03  0.25164931975E+03  0.00000000000E+00 0. -1.
         -3   -1    0    0    0  501 -0.00000000000E+00 -0.00000000000E+00 -0.62125957319E+03  0.62125957319E+03  0.00000000000E+00 0.  1.
          5    1    1    2  502    0 -0.64106171715E+02 -0.18345068200E+03 -0.32730428517E+03  0.38066956993E+03  0.41800000000E+01 0. -1.
         -5    1    1    2    0  502 -0.87547989277E+02 -0.96732925480E+02 -0.87660044492E+02  0.15723760714E+03  0.41800000000E+01 0. -1.
        -11    1    1    2    0    0  0.13747449824E+03  0.21272815498E+03  0.14692523653E+01  0.25328771050E+03  0.00000000000E+00 0.  1.
         11    1    1    2    0    0  0.14179662756E+02  0.67455452503E+02  0.43884823863E+02  0.81714005371E+02  0.00000000000E+00 0. -1.
</event>
<event>
 6    1  0.6597032E-006  0.1174731E+03  0.7561462E-02  0.1247325E+00
          2   -1    0    0  501    0  0.00000000000E+00  0.00000000000E+00  0.31278184744E+03  0.31278184744E+03  0.00000000000E+00 0. -1.
         -2   -1    0    0    0  501 -0.00000000000E+00 -0.00000000000E+00 -0.81708720317E+02  0.81708720317E+02  0.00000000000E+00 0.  1.
          5    1    1    2  502    0 -0.12428387239E+02  0.40597555843E+02 -0.23744201262E+02  0.48825053439E+02  0.41800000000E+01 0. -1.
         -5    1    1    2    0  502  0.82142656432E+02 -0.34036233593E+02  0.32609233675E+02  0.94798289667E+02  0.41800000000E+01 0. -1.
        -11    1    1    2    0    0 -0.32170766538E+02 -0.41142761489E+02  0.17004674636E+03  0.17788642722E+03  0.00000000000E+00 0. -1.
         11    1    1    2    0    0 -0.37543502655E+02  0.34581439239E+02  0.52161348345E+02  0.72980797424E+02  0.00000000000E+00 0.  1.
</event>
<event>
 6    1  0.6597032E-006  0.9311764E+02  0.7561462E-02  0.1295473E+00
          1   -1    0    0  501    0  0.00000000000E+00  0.00000000000E+00  0.13291681993E+03  0.13291681993E+03  0.00000000000E+00 0. -1.
         -1   -1    0    0    0  501 -0.00000000000E+00 -0.00000000000E+00 -0.90100123059E+02  0.90100123059E+02  0.00000000000E+00 0.  1.
          5    1    1    2  502    0  0.56179413457E+02  0.13603246590E+02 -0.19650224117E+02  0.61194595530E+02  0.41800000000E+01 0.  1.
         -5    1    1    2    0  502 -0.47485619596E+02 -0.38995274944E+02  0.26143562191E+02  0.66906455447E+02  0.41800000000E+01 0.  1.
        -11    1    1    2    0    0  0.26194566469E+02  0.15473223273E+02 -0.13503610082E+02  0.33285483866E+02  0.00000000000E+00 0.  1.
         11    1    1    2    0    0 -0.34888360330E+02  0.99188050820E+01  0.49826968879E+02  0.61630408148E+02  0.00000000000E+00 0. -1.
</event>
<event>
 6    1  0.6597032E-006  0.1099922E+03  0.7561462E-02  0.1260584E+00
          1   -1    0    0  501    0  0.00000000000E+00  0.00000000000E+00  0.32171569000E+03  0.32171569000E+03  0.00000000000E+00 0. -1.
         -1   -1    0    0    0  501 -0.00000000000E+00 -0.00000000000E+00 -0.42929926900E+02  0.42929926900E+02  0.00000000000E+00 0.  1.
          5    1    1    2  502    0 -0.54077274275E+02  0.10669035494E+02  0.45082568267E+02  0.71330850779E+02  0.41800000000E+01 0.  1.
         -5    1    1    2    0  502  0.69664341562E+02  0.30996262969E+02  0.90865423074E+02  0.11869240209E+03  0.41800000000E+01 0.  1.
        -11    1    1    2    0    0  0.88417304394E+01 -0.58184970760E+02  0.50037454376E+02  0.77249037922E+02  0.00000000000E+00 0.  1.
         11    1    1    2    0    0 -0.24428797727E+02  0.16519672296E+02  0.92800317385E+02  0.97373326111E+02  0.00000000000E+00 0. -1.
</event>
<event>
 6    1  0.6597032E-006  0.8997597E+02  0.7561462E-02  0.1302910E+00
         -2   -1    0    0    0  501 -0.00000000000E+00  0.00000000000E+00  0.38386495977E+02  0.38386495977E+02  0.00000000000E+00 0.  1.
          2   -1    0    0  501    0  0.00000000000E+00 -0.00000000000E+00 -0.40729912513E+03  0.40729912513E+03  0.00000000000E+00 0. -1.
          5    1    1    2  502    0 -0.39974311740E+02 -0.30717112699E+02 -0.11349148939E+03  0.12425488793E+03  0.41800000000E+01 0. -1.
         -5    1    1    2    0  502  0.14182110736E+02  0.37738569265E+02  0.82860251353E+01  0.41369825811E+02  0.41800000000E+01 0. -1.
        -11    1    1    2    0    0  0.56986806061E+02 -0.62296307251E+00 -0.11969265528E+03  0.13256777843E+03  0.00000000000E+00 0. -1.
         11    1    1    2    0    0 -0.31194605057E+02 -0.63984934936E+01 -0.14401450961E+03  0.14749312893E+03  0.00000000000E+00 0.  1.
</event>
<event>
 6    1  0.6597032E-006  0.1186342E+03  0.7561462E-02  0.1245367E+00
          2   -1    0    0  501    0  0.00000000000E+00  0.00000000000E+00  0.42441378688E+03  0.42441378688E+03  0.00000000000E+00 0. -1.
         -2   -1    0    0    0  501 -0.00000000000E+00 -0.00000000000E+00 -0.41258659607E+02  0.41258659607E+02  0.00000000000E+00 0.  1.
          5    1    1    2  502    0  0.33544372769E+02  0.46980212045E+02  0.94648039839E+02  0.11094182761E+03  0.41800000000E+01 0.  1.
         -5    1    1    2    0  502  0.33328203872E+02 -0.72885901669E+02  0.57846504692E+02  0.98928329312E+02  0.41800000000E+01 0.  1.
        -11    1    1    2    0    0 -0.49208688250E+02 -0.17537529011E+02  0.63707195662E+02  0.82387296971E+02  0.00000000000E+00 0.  1.
         11    1    1    2    0    0 -0.17663888390E+02  0.43443218635E+02  0.16695338708E+03  0.17341499260E+03  0.00000000000E+00 0. -1.
</event>
<event>
 6    1  0.6597032E-006  0.8919055E+02  0.7561462E-02  0.1304824E+00
         -2   -1    0    0    0  501 -0.00000000000E+00  0.00000000000E+00  0.10475565890E+03  0.10475565890E+03  0.00000000000E+00 0. -1.
          2   -1    0    0  501    0  0.00000000000E+00 -0.00000000000E+00 -0.13420740862E+03  0.13420740862E+03  0.00000000000E+00 0.  1.
          5    1    1    2  502    0  0.44147742953E+01  0.38686712825E+02  0.46926767909E+02  0.61120748750E+02  0.41800000000E+01 0. -1.
         -5    1    1    2    0  502 -0.16250350420E+02 -0.54589765956E+02 -0.33557411620E+02  0.66239630966E+02  0.41800000000E+01 0. -1.
        -11    1    1    2    0    0  0.25771628312E+02 -0.26805300537E+02 -0.53758639162E+02  0.65365833944E+02  0.00000000000E+00 0.  1.
         11    1    1    2    0    0 -0.13936052187E+02  0.42708353667E+02  0.10937533156E+02  0.46236853862E+02  0.00000000000E+00 0. -1.
</event>
<event>
 6    1  0.6597032E-006  0.1218599E+03  0.7561462E-02  0.1240060E+00
         -1   -1    0    0    0  501 -0.00000000000E+00  0.00000000000E+00  0.39364375234E+02  0.39364375234E+02  0.00000000000E+00 0.  1.
          1   -1    0    0  501    0  0.00000000000E+00 -0.00000000000E+00 -0.51411245202E+03  0.51411245202E+03  0.00000000000E+00 0. -1.
          5    1    1    2  502    0 -0.30333105526E+02  0.20854357848E+02 -0.10676438724E+02  0.38554640135E+02  0.41800000000E+01 0.  1.
         -5    1    1    2    0  502 -0.16122437480E+02 -0.95222392036E+02 -0.19493370117E+03  0.21758643613E+03  0.41800000000E+01 0.  1.
        -11    1    1    2    0    0  0.89493042502E+01  0.71859789865E+02 -0.23720746220E+03  0.24801471644E+03  0.00000000000E+00 0.  1.
         11    1    1    2    0    0  0.37506238756E+02  0.25082443227E+01 -0.31930474689E+02  0.49321034550E+02  0.00000000000E+00 0. -1.
</event>
<event>
 6    1  0.6597032E-006  0.1306989E+03  0.7561462E-02  0.1226422E+00
         -2   -1    0    0    0  501 -0.00000000000E+00  0.00000000000E+00  0.55194070223E+02  0.55194070223E+02  0.00000000000E+00 0.  1.
          2   -1    0    0  501    0  0.00000000000E+00 -0.00000000000E+00 -0.50730222264E+03  0.50730222264E+03  0.00000000000E+00 0. -1.
          5    1    1    2  502    0 -0.31885047214E+01 -0.32270321233E+02 -0.10267816941E+02  0.34270113212E+02  0.41800000000E+01 0.  1.
         -5    1    1    2    0  502  0.84027983573E+02  0.93959728089E+02 -0.10151386274E+03  0.16190018300E+03  0.41800000000E+01 0.  1.
        -11    1    1    2    0    0 -0.39488434217E+02 -0.38598239338E+02 -0.58105765938E+02  0.80158845751E+02  0.00000000000E+00 0.  1.
         11    1    1    2    0    0 -0.41351044635E+02 -0.23091167518E+02 -0.28222070679E+03  0.28616715090E+03  0.00000000000E+00 0. -1.
</event>
<event>
 6    1  0.6597032E-006  0.7114230E+02  0.7561462E-02  0.1356251E+00
          1   -1    0    0  501    0  0.00000000000E+00  0.00000000000E+00  0.23724990956E+03  0.23724990956E+03  0.00000000000E+00 0. -1.
         -1   -1    0    0    0  501 -0.00000000000E+00 -0.00000000000E+00 -0.52783246829E+02  0.52783246829E+02  0.00000000000E+00 0.  1.
          5    1    1    2  502    0  0.14343625910E+02 -0.20715763854E+02  0.10523839432E+03  0.10829346479E+03  0.41800000000E+01 0.  1.
         -5    1    1    2    0  502 -0.24074312885E+02  0.68791569301E+01 -0.29487619176E+02  0.38908706296E+02  0.41800000000E+01 0.  1.
        -11    1    1    2    0    0  0.58704524493E+01 -0.38467369095E+02  0.34832867152E+02  0.52225753523E+02  0.00000000000E+00 0.  1.
         11    1    1    2    0    0  0.38602345254E+01  0.52303976018E+02  0.73883020428E+02  0.90605231778E+02  0.00000000000E+00 0. -1.
</event>
<event>
 6    1  0.6597032E-006  0.1349694E+03  0.7561462E-02  0.1220263E+00
          1   -1    0    0  501    0  0.00000000000E+00  0.00000000000E+00  0.10029783339E+03  0.10029783339E+03  0.00000000000E+00 0. -1.
         -1   -1    0    0    0  501 -0.00000000000E+00 -0.00000000000E+00 -0.26271684179E+03  0.26271684179E+03  0.00000000000E+00 0.  1.
          5    1    1    2  502    0 -0.34778086918E+02 -0.11385847194E+02  0.25848284054E+02  0.44997322526E+02  0.41800000000E+01 0. -1.
         -5    1    1    2    0  502 -0.80796239825E+02  0.41801716691E+02 -0.12421785107E+03  0.15402260487E+03  0.41800000000E+01 0. -1.
        -11    1    1    2    0    0  0.72933481819E+02  0.20373063745E+02 -0.61756107518E+01  0.75976921922E+02  0.00000000000E+00 0.  1.
         11    1    1    2    0    0  0.42640844924E+02 -0.50788933242E+02 -0.57873830638E+02  0.88017825856E+02  0.00000000000E+00 0. -1.
</event>
<event>
 6    1  0.6597032E-006  0.8441605E+02  0.7561462E-02  0.1316967E+00
         -2   -1    0    0    0  501 -0.00000000000E+00  0.00000000000E+00  0.33375804988E+03  0.33375804988E+03  0.00000000000E+00 0.  1.
          2   -1    0    0  501    0  0.00000000000E+00 -0.00000000000E+00 -0.41358213480E+02  0.41358213480E+02  0.00000000000E+00 0. -1.
          5    1    1    2  502    0 -0.76891020460E+02 -0.14036629631E+02  0.17765116644E+03  0.19413053684E+03  0.41800000000E+01 0.  1.
         -5    1    1    2    0  502  0.36937747080E+02 -0.47360195468E+01  0.16388065628E+02  0.40900710697E+02  0.41800000000E+01 0.  1.
        -11    1    1    2    0    0  0.20307538812E+02  0.25245986745E+02  0.11114309929E+03  0.11576935907E+03  0.00000000000E+00 0.  1.
         11    1    1    2    0    0  0.19645734568E+02 -0.64733375665E+01 -0.12782494955E+02  0.24315656751E+02  0.00000000000E+00 0. -1.
</event>
<event>
 6    1  0.6597032E-006  0.2071370E+03  0.7561462E-02  0.1143853E+00
          1   -1    0    0  501    0  0.00000000000E+00  0.00000000000E+00  0.47640988010E+02  0.47640988010E+02  0.00000000000E+00 0. -1.
         -1   -1    0    0    0  501 -0.00000000000E+00 -0.00000000000E+00 -0.16596947381E+04  0.16596947381E+04  0.00000000000E+00 0.  1.
          5    1    1    2  502    0  0.73810947295E+02 -0.13069673219E+02 -0.34115292453E+03  0.34931599249E+03  0.41800000000E+01 0.  1.
         -5    1    1    2    0  502  0.30852046263E+02 -0.14095623358E+03 -0.10302478275E+04  0.10403117643E+04  0.41800000000E+01 0.  1.
        -11    1    1    2    0    0 -0.10220614919E+03  0.10778472614E+03 -0.22343594879E+03  0.26830443033E+03  0.00000000000E+00 0.  1.
         11    1    1    2    0    0 -0.24568443662E+01  0.46241180658E+02 -0.17217049231E+02  0.49403538913E+02  0.00000000000E+00 0. -1.
</event>
<event>
 6    1  0.6597032E-006  0.8045948E+02  0.7561462E-02  0.1327753E+00
          3   -1    0    0  501    0  0.00000000000E+00  0.00000000000E+00  0.72865189244E+02  0.72865189244E+02  0.00000000000E+00 0. -1.
         -3   -1    0    0    0  501 -0.00000000000E+00 -0.00000000000E+00 -0.16080992877E+03  0.16080992877E+03  0.00000000000E+00 0.  1.
          5    1    1    2  502    0 -0.21194649979E+02 -0.31703233928E+02  0.27373150370E+02  0.47128229231E+02  0.41800000000E+01 0. -1.
         -5    1    1    2    0  502  0.18165100945E+02  0.35826524890E+02 -0.78158390238E+02  0.87975662217E+02  0.41800000000E+01 0. -1.
        -11    1    1    2    0    0  0.11478491178E+01  0.38994261011E+02 -0.39280055528E+02  0.55360570009E+02  0.00000000000E+00 0.  1.
         11    1    1    2    0    0  0.18816999169E+01 -0.43117551972E+02  0.21205558738E+01  0.43210656554E+02  0.00000000000E+00 0. -1.
</event>
<event>
 6    1  0.6597032E-006  0.1322477E+03  0.7561462E-02  0.1224158E+00
         -1   -1    0    0    0  501 -0.00000000000E+00  0.00000000000E+00  0.40413264424E+02  0.40413264424E+02  0.00000000000E+00 0.  1.
          1   -1    0    0  501    0  0.00000000000E+00 -0.00000000000E+00 -0.65819364344E+03  0.65819364344E+03  0.00000000000E+00 0. -1.
          5    1    1    2  502    0 -0.59194594403E+02  0.73915428327E+02 -0.54376012991E+02  0.10927814850E+03  0.41800000000E+01 0.  1.
         -5    1    1    2    0  502  0.19296207990E+02  0.24005125046E+02 -0.14723804959E+03  0.15048290706E+03  0.41800000000E+01 0.  1.
        -11    1    1    2    0    0  0.22165034498E+02 -0.11311874544E+03 -0.36044422414E+03  0.37842724273E+03  0.00000000000E+00 0. -1.
         11    1    1    2    0    0  0.17733351915E+02  0.15198192069E+02 -0.55722092297E+02  0.60418609569E+02  0.00000000000E+00 0.  1.
</event>
<event>
 6    1  0.6597032E-006  0.1752657E+03  0.7561462E-02  0.1172465E+00
         -2   -1    0    0    0  501 -0.00000000000E+00  0.00000000000E+00  0.89788296830E+02  0.89788296830E+02  0.00000000000E+00 0.  1.
          2   -1    0    0  501    0  0.00000000000E+00 -0.00000000000E+00 -0.49462958914E+03  0.49462958914E+03  0.00000000000E+00 0. -1.
          5    1    1    2  502    0 -0.72622141367E+01  0.16556551190E+03 -0.57920780073E+02  0.17560457753E+03  0.41800000000E+01 0.  1.
         -5    1    1    2    0  502  0.12911899067E+02  0.45835022665E+01 -0.69804942867E+02  0.71259582368E+02  0.41800000000E+01 0.  1.
        -11    1    1    2    0    0 -0.66624888943E+01 -0.80687820549E+02 -0.54402882316E+02  0.97542743183E+02  0.00000000000E+00 0.  1.
         11    1    1    2    0    0  0.10128039644E+01 -0.89461193614E+02 -0.22271268705E+03  0.24001098289E+03  0.00000000000E+00 0. -1.
</event>
<event>
 6    1  0.6597032E-006  0.1151903E+03  0.7561462E-02  0.1251249E+00
          2   -1    0    0  501    0  0.00000000000E+00  0.00000000000E+00  0.12302332355E+03  0.12302332355E+03  0.00000000000E+00 0. -1.
         -2   -1    0    0    0  501 -0.00000000000E+00 -0.00000000000E+00 -0.19007763829E+03  0.19007763829E+03  0.00000000000E+00 0.  1.
          5    1    1    2  502    0  0.82443856617E+02  0.68889977062E+02 -0.41779981275E+02  0.11535101937E+03  0.41800000000E+01 0.  1.
         -5    1    1    2    0  502 -0.32643054952E+02  0.23358364806E+01 -0.58030835484E+02  0.66753842104E+02  0.41800000000E+01 0.  1.
        -11    1    1    2    0    0 -0.36219999613E+02 -0.31900865565E+02  0.63142927703E+02  0.79476933224E+02  0.00000000000E+00 0. -1.
         11    1    1    2    0    0 -0.13580802052E+02 -0.39324947977E+02 -0.30386425684E+02  0.51519167148E+02  0.00000000000E+00 0.  1.
</event>
<event>
 6    1  0.6597032E-006  0.1403572E+03  0.7561462E-02  0.1212849E+00
          1   -1    0    0  501    0  0.00000000000E+00  0.00000000000E+00  0.97281207690E+02  0.97281207690E+02  0.00000000000E+00 0. -1.
         -1   -1    0    0    0  501 -0.00000000000E+00 -0.00000000000E+00 -0.29730841408E+03  0.29730841408E+03  0.00000000000E+00 0.  1.
          5    1    1    2  502    0 -0.25582912413E+02 -0.24369340408E+02  0.20901338988E+02  0.41263646602E+02  0.41800000000E+01 0.  1.
         -5    1    1    2    0  502  0.36388019508E+02 -0.10581965669E+03 -0.12338113518E+03  0.16662012071E+03  0.41800000000E+01 0.  1.
        -11    1    1    2    0    0 -0.15558031814E+02  0.41179274407E+02 -0.86278909819E+02  0.96859874428E+02  0.00000000000E+00 0.  1.
         11    1    1    2    0    0  0.47529247194E+01  0.89009722695E+02 -0.11268500381E+02  0.89845980035E+02  0.00000000000E+00 0. -1.
</event>
<event>
 6    1  0.6597032E-006  0.1019872E+03  0.7561462E-02  0.1276172E+00
         -2   -1    0    0    0  501 -0.00000000000E+00  0.00000000000E+00  0.38805563251E+03  0.38805563251E+03  0.00000000000E+00 0. -1.
          2   -1    0    0  501    0  0.00000000000E+00 -0.00000000000E+00 -0.45646837995E+02  0.45646837995E+02  0.00000000000E+00 0.  1.
          5    1    1    2  502    0  0.28492742203E+02  0.20474994824E+02  0.32014875995E+01  0.35479341794E+02  0.41800000000E+01 0. -1.
         -5    1    1    2    0  502  0.37266180371E+02 -0.45429676849E+02  0.23802640761E+03  0.24520739560E+03  0.41800000000E+01 0. -1.
        -11    1    1    2    0    0  0.19841384294E+02  0.11916293592E+02  0.42574584992E+02  0.48458991641E+02  0.00000000000E+00 0.  1.
         11    1    1    2    0    0 -0.85600306868E+02  0.13038388434E+02  0.58606314314E+02  0.10455674147E+03  0.00000000000E+00 0. -1.
</event>
<event>
 6    1  0.6597032E-006  0.8393203E+02  0.7561462E-02  0.1318249E+00
          2   -1    0    0  501    0  0.00000000000E+00  0.00000000000E+00  0.44845571644E+03  0.44845571644E+03  0.00000000000E+00 0. -1.
         -2   -1    0    0    0  501 -0.00000000000E+00 -0.00000000000E+00 -0.29275185453E+02  0.29275185453E+02  0.00000000000E+00 0.  1.
          5    1    1    2  502    0 -0.25046500408E+01 -0.37274897827E+02  0.25132683586E+01  0.37675989671E+02  0.41800000000E+01 0. -1.
         -5    1    1    2    0  502  0.20949134826E+01  0.49705813909E+02  0.13221445970E+03  0.14132654511E+03  0.41800000000E+01 0.  1.
        -11    1    1    2    0    0  0.37275372411E+02 -0.20597108967E+02  0.21953726539E+03  0.22362983965E+03  0.00000000000E+00 0. -1.
         11    1    1    2    0    0 -0.36865635853E+02  0.81661928847E+01  0.64915537534E+02  0.75098527458E+02  0.00000000000E+00 0.  1.
</event>
<event>
 6    1  0.6597032E-006  0.1522544E+03  0.7561462E-02  0.1197730E+00
          2   -1    0    0  501    0  0.00000000000E+00  0.00000000000E+00  0.23339765005E+03  0.23339765005E+03  0.00000000000E+00 0. -1.
         -2   -1    0    0    0  501 -0.00000000000E+00 -0.00000000000E+00 -0.11178274727E+03  0.11178274727E+03  0.00000000000E+00 0.  1.
          5    1    1    2  502    0 -0.18545627061E+02  0.18800680408E+02 -0.10178723113E+02  0.28609171102E+02  0.41800000000E+01 0.  1.
         -5    1    1    2    0  502  0.10186741355E+03 -0.89989440874E+02  0.25988535041E+02  0.13844835054E+03  0.41800000000E+01 0.  1.
        -11    1    1    2    0    0  0.18701534719E+02  0.20881820596E+02  0.11257646128E+02  0.30208151691E+02  0.00000000000E+00 0.  1.
         11    1    1    2    0    0 -0.10202332121E+03  0.50306939870E+02  0.94547444719E+02  0.14791472399E+03  0.00000000000E+00 0. -1.
</event>
<event>
 6    1  0.6597032E-006  0.1178778E+03  0.7561462E-02  0.1246640E+00
         -3   -1    0    0    0  501 -0.00000000000E+00  0.00000000000E+00  0.15223361179E+03  0.15223361179E+03  0.00000000000E+00 0.  1.
          3   -1    0    0  501    0  0.00000000000E+00 -0.00000000000E+00 -0.12828942226E+03  0.12828942226E+03  0.00000000000E+00 0. -1.
          5    1    1    2  502    0 -0.10318828766E+03  0.46929209405E+02  0.53958061944E+01  0.11356390505E+03  0.41800000000E+01 0. -1.
         -5    1    1    2    0  502  0.26663391723E+02  0.76447496364E+01  0.22658261088E+02  0.36058949662E+02  0.41800000000E+01 0.  1.
        -11    1    1    2    0    0  0.22078339336E+02 -0.11825812341E+02  0.41165179543E+02  0.48185837257E+02  0.00000000000E+00 0.  1.
         11    1    1    2    0    0  0.54446556606E+02 -0.42748146700E+02 -0.45275057300E+02  0.82714342082E+02  0.00000000000E+00 0. -1.
</event>
<event>
 6    1  0.6597032E-006  0.7483161E+02  0.7561462E-02  0.1344393E+00
         -1   -1    0    0    0  501 -0.00000000000E+00  0.00000000000E+00  0.12844505744E+04  0.12844505744E+04  0.00000000000E+00 0.  1.
          1   -1    0    0  501    0  0.00000000000E+00 -0.00000000000E+00 -0.10262982797E+02  0.10262982797E+02  0.00000000000E+00 0. -1.
          5    1    1    2  502    0 -0.65652585014E+01  0.77301195801E+01  0.76978512083E+03  0.76986327488E+03  0.41800000000E+01 0. -1.
         -5    1    1    2    0  502  0.12990165123E+02 -0.45988494366E+02  0.11562242230E+03  0.12517868406E+03  0.41800000000E+01 0. -1.
        -11    1    1    2    0    0  0.13802314743E+02 -0.22661124752E+02  0.79841390582E+02  0.84134880504E+02  0.00000000000E+00 0. -1.
         11    1    1    2    0    0 -0.20227221365E+02  0.60919499538E+02  0.30893865789E+03  0.31553671775E+03  0.00000000000E+00 0.  1.
</event>
<event>
 6    1  0.6597032E-006  0.1031945E+03  0.7561462E-02  0.1273718E+00
          1   -1    0    0  501    0  0.00000000000E+00  0.00000000000E+00  0.38617820887E+03  0.38617820887E+03  0.00000000000E+00 0. -1.
         -1   -1    0    0    0  501 -0.00000000000E+00 -0.00000000000E+00 -0.32924531055E+02  0.32924531055E+02  0.00000000000E+00 0.  1.
          5    1    1    2  502    0  0.17403515270E+02  0.67954745126E+02  0.17189029342E+03  0.18569995989E+03  0.41800000000E+01 0. -1.
         -5    1    1    2    0  502 -0.19840045986E+02 -0.38756028928E+02  0.28055913655E+02  0.51964063486E+02  0.41800000000E+01 0. -1.
        -11    1    1    2    0    0  0.35236907257E+02  0.14189117185E+02  0.36934416156E+02  0.52982277946E+02  0.00000000000E+00 0.  1.
         11    1    1    2    0    0 -0.32800376540E+02 -0.43387833383E+02  0.11637305458E+03  0.12845643861E+03  0.00000000000E+00 0. -1.
</event>
<event>
 6    1  0.6597032E-006  0.2435234E+03  0.7561462E-02  0.1117468E+00
          1   -1    0    0  501    0  0.00000000000E+00  0.00000000000E+00  0.30299417013E+03  0.30299417013E+03  0.00000000000E+00 0. -1.
         -1   -1    0    0    0  501 -0.00000000000E+00 -0.00000000000E+00 -0.21608492189E+03  0.21608492189E+03  0.00000000000E+00 0.  1.
          5    1    1    2  502    0  0.66733750661E+02 -0.78500374170E+01 -0.13455577398E+02  0.68655236711E+02  0.41800000000E+01 0. -1.
         -5    1    1    2    0  502  0.33124439985E+02  0.19411769490E+03 -0.66450575528E+01  0.19708002737E+03  0.41800000000E+01 0.  1.
        -11    1    1    2    0    0 -0.46297521862E+02 -0.24560836923E+02  0.44423084622E+00  0.52410805965E+02  0.00000000000E+00 0.  1.
         11    1    1    2    0    0 -0.53560668785E+02 -0.16170682056E+03  0.10656565235E+03  0.20093302197E+03  0.00000000000E+00 0. -1.
</event>
<event>
 6    1  0.6597032E-006  0.2961799E+03  0.7561462E-02  0.1087166E+00
         -1   -1    0    0    0  501 -0.00000000000E+00  0.00000000000E+00  0.12483059641E+03  0.12483059641E+03  0.00000000000E+00 0.  1.
          1   -1    0    0  501    0  0.00000000000E+00 -0.00000000000E+00 -0.85380813573E+03  0.85380813573E+03  0.00000000000E+00 0. -1.
          5    1    1    2  502    0  0.67570380492E+02 -0.16081791687E+02 -0.12078678008E+03  0.13939619430E+03  0.41800000000E+01 0.  1.
         -5    1    1    2    0  502  0.18235446390E+03 -0.13330537987E+03 -0.10139761002E+03  0.24763364578E+03  0.41800000000E+01 0.  1.
        -11    1    1    2    0    0 -0.15236356064E+03  0.57556658127E+02 -0.20823411831E+03  0.26436503463E+03  0.00000000000E+00 0.  1.
         11    1    1    2    0    0 -0.97561283752E+02  0.91830513432E+02 -0.29855903091E+03  0.32724385742E+03  0.00000000000E+00 0. -1.
</event>
<event>
 6    1  0.6597032E-006  0.1041670E+03  0.7561462E-02  0.1271770E+00
          1   -1    0    0  501    0  0.00000000000E+00  0.00000000000E+00  0.12879895858E+03  0.12879895858E+03  0.00000000000E+00 0. -1.
         -1   -1    0    0    0  501 -0.00000000000E+00 -0.00000000000E+00 -0.12298628253E+03  0.12298628253E+03  0.00000000000E+00 0.  1.
          5    1    1    2  502    0  0.91333924494E+01  0.66903546152E+02  0.89289754756E+01  0.68240034792E+02  0.41800000000E+01 0. -1.
         -5    1    1    2    0  502  0.51789569008E+02 -0.49098631117E+02 -0.88444329042E+01  0.72031461383E+02  0.41800000000E+01 0. -1.
        -11    1    1    2    0    0 -0.31285676376E+02  0.51501661457E+01 -0.40858135673E+02  0.51717550293E+02  0.00000000000E+00 0.  1.
         11    1    1    2    0    0 -0.29637285082E+02 -0.22955081181E+02  0.46586269152E+02  0.59796194632E+02  0.00000000000E+00 0. -1.
</event>
<event>
 6    1  0.6597032E-006  0.1113846E+03  0.7561462E-02  0.1258027E+00
         -2   -1    0    0    0  501 -0.00000000000E+00  0.00000000000E+00  0.20288427013E+03  0.20288427013E+03  0.00000000000E+00 0.  1.
          2   -1    0    0  501    0  0.00000000000E+00 -0.00000000000E+00 -0.55331233595E+03  0.55331233595E+03  0.00000000000E+00 0. -1.
          5    1    1    2  502    0 -0.63642917263E+01 -0.40779870018E+01 -0.16708830287E+02  0.18809348652E+02  0.41800000000E+01 0. -1.
         -5    1    1    2    0  502 -0.85664974115E+02  0.53539577122E+02  0.17944479806E+03  0.20596815788E+03  0.41800000000E+01 0.  1.
        -11    1    1    2    0    0  0.78548666358E+02 -0.20652350412E+02 -0.47427576118E+03  0.48117970677E+03  0.00000000000E+00 0. -1.
         11    1    1    2    0    0  0.13480599483E+02 -0.28809239709E+02 -0.38888272416E+02  0.50239392776E+02  0.00000000000E+00 0.  1.
</event>
<event>
 6    1  0.6597032E-006  0.1799707E+03  0.7561462E-02  0.1167831E+00
         -2   -1    0    0    0  501 -0.00000000000E+00  0.00000000000E+00  0.13962257306E+03  0.13962257306E+03  0.00000000000E+00 0.  1.
          2   -1    0    0  501    0  0.00000000000E+00 -0.00000000000E+00 -0.23688678273E+03  0.23688678273E+03  0.00000000000E+00 0. -1.
          5    1    1    2  502    0 -0.72560263075E+01  0.87413457792E+02 -0.47413596926E+02  0.99796212826E+02  0.41800000000E+01 0.  1.
         -5    1    1    2    0  502 -0.10018627809E+03  0.10315236183E+02 -0.15757818530E+02  0.10202683794E+03  0.41800000000E+01 0.  1.
        -11    1    1    2    0    0 -0.90658393034E+01 -0.40533906739E+02 -0.79068896212E+01  0.42281271756E+02  0.00000000000E+00 0.  1.
         11    1    1    2    0    0  0.11650814370E+03 -0.57194787236E+02 -0.26185904598E+02  0.13240503327E+03  0.00000000000E+00 0. -1.
</event>
<event>
 6    1  0.6597032E-006  0.1526098E+03  0.7561462E-02  0.1197302E+00
          2   -1    0    0  501    0  0.00000000000E+00  0.00000000000E+00  0.39848048276E+03  0.39848048276E+03  0.00000000000E+00 0.  1.
         -2   -1    0    0    0  501 -0.00000000000E+00 -0.00000000000E+00 -0.11045333824E+03  0.11045333824E+03  0.00000000000E+00 0. -1.
          5    1    1    2  502    0 -0.20761120346E+02 -0.12086428001E+03 -0.34737745970E+02  0.12752796437E+03  0.41800000000E+01 0. -1.
         -5    1    1    2    0  502 -0.38491899712E+02  0.53480086957E+01  0.35432261395E+02  0.52755521873E+02  0.41800000000E+01 0. -1.
        -11    1    1    2    0    0  0.71987644775E+02  0.93607161255E+02  0.16021320603E+03  0.19902962851E+03  0.00000000000E+00 0. -1.
         11    1    1    2    0    0 -0.12734624717E+02  0.21909110059E+02  0.12711942306E+03  0.12962070625E+03  0.00000000000E+00 0.  1.
</event>
<event>
 6    1  0.6597032E-006  0.1247516E+03  0.7561462E-02  0.1235458E+00
          1   -1    0    0  501    0  0.00000000000E+00  0.00000000000E+00  0.27472979483E+03  0.27472979483E+03  0.00000000000E+00 0. -1.
         -1   -1    0    0    0  501 -0.00000000000E+00 -0.00000000000E+00 -0.85804227859E+02  0.85804227859E+02  0.00000000000E+00 0.  1.
          5    1    1    2  502    0  0.22841742983E+02 -0.68461014434E+02 -0.26661713657E+02  0.77051768928E+02  0.41800000000E+01 0. -1.
         -5    1    1    2    0  502  0.48438430294E+02  0.31176732939E+02  0.44101365250E+02  0.72668239438E+02  0.41800000000E+01 0. -1.
        -11    1    1    2    0    0 -0.31662752760E+02 -0.28540884765E+02  0.85285999747E+02  0.95345759048E+02  0.00000000000E+00 0. -1.
         11    1    1    2    0    0 -0.39617420517E+02  0.65825166260E+02  0.86199915632E+02  0.11546825528E+03  0.00000000000E+00 0.  1.
</event>
<event>
 6    1  0.6597032E-006  0.1439387E+03  0.7561462E-02  0.1208125E+00
         -1   -1    0    0    0  501 -0.00000000000E+00  0.00000000000E+00  0.36752586569E+02  0.36752586569E+02  0.00000000000E+00 0.  1.
          1   -1    0    0  501    0  0.00000000000E+00 -0.00000000000E+00 -0.76126319523E+03  0.76126319523E+03  0.00000000000E+00 0. -1.
          5    1    1    2  502    0  0.13217994774E+03  0.86699904036E+01 -0.18776759654E+03  0.22982787044E+03  0.41800000000E+01 0. -1.
         -5    1    1    2    0  502 -0.76823043384E+01 -0.22185123340E+02 -0.14633737152E+03  0.14826765055E+03  0.41800000000E+01 0. -1.
        -11    1    1    2    0    0 -0.58730400245E+02 -0.13729172413E+02 -0.73309485025E+02  0.94931715894E+02  0.00000000000E+00 0.  1.
         11    1    1    2    0    0 -0.65767243153E+02  0.27244305349E+02 -0.31709615557E+03  0.32498854491E+03  0.00000000000E+00 0. -1.
</event>
<event>
 6    1  0.6597032E-006  0.1131468E+03  0.7561462E-02  0.1254851E+00
         -2   -1    0    0    0  501 -0.00000000000E+00  0.00000000000E+00  0.45792819606E+02  0.45792819606E+02  0.00000000000E+00 0.  1.
          2   -1    0    0  501    0  0.00000000000E+00 -0.00000000000E+00 -0.33847992977E+03  0.33847992977E+03  0.00000000000E+00 0. -1.
          5    1    1    2  502    0  0.66115771513E+02  0.40931143943E+02 -0.46012365564E+02  0.90450339811E+02  0.41800000000E+01 0. -1.
         -5    1    1    2    0  502 -0.20389888754E+02 -0.51550921346E+02 -0.69679974532E+02  0.89140430253E+02  0.41800000000E+01 0.  1.
        -11    1    1    2    0    0  0.23243494150E+02  0.22746214476E+01 -0.13349350206E+02  0.26900540403E+02  0.00000000000E+00 0.  1.
         11    1    1    2    0    0 -0.68969376908E+02  0.83451559550E+01 -0.16364541987E+03  0.17778143891E+03  0.00000000000E+00 0. -1.
</event>
<event>
 6    1  0.6597032E-006  0.1036943E+03  0.7561462E-02  0.1272714E+00
         -2   -1    0    0    0  501 -0.00000000000E+00  0.00000000000E+00  0.33481147679E+02  0.33481147679E+02  0.00000000000E+00 0.  1.
          2   -1    0    0  501    0  0.00000000000E+00 -0.00000000000E+00 -0.64971123010E+03  0.64971123010E+03  0.00000000000E+00 0. -1.
          5    1    1    2  502    0 -0.19761243554E+02  0.81274688413E+01 -0.13742819157E+03  0.13914216735E+03  0.41800000000E+01 0. -1.
         -5    1    1    2    0  502 -0.91849052578E+01  0.70157089112E+02 -0.27482646433E+02  0.76020706996E+02  0.41800000000E+01 0.  1.
        -11    1    1    2    0    0 -0.92332803738E+01  0.12910523011E+02 -0.20043542170E+02  0.25567140114E+02  0.00000000000E+00 0.  1.
         11    1    1    2    0    0  0.38179429186E+02 -0.91195080964E+02 -0.43127570225E+03  0.44246236332E+03  0.00000000000E+00 0. -1.
</event>
<event>
 6    1  0.6597032E-006  0.8587354E+02  0.7561462E-02  0.1313164E+00
          2   -1    0    0  501    0  0.00000000000E+00  0.00000000000E+00  0.17658160913E+03  0.17658160913E+03  0.00000000000E+00 0. -1.
         -2   -1    0    0    0  501 -0.00000000000E+00 -0.00000000000E+00 -0.78278214730E+02  0.78278214730E+02  0.00000000000E+00 0.  1.
          5    1    1    2  502    0  0.26126874470E+02 -0.36355300375E+02  0.66040924416E+02  0.79894915562E+02  0.41800000000E+01 0.  1.
         -5    1    1    2    0  502  0.14266958648E+02  0.44616225866E+02 -0.31081582216E+02  0.56371010925E+02  0.41800000000E+01 0.  1.
        -11    1    1    2    0    0 -0.69060804549E+01  0.28910176681E+02  0.61756788148E+02  0.68537530925E+02  0.00000000000E+00 0. -1.
         11    1    1    2    0    0 -0.33487752662E+02 -0.37171102172E+02  0.15872640533E+01  0.50056366450E+02  0.00000000000E+00 0.  1.
</event>
<event>
 6    1  0.6597032E-006  0.1326562E+03  0.7561462E-02  0.1223567E+00
          2   -1    0    0  501    0  0.00000000000E+00  0.00000000000E+00  0.89678722782E+02  0.89678722782E+02  0.00000000000E+00 0.  1.
         -2   -1    0    0    0  501 -0.00000000000E+00 -0.00000000000E+00 -0.30618753722E+03  0.30618753722E+03  0.00000000000E+00 0. -1.
          5    1    1    2  502    0  0.46962522895E+02 -0.14406568598E+02 -0.29325463139E+01  0.49387245350E+02  0.41800000000E+01 0.  1.
         -5    1    1    2    0  502  0.50218155134E+02  0.70489227725E+02 -0.17541509293E+03  0.19564897536E+03  0.41800000000E+01 0.  1.
        -11    1    1    2    0    0 -0.37087043642E+02  0.11593976288E+02 -0.45728495881E+02  0.60008036360E+02  0.00000000000E+00 0. -1.
         11    1    1    2    0    0 -0.60093634387E+02 -0.67676635415E+02  0.75673206855E+01  0.90822002936E+02  0.00000000000E+00 0.  1.
</event>
<event>
 6    1  0.6597032E-006  0.1650285E+03  0.7561462E-02  0.1183134E+00
         -2   -1    0    0    0  501 -0.00000000000E+00  0.00000000000E+00  0.37464673510E+03  0.37464673510E+03  0.00000000000E+00 0.  1.
          2   -1    0    0  501    0  0.00000000000E+00 -0.00000000000E+00 -0.96169242986E+02  0.96169242986E+02  0.00000000000E+00 0. -1.
          5    1    1    2  502    0  0.72316144266E+01 -0.37256119054E+02  0.11163514585E+03  0.11798386688E+03  0.41800000000E+01 0. -1.
         -5    1    1    2    0  502  0.13388293852E+03  0.14889122573E+02  0.11073021598E+03  0.17442757904E+03  0.41800000000E+01 0. -1.
        -11    1    1    2    0    0 -0.13272395197E+03 -0.52141590835E+00  0.70305471051E+02  0.15019580074E+03  0.00000000000E+00 0.  1.
         11    1    1    2    0    0 -0.83906009813E+01  0.22888412389E+02 -0.14193340773E+02  0.28208731428E+02  0.00000000000E+00 0. -1.
</event>
<event>
 6    1  0.6597032E-006  0.1212843E+03  0.7561462E-02  0.1240993E+00
          2   -1    0    0  501    0  0.00000000000E+00  0.00000000000E+00  0.10382874426E+03  0.10382874426E+03  0.00000000000E+00 0. -1.
         -2   -1    0    0    0  501 -0.00000000000E+00 -0.00000000000E+00 -0.17889200812E+03  0.17889200812E+03  0.00000000000E+00 0.  1.
          5    1    1    2  502    0  0.70754955812E+02 -0.21978093563E+02 -0.43314930506E+02  0.85924129168E+02  0.41800000000E+01 0. -1.
         -5    1    1    2    0  502 -0.53154567152E+02 -0.37099157241E+02 -0.47974256363E+02  0.80751205259E+02  0.41800000000E+01 0. -1.
        -11    1    1    2    0    0 -0.16147077776E+02 -0.19215543818E+02  0.27157654617E+02  0.36979770811E+02  0.00000000000E+00 0. -1.
         11    1    1    2    0    0 -0.14533108835E+01  0.78292794622E+02 -0.10931731613E+02  0.79065647144E+02  0.00000000000E+00 0.  1.
</event>
<event>
 6    1  0.6597032E-006  0.1230721E+03  0.7561462E-02  0.1238113E+00
         -2   -1    0    0    0  501 -0.00000000000E+00  0.00000000000E+00  0.69807471843E+02  0.69807471843E+02  0.00000000000E+00 0.  1.
          2   -1    0    0  501    0  0.00000000000E+00 -0.00000000000E+00 -0.32299244989E+03  0.32299244989E+03  0.00000000000E+00 0. -1.
          5    1    1    2  502    0 -0.35529685776E+01 -0.37734999779E+01 -0.11125014159E+03  0.11144922293E+03  0.41800000000E+01 0.  1.
         -5    1    1    2    0  502  0.56798499543E+02 -0.84174564966E+02 -0.37216673237E+02  0.10823114203E+03  0.41800000000E+01 0.  1.
        -11    1    1    2    0    0 -0.41280321912E+02 -0.72460549479E+01 -0.32283810295E+02  0.52903824972E+02  0.00000000000E+00 0.  1.
         11    1    1    2    0    0 -0.11965209053E+02  0.95194119891E+02 -0.72434352921E+02  0.12021573180E+03  0.00000000000E+00 0. -1.
</event>
<event>
 6    1  0.6597032E-006  0.9012960E+02  0.7561462E-02  0.1302538E+00
         -1   -1    0    0    0  501 -0.00000000000E+00  0.00000000000E+00  0.20058739305E+03  0.20058739305E+03  0.00000000000E+00 0.  1.
          1   -1    0    0  501    0  0.00000000000E+00 -0.00000000000E+00 -0.13811355897E+03  0.13811355897E+03  0.00000000000E+00 0. -1.
          5    1    1    2  502    0  0.92228509391E+01  0.20711928923E+02  0.13244353958E+03  0.13443514628E+03  0.41800000000E+01 0. -1.
         -5    1    1    2    0  502  0.55561285583E+02 -0.32333560817E+02  0.81605780716E+01  0.64935221915E+02  0.41800000000E+01 0. -1.
        -11    1    1    2    0    0 -0.61241672229E+02  0.34054565751E+02 -0.89713303133E+02  0.11383642925E+03  0.00000000000E+00 0. -1.
         11    1    1    2    0    0 -0.35424642926E+01 -0.22432933857E+02  0.11583019559E+02  0.25494154561E+02  0.00000000000E+00 0.  1.
</event>
<event>
 6    1  0.6597032E-006  0.9785540E+02  0.7561462E-02  0.1284871E+00
         -2   -1    0    0    0  501 -0.00000000000E+00  0.00000000000E+00  0.65632600150E+02  0.65632600150E+02  0.00000000000E+00 0.  1.
          2   -1    0    0  501    0  0.00000000000E+00 -0.00000000000E+00 -0.34182368538E+03  0.34182368538E+03  0.00000000000E+00 0. -1.
          5    1    1    2  502    0  0.37650423581E+02  0.34408195905E+02 -0.29439225937E+02  0.59039129101E+02  0.41800000000E+01 0. -1.
         -5    1    1    2    0  502 -0.24794092458E+02 -0.66064914799E+02  0.12334066357E+02  0.71755986379E+02  0.41800000000E+01 0. -1.
        -11    1    1    2    0    0  0.91180772190E+01 -0.17649607531E+02 -0.10874034565E+02  0.22647132399E+02  0.00000000000E+00 0.  1.
         11    1    1    2    0    0 -0.21974408342E+02  0.49306326425E+02 -0.24821189108E+03  0.25401403765E+03  0.00000000000E+00 0. -1.
</event>
<event>
 6    1  0.6597032E-006  0.1420088E+03  0.7561462E-02  0.1210651E+00
          1   -1    0    0  501    0  0.00000000000E+00  0.00000000000E+00  0.10054926823E+03  0.10054926823E+03  0.00000000000E+00 0. -1.
         -1   -1    0    0    0  501 -0.00000000000E+00 -0.00000000000E+00 -0.50097939664E+03  0.50097939664E+03  0.00000000000E+00 0.  1.
          5    1    1    2  502    0  0.90279439774E+01  0.20986826643E+02  0.19007515379E+02  0.30011809440E+02  0.41800000000E+01 0. -1.
         -5    1    1    2    0  502 -0.28894924954E+02 -0.62860857665E+02 -0.36626053554E+03  0.37276085686E+03  0.41800000000E+01 0.  1.
        -11    1    1    2    0    0  0.10325277970E+03  0.18660610285E+02 -0.30830970782E+02  0.10936134442E+03  0.00000000000E+00 0.  1.
         11    1    1    2    0    0 -0.83385798728E+02  0.23213420736E+02 -0.22346137463E+02  0.89394654154E+02  0.00000000000E+00 0. -1.
</event>
<event>
 6    1  0.6597032E-006  0.1663849E+03  0.7561462E-02  0.1181671E+00
         -2   -1    0    0    0  501 -0.00000000000E+00  0.00000000000E+00  0.20750049323E+02  0.20750049323E+02  0.00000000000E+00 0.  1.
          2   -1    0    0  501    0  0.00000000000E+00 -0.00000000000E+00 -0.16915404265E+04  0.16915404265E+04  0.00000000000E+00 0. -1.
          5    1    1    2  502    0  0.12187859074E+02 -0.11800665819E+02 -0.39781880539E+03  0.39820230278E+03  0.41800000000E+01 0. -1.
         -5    1    1    2    0  502  0.12812623268E+03  0.69800894909E+02 -0.49735007815E+03  0.51832718341E+03  0.41800000000E+01 0. -1.
        -11    1    1    2    0    0 -0.92359152732E+01 -0.35066968153E+02 -0.84610829304E+02  0.92054260205E+02  0.00000000000E+00 0.  1.
         11    1    1    2    0    0 -0.13107817648E+03 -0.22933260936E+02 -0.69101066432E+03  0.70370672941E+03  0.00000000000E+00 0. -1.
</event>
<event>
 6    1  0.6597032E-006  0.1239261E+03  0.7561462E-02  0.1236757E+00
          1   -1    0    0  501    0  0.00000000000E+00  0.00000000000E+00  0.11484552419E+03  0.11484552419E+03  0.00000000000E+00 0. -1.
         -1   -1    0    0    0  501 -0.00000000000E+00 -0.00000000000E+00 -0.19876446432E+03  0.19876446432E+03  0.00000000000E+00 0.  1.
          5    1    1    2  502    0  0.11024568475E+02 -0.14782057269E+02 -0.59879397999E+02  0.62793829568E+02  0.41800000000E+01 0. -1.
         -5    1    1    2    0  502 -0.45211711949E+02  0.10371814980E+03 -0.25325573443E+02  0.11601900950E+03  0.41800000000E+01 0. -1.
        -11    1    1    2    0    0 -0.19909973524E+02 -0.22380746598E+02 -0.31042690929E+02  0.43138770545E+02  0.00000000000E+00 0.  1.
         11    1    1    2    0    0  0.54097116997E+02 -0.66555345933E+02  0.32328722239E+02  0.91658378893E+02  0.00000000000E+00 0. -1.
</event>
<event>
 6    1  0.6597032E-006  0.1650214E+03  0.7561462E-02  0.1183142E+00
          2   -1    0    0  501    0  0.00000000000E+00  0.00000000000E+00  0.18236323456E+03  0.18236323456E+03  0.00000000000E+00 0. -1.
         -2   -1    0    0    0  501 -0.00000000000E+00 -0.00000000000E+00 -0.18800111071E+03  0.18800111071E+03  0.00000000000E+00 0.  1.
          5    1    1    2  502    0 -0.12434176529E+01 -0.12526093549E+03  0.20360049703E+01  0.12535336359E+03  0.41800000000E+01 0. -1.
         -5    1    1    2    0  502  0.34560309763E+02  0.11020238295E+03 -0.64234957177E+02  0.13222171661E+03  0.41800000000E+01 0.  1.
        -11    1    1    2    0    0  0.90725615864E+01  0.39280045893E+02  0.48891626773E+02  0.63368955709E+02  0.00000000000E+00 0.  1.
         11    1    1    2    0    0 -0.42389453697E+02 -0.24221493352E+02  0.76694492877E+01  0.49420309361E+02  0.00000000000E+00 0. -1.
</event>
<event>
 6    1  0.6597032E-006  0.2137634E+03  0.7561462E-02  0.1138620E+00
         -2   -1    0    0    0  501 -0.00000000000E+00  0.00000000000E+00  0.64589940998E+02  0.64589940998E+02  0.00000000000E+00 0.  1.
          2   -1    0    0  501    0  0.00000000000E+00 -0.00000000000E+00 -0.88101475641E+03  0.88101475641E+03  0.00000000000E+00 0. -1.
          5    1    1    2  502    0 -0.65063237546E+02 -0.53223031599E+02 -0.37252459912E+02  0.92038764345E+02  0.41800000000E+01 0. -1.
         -5    1    1    2    0  502 -0.10692062809E+02 -0.12682687761E+03 -0.22120673195E+03  0.25524354595E+03  0.41800000000E+01 0. -1.
        -11    1    1    2    0    0  0.72033140479E+02  0.54282880897E+02 -0.23315566705E+03  0.24999393906E+03  0.00000000000E+00 0. -1.
         11    1    1    2    0    0  0.37221598754E+01  0.12576702831E+03 -0.32480995650E+03  0.34832844805E+03  0.00000000000E+00 0.  1.
</event>
<event>
 6    1  0.6597032E-006  0.1481535E+03  0.7561462E-02  0.1202761E+00
          2   -1    0    0  501    0  0.00000000000E+00  0.00000000000E+00  0.47121340673E+03  0.47121340673E+03  0.00000000000E+00 0. -1.
         -2   -1    0    0    0  501 -0.00000000000E+00 -0.00000000000E+00 -0.56704912926E+02  0.56704912926E+02  0.00000000000E+00 0.  1.
          5    1    1    2  502    0  0.75320218840E+02 -0.93648089034E+02  0.24283367890E+03  0.27097743071E+03  0.41800000000E+01 0. -1.
         -5    1    1    2    0  502  0.18245554528E+02  0.15759703549E+02 -0.40519872908E+01  0.24802409500E+02  0.41800000000E+01 0. -1.
        -11    1    1    2    0    0 -0.46665773360E+00  0.55930039537E+02  0.60813448784E+02  0.82623620383E+02  0.00000000000E+00 0. -1.
         11    1    1    2    0    0 -0.93099115634E+02  0.21958345948E+02  0.11491335341E+03  0.14951485906E+03  0.00000000000E+00 0.  1.
</event>
<event>
 6    1  0.6597032E-006  0.7323212E+02  0.7561462E-02  0.1349435E+00
         -1   -1    0    0    0  501 -0.00000000000E+00  0.00000000000E+00  0.81636932068E+02  0.81636932068E+02  0.00000000000E+00 0.  1.
          1   -1    0    0  501    0  0.00000000000E+00 -0.00000000000E+00 -0.14637094554E+03  0.14637094554E+03  0.00000000000E+00 0. -1.
          5    1    1    2  502    0  0.11279224999E+02 -0.28980055490E+02 -0.73941826050E+02  0.80323910340E+02  0.41800000000E+01 0. -1.
         -5    1    1    2    0  502 -0.24598868838E+02  0.23344658503E+02  0.43227995802E+02  0.55101809860E+02  0.41800000000E+01 0.  1.
        -11    1    1    2    0    0 -0.27754061623E+02 -0.18427149457E+02  0.12480022379E+01  0.33337745624E+02  0.00000000000E+00 0.  1.
         11    1    1    2    0    0  0.41073705463E+02  0.24062546444E+02 -0.35268185459E+02  0.59244411782E+02  0.00000000000E+00 0. -1.
</event>
<event>
 6    1  0.6597032E-006  0.1009560E+03  0.7561462E-02  0.1278298E+00
         -1   -1    0    0    0  501 -0.00000000000E+00  0.00000000000E+00  0.38763095693E+03  0.38763095693E+03  0.00000000000E+00 0.  1.
          1   -1    0    0  501    0  0.00000000000E+00 -0.00000000000E+00 -0.37254994466E+02  0.37254994466E+02  0.00000000000E+00 0. -1.
          5    1    1    2  502    0 -0.59329030191E+02  0.13677770032E+01  0.20873253103E+03  0.21704503345E+03  0.41800000000E+01 0.  1.
         -5    1    1    2    0  502  0.25919319030E+02 -0.36838629022E+02  0.22959291328E+02  0.50729647598E+02  0.41800000000E+01 0.  1.
        -11    1    1    2    0    0 -0.26015194485E+02 -0.33083416657E+01  0.58340047181E+02  0.63963243927E+02  0.00000000000E+00 0.  1.
         11    1    1    2    0    0  0.59424905647E+02  0.38779193684E+02  0.60344092926E+02  0.93148026415E+02  0.00000000000E+00 0. -1.
</event>
<event>
 6    1  0.6597032E-006  0.1199394E+03  0.7561462E-02  0.1243197E+00
         -3   -1    0    0    0  501 -0.00000000000E+00  0.00000000000E+00  0.47063959902E+03  0.47063959902E+03  0.00000000000E+00 0.  1.
          3   -1    0    0  501    0  0.00000000000E+00 -0.00000000000E+00 -0.41807425141E+02  0.41807425141E+02  0.00000000000E+00 0. -1.
          5    1    1    2  502    0 -0.71139946576E+02  0.24033519296E+00  0.10580352787E+03  0.12756491943E+03  0.41800000000E+01 0. -1.
         -5    1    1    2    0  502  0.81464647796E+02  0.48584364873E+02  0.20960443876E+03  0.23010524222E+03  0.41800000000E+01 0.  1.
        -11    1    1    2    0    0  0.22325088310E+02 -0.22895160365E+02  0.10811691423E+03  0.11274690719E+03  0.00000000000E+00 0.  1.
         11    1    1    2    0    0 -0.32649789529E+02 -0.25929539701E+02  0.53072930171E+01  0.42029955325E+02  0.00000000000E+00 0. -1.
</event>
<event>
 6    1  0.6597032E-006  0.1575105E+03  0.7561462E-02  0.1191536E+00
         -1   -1    0    0    0  501 -0.00000000000E+00  0.00000000000E+00  0.26911017164E+03  0.26911017164E+03  0.00000000000E+00 0.  1.
          1   -1    0    0  501    0  0.00000000000E+00 -0.00000000000E+00 -0.18476615819E+03  0.18476615819E+03  0.00000000000E+00 0. -1.
          5    1    1    2  502    0  0.33240901534E+01 -0.21196235680E+02 -0.13129995510E+02  0.25499003205E+02  0.41800000000E+01 0.  1.
         -5    1    1    2    0  502  0.12552324315E+03 -0.15788300730E+02  0.19700480502E+03  0.23416601080E+03  0.41800000000E+01 0.  1.
        -11    1    1    2    0    0 -0.11216499161E+03 -0.13908120372E+02 -0.63193827929E+02  0.12949085313E+03  0.00000000000E+00 0.  1.
         11    1    1    2    0    0 -0.16682341695E+02  0.50892656783E+02 -0.36336968134E+02  0.64720462699E+02  0.00000000000E+00 0. -1.
</event>
<event>
 6    1  0.6597032E-006  0.1421373E+03  0.7561462E-02  0.1210482E+00
         -1   -1    0    0    0  501 -0.00000000000E+00  0.00000000000E+00  0.78521349778E+03  0.78521349778E+03  0.00000000000E+00 0.  1.
          1   -1    0    0  501    0  0.00000000000E+00 -0.00000000000E+00 -0.28444287182E+02  0.28444287182E+02  0.00000000000E+00 0. -1.
          5    1    1    2  502    0 -0.25739370164E+02  0.28828402833E+02  0.16977470803E+03  0.17416806789E+03  0.41800000000E+01 0. -1.
         -5    1    1    2    0  502  0.60322525112E+02 -0.10561509050E+03  0.37246405693E+03  0.39184218824E+03  0.41800000000E+01 0.  1.
        -11    1    1    2    0    0 -0.38681401543E+02 -0.74280191503E+01  0.70105489672E+02  0.80412722724E+02  0.00000000000E+00 0.  1.
         11    1    1    2    0    0  0.40982465949E+01  0.84214706813E+02  0.14442495596E+03  0.16723480611E+03  0.00000000000E+00 0. -1.
</event>
<event>
 6    1  0.6597032E-006  0.1072708E+03  0.7561462E-02  0.1265709E+00
          1   -1    0    0  501    0  0.00000000000E+00  0.00000000000E+00  0.39424512016E+03  0.39424512016E+03  0.00000000000E+00 0. -1.
         -1   -1    0    0    0  501 -0.00000000000E+00 -0.00000000000E+00 -0.42071324646E+02  0.42071324646E+02  0.00000000000E+00 0.  1.
          5    1    1    2  502    0 -0.48146723843E+02  0.39473812534E+02  0.24600393291E+02  0.67074142878E+02  0.41800000000E+01 0.  1.
         -5    1    1    2    0  502  0.52341374161E+02 -0.29253462507E+02  0.55940871634E+02  0.82111132235E+02  0.41800000000E+01 0.  1.
        -11    1    1    2    0    0 -0.46441168990E+02 -0.16579863084E+02  0.16652385387E+03  0.17367172466E+03  0.00000000000E+00 0.  1.
         11    1    1    2    0    0  0.42246518672E+02  0.63595130572E+01  0.10510867671E+03  0.11345944503E+03  0.00000000000E+00 0. -1.
</event>
<event>
 6    1  0.6597032E-006  0.1048283E+03  0.7561462E-02  0.1270458E+00
          2   -1    0    0  501    0  0.00000000000E+00  0.00000000000E+00  0.38337169229E+03  0.38337169229E+03  0.00000000000E+00 0. -1.
         -2   -1    0    0    0  501 -0.00000000000E+00 -0.00000000000E+00 -0.38292914692E+02  0.38292914692E+02  0.00000000000E+00 0.  1.
          5    1    1    2  502    0 -0.14767927027E+02  0.49132370459E+02  0.12808953677E+02  0.53043597068E+02  0.41800000000E+01 0.  1.
         -5    1    1    2    0  502 -0.20758330179E+02 -0.56004489008E+02  0.11372832394E+03  0.12852632075E+03  0.41800000000E+01 0.  1.
        -11    1    1    2    0    0 -0.29120018380E+02  0.15667180729E+02  0.91267585554E+02  0.97073210492E+02  0.00000000000E+00 0.  1.
         11    1    1    2    0    0  0.64646275586E+02 -0.87950621794E+01  0.12727391443E+03  0.14302147866E+03  0.00000000000E+00 0. -1.
</event>
<event>
 6    1  0.6597032E-006  0.6795898E+02  0.7561462E-02  0.1367174E+00
         -1   -1    0    0    0  501 -0.00000000000E+00  0.00000000000E+00  0.33104716403E+02  0.33104716403E+02  0.00000000000E+00 0.  1.
          1   -1    0    0  501    0  0.00000000000E+00 -0.00000000000E+00 -0.51501740933E+03  0.51501740933E+03  0.00000000000E+00 0. -1.
          5    1    1    2  502    0 -0.34756066314E+02 -0.37771428333E+02 -0.31947261227E+01  0.51597903242E+02  0.41800000000E+01 0. -1.
         -5    1    1    2    0  502  0.78450935369E+01 -0.10524627239E+02 -0.16323702687E+03  0.16381731475E+03  0.41800000000E+01 0. -1.
        -11    1    1    2    0    0  0.39224161505E+02  0.37531994115E+02 -0.31106458835E+03  0.31576631162E+03  0.00000000000E+00 0. -1.
         11    1    1    2    0    0 -0.12313188727E+02  0.10764061457E+02 -0.44163515878E+01  0.16940596124E+02  0.00000000000E+00 0.  1.
</event>
<event>
 6    1  0.6597032E-006  0.1369859E+03  0.7561462E-02  0.1217443E+00
         -2   -1    0    0    0  501 -0.00000000000E+00  0.00000000000E+00  0.10415392641E+04  0.10415392641E+04  0.00000000000E+00 0.  1.
          2   -1    0    0  501    0  0.00000000000E+00 -0.00000000000E+00 -0.27867156234E+02  0.27867156234E+02  0.00000000000E+00 0. -1.
          5    1    1    2  502    0  0.22260363939E+02 -0.32639061610E+01  0.33469619259E+03  0.33547755606E+03  0.41800000000E+01 0. -1.
         -5    1    1    2    0  502 -0.47486057141E+02 -0.11434084203E+03  0.36635364191E+03  0.38673145349E+03  0.41800000000E+01 0. -1.
        -11    1    1    2    0    0 -0.46142989807E+01  0.75285418499E+02  0.84478852705E+02  0.11325132471E+03  0.00000000000E+00 0. -1.
         11    1    1    2    0    0  0.29839992183E+02  0.42319329693E+02  0.22814342070E+03  0.23394608611E+03  0.00000000000E+00 0.  1.
</event>
<event>
 6    1  0.6597032E-006  0.2145518E+03  0.7561462E-02  0.1138011E+00
          1   -1    0    0  501    0  0.00000000000E+00  0.00000000000E+00  0.51767549732E+03  0.51767549732E+03  0.00000000000E+00 0. -1.
         -1   -1    0    0    0  501 -0.00000000000E+00 -0.00000000000E+00 -0.96749107792E+02  0.96749107792E+02  0.00000000000E+00 0.  1.
          5    1    1    2  502    0  0.82714976881E+01 -0.39552217249E+02  0.72717556617E+02  0.83295324020E+02  0.41800000000E+01 0. -1.
         -5    1    1    2    0  502  0.18012957537E+03  0.34848918666E+02  0.21476194524E+03  0.28249119735E+03  0.41800000000E+01 0. -1.
        -11    1    1    2    0    0 -0.16186238179E+03 -0.26481334123E+02  0.83484063950E+02  0.18403880197E+03  0.00000000000E+00 0. -1.
         11    1    1    2    0    0 -0.26538691267E+02  0.31184632706E+02  0.49962823715E+02  0.64599281766E+02  0.00000000000E+00 0.  1.
</event>
<event>
 6    1  0.6597032E-006  0.9712565E+02  0.7561462E-02  0.1286459E+00
         -3   -1    0    0    0  501 -0.00000000000E+00  0.00000000000E+00  0.34908237300E+03  0.34908237300E+03  0.00000000000E+00 0.  1.
          3   -1    0    0  501    0  0.00000000000E+00 -0.00000000000E+00 -0.31131620705E+02  0.31131620705E+02  0.00000000000E+00 0. -1.
          5    1    1    2  502    0 -0.91985238170E+01 -0.61880258989E+02  0.13183549711E+03  0.14598578695E+03  0.41800000000E+01 0. -1.
         -5    1    1    2    0  502  0.74262507702E+01  0.60191650590E+02  0.87937023849E+02  0.10690452079E+03  0.41800000000E+01 0. -1.
        -11    1    1    2    0    0  0.24321671166E+02  0.27348992117E+02  0.81433559485E+02  0.89280096709E+02  0.00000000000E+00 0.  1.
         11    1    1    2    0    0 -0.22549398119E+02 -0.25660383717E+02  0.16744671847E+02  0.38043589254E+02  0.00000000000E+00 0. -1.
</event>
<event>
 6    1  0.6597032E-006  0.1027144E+03  0.7561462E-02  0.1274689E+00
          3   -1    0    0  501    0  0.00000000000E+00  0.00000000000E+00  0.69506163014E+02  0.69506163014E+02  0.00000000000E+00 0. -1.
         -3   -1    0    0    0  501 -0.00000000000E+00 -0.00000000000E+00 -0.28378465824E+03  0.28378465824E+03  0.00000000000E+00 0.  1.
          5    1    1    2  502    0  0.29340228940E+01 -0.10670597697E+02 -0.13282279682E+03  0.13334855793E+03  0.41800000000E+01 0. -1.
         -5    1    1    2    0  502 -0.21777497237E+02  0.82559003972E+02 -0.45624980432E+02  0.96898708775E+02  0.41800000000E+01 0. -1.
        -11    1    1    2    0    0  0.24846032833E+02  0.94291146308E+01  0.11284080755E+02  0.28871508945E+02  0.00000000000E+00 0. -1.
         11    1    1    2    0    0 -0.60025584897E+01 -0.81317520905E+02 -0.47114798726E+02  0.94172045606E+02  0.00000000000E+00 0.  1.
</event>
<event>
 6    1  0.6597032E-006  0.1511395E+03  0.7561462E-02  0.1199080E+00
         -1   -1    0    0    0  501 -0.00000000000E+00  0.00000000000E+00  0.78365439141E+02  0.78365439141E+02  0.00000000000E+00 0.  1.
          1   -1    0    0  501    0  0.00000000000E+00 -0.00000000000E+00 -0.49139934063E+03  0.49139934063E+03  0.00000000000E+00 0. -1.
          5    1    1    2  502    0  0.55358750673E+02 -0.27367241047E+02  0.24762897826E+02  0.66665063320E+02  0.41800000000E+01 0. -1.
         -5    1    1    2    0  502  0.55826427841E+02 -0.56329830178E+02 -0.11842364596E+03  0.14258776994E+03  0.41800000000E+01 0. -1.
        -11    1    1    2    0    0 -0.55800433050E+02 -0.53968174621E+01 -0.68017870092E+02  0.88143318630E+02  0.00000000000E+00 0. -1.
         11    1    1    2    0    0 -0.55384745464E+02  0.89093888687E+02 -0.25135528326E+03  0.27236862788E+03  0.00000000000E+00 0.  1.
</event>
<event>
 6    1  0.6597032E-006  0.9388285E+02  0.7561462E-02  0.1293712E+00
         -1   -1    0    0    0  501 -0.00000000000E+00  0.00000000000E+00  0.19584109275E+03  0.19584109275E+03  0.00000000000E+00 0.  1.
          1   -1    0    0  501    0  0.00000000000E+00 -0.00000000000E+00 -0.84702750181E+02  0.84702750181E+02  0.00000000000E+00 0. -1.
          5    1    1    2  502    0 -0.17165929188E+02  0.20330641924E+02  0.82586599242E+02  0.86867847333E+02  0.41800000000E+01 0.  1.
         -5    1    1    2    0  502  0.79432874661E+02 -0.18358138569E+02  0.13537224656E+02  0.82748605306E+02  0.41800000000E+01 0.  1.
        -11    1    1    2    0    0 -0.40838925358E+02 -0.24887200911E+02  0.46340294088E+02  0.66592893388E+02  0.00000000000E+00 0.  1.
         11    1    1    2    0    0 -0.21428020115E+02  0.22914697557E+02 -0.31325775418E+02  0.44334496904E+02  0.00000000000E+00 0. -1.
</event>
<event>
 6    1  0.6597032E-006  0.1184439E+03  0.7561462E-02  0.1245686E+00
         -2   -1    0    0    0  501 -0.00000000000E+00  0.00000000000E+00  0.82191798652E+02  0.82191798652E+02  0.00000000000E+00 0.  1.
          2   -1    0    0  501    0  0.00000000000E+00 -0.00000000000E+00 -0.20723765675E+03  0.20723765675E+03  0.00000000000E+00 0. -1.
          5    1    1    2  502    0 -0.34807383180E+02 -0.31988307951E+02 -0.11793562833E+02  0.48901598069E+02  0.41800000000E+01 0. -1.
         -5    1    1    2    0  502  0.54127395548E+01  0.95040401066E+02 -0.39512148543E+02  0.10315356449E+03  0.41800000000E+01 0. -1.
        -11    1    1    2    0    0  0.19635314950E+01 -0.66471182329E+02 -0.84657664347E+02  0.10765311732E+03  0.00000000000E+00 0. -1.
         11    1    1    2    0    0  0.27431112130E+02  0.34190892137E+01  0.10917517621E+02  0.29721175528E+02  0.00000000000E+00 0.  1.
</event>
<event>
 6    1  0.6597032E-006  0.9071278E+02  0.7561462E-02  0.1301135E+00
          1   -1    0    0  501    0  0.00000000000E+00  0.00000000000E+00  0.24558389526E+03  0.24558389526E+03  0.00000000000E+00 0. -1.
         -1   -1    0    0    0  501 -0.00000000000E+00 -0.00000000000E+00 -0.50760665597E+02  0.50760665597E+02  0.00000000000E+00 0.  1.
          5    1    1    2  502    0  0.23454532306E+02  0.45779478622E+02  0.28475683088E+02  0.58942452238E+02  0.41800000000E+01 0.  1.
         -5    1    1    2    0  502 -0.29749488050E+02 -0.58904066101E+02  0.10905603565E+03  0.12753592574E+03  0.41800000000E+01 0.  1.
        -11    1    1    2    0    0 -0.27002806701E+02  0.13937685615E+02  0.68325650595E+02  0.74778373740E+02  0.00000000000E+00 0. -1.
         11    1    1    2    0    0  0.33297762445E+02 -0.81309813605E+00 -0.11034139665E+02  0.35087809145E+02  0.00000000000E+00 0.  1.
</event>
<event>
 6    1  0.6597032E-006  0.7660994E+02  0.7561462E-02  0.1338957E+00
          1   -1    0    0  501    0  0.00000000000E+00  0.00000000000E+00  0.28306791287E+02  0.28306791287E+02  0.00000000000E+00 0. -1.
         -1   -1    0    0    0  501 -0.00000000000E+00 -0.00000000000E+00 -0.53379286590E+03  0.53379286590E+03  0.00000000000E+00 0.  1.
          5    1    1    2  502    0 -0.27330540096E+02 -0.24032585737E+02 -0.38705114613E+02  0.53292418751E+02  0.41800000000E+01 0.  1.
         -5    1    1    2    0  502  0.68404964432E+02  0.24056867375E+02 -0.33920463011E+03  0.34689368042E+03  0.41800000000E+01 0.  1.
        -11    1    1    2    0    0 -0.23112028955E+02  0.77569095847E+01 -0.13772347207E+03  0.13986454264E+03  0.00000000000E+00 0.  1.
         11    1    1    2    0    0 -0.17962395381E+02 -0.77811912225E+01  0.10147142180E+02  0.22049015377E+02  0.00000000000E+00 0. -1.
</event>
<event>
 6    1  0.6597032E-006  0.9515796E+02  0.7561462E-02  0.1290821E+00
          3   -1    0    0  501    0  0.00000000000E+00  0.00000000000E+00  0.21996921621E+03  0.21996921621E+03  0.00000000000E+00 0. -1.
         -3   -1    0    0    0  501 -0.00000000000E+00 -0.00000000000E+00 -0.57414074707E+02  0.57414074707E+02  0.00000000000E+00 0.  1.
          5    1    1    2  502    0 -0.70076427290E+02 -0.56420314235E+01  0.64918280561E+02  0.95783055554E+02  0.41800000000E+01 0.  1.
         -5    1    1    2    0  502  0.46945597012E+02  0.22044239869E+02  0.10740286764E+02  0.53128746927E+02  0.41800000000E+01 0.  1.
        -11    1    1    2    0    0  0.31567536553E+01 -0.38177644709E+02  0.17549875831E+01  0.38348111173E+02  0.00000000000E+00 0.  1.
         11    1    1    2    0    0  0.19974076623E+02  0.21775436263E+02  0.85141586591E+02  0.90123377259E+02  0.00000000000E+00 0. -1.
</event>
<event>
 6    1  0.6597032E-006  0.1135141E+03  0.7561462E-02  0.1254197E+00
         -1   -1    0    0    0  501 -0.00000000000E+00  0.00000000000E+00  0.47688612153E+02  0.47688612153E+02  0.00000000000E+00 0.  1.
          1   -1    0    0  501    0  0.00000000000E+00 -0.00000000000E+00 -0.30919830815E+03  0.30919830815E+03  0.00000000000E+00 0. -1.
          5    1    1    2  502    0  0.63908967362E+02  0.32959068452E+02 -0.34816811428E+02  0.80002119100E+02  0.41800000000E+01 0. -1.
         -5    1    1    2    0  502 -0.30306833270E+02 -0.35339997267E+02 -0.82550924752E+02  0.94865942925E+02  0.41800000000E+01 0. -1.
        -11    1    1    2    0    0  0.40129305652E+01  0.48543726582E+02 -0.85752078004E+02  0.98620565219E+02  0.00000000000E+00 0. -1.
         11    1    1    2    0    0 -0.37615064657E+02 -0.46162797767E+02 -0.58389881817E+02  0.83398293061E+02  0.00000000000E+00 0.  1.
</event>
<event>
 6    1  0.6597032E-006  0.9557565E+02  0.7561462E-02  0.1289885E+00
          1   -1    0    0  501    0  0.00000000000E+00  0.00000000000E+00  0.11591019121E+03  0.11591019121E+03  0.00000000000E+00 0. -1.
         -1   -1    0    0    0  501 -0.00000000000E+00 -0.00000000000E+00 -0.22115303898E+03  0.22115303898E+03  0.00000000000E+00 0.  1.
          5    1    1    2  502    0 -0.75964873054E+02  0.19051246443E+02 -0.44650602683E+02  0.90248327680E+02  0.41800000000E+01 0.  1.
         -5    1    1    2    0  502  0.23996558028E+02 -0.79242485674E+01 -0.12267229863E+03  0.12531797063E+03  0.41800000000E+01 0.  1.
        -11    1    1    2    0    0  0.16861882605E+02  0.29151857540E+02 -0.67656229240E+01  0.34350073313E+02  0.00000000000E+00 0. -1.
         11    1    1    2    0    0  0.35106432421E+02 -0.40278855416E+02  0.68845676460E+02  0.87146858568E+02  0.00000000000E+00 0.  1.
</event>
<event>
 6    1  0.6597032E-006  0.1032287E+03  0.7561462E-02  0.1273649E+00
         -2   -1    0    0    0  501 -0.00000000000E+00  0.00000000000E+00  0.45025472846E+02  0.45025472846E+02  0.00000000000E+00 0.  1.
          2   -1    0    0  501    0  0.00000000000E+00 -0.00000000000E+00 -0.34261578921E+03  0.34261578921E+03  0.00000000000E+00 0. -1.
          5    1    1    2  502    0  0.21799008801E+02  0.51803784563E+02 -0.18140098529E+03  0.18995425435E+03  0.41800000000E+01 0. -1.
         -5    1    1    2    0  502 -0.20531722889E+02 -0.72423230581E+02 -0.25061836070E+02  0.79449631842E+02  0.41800000000E+01 0.  1.
        -11    1    1    2    0    0  0.20348667318E+02 -0.20101300487E+02 -0.42507151802E+02  0.51234641574E+02  0.00000000000E+00 0. -1.
         11    1    1    2    0    0 -0.21615953230E+02  0.40720746505E+02 -0.48620343206E+02  0.67002734298E+02  0.00000000000E+00 0.  1.
</event>
<event>
 6    1  0.6597032E-006  0.8197732E+02  0.7561462E-02  0.1323532E+00
         -2   -1    0    0    0  501 -0.00000000000E+00  0.00000000000E+00  0.21538631046E+03  0.21538631046E+03  0.00000000000E+00 0.  1.
          2   -1    0    0  501    0  0.00000000000E+00 -0.00000000000E+00 -0.42949541504E+02  0.42949541504E+02  0.00000000000E+00 0. -1.
          5    1    1    2  502    0 -0.58755071369E+02  0.32546467813E+01  0.26503651484E+02  0.64673542343E+02  0.41800000000E+01 0. -1.
         -5    1    1    2    0  502  0.31424302703E+02  0.29349804111E+02  0.11725590788E+03  0.12496126654E+03  0.41800000000E+01 0.  1.
        -11    1    1    2    0    0  0.38477321359E+02 -0.15801092988E+02  0.23921593909E+02  0.47983553992E+02  0.00000000000E+00 0. -1.
         11    1    1    2    0    0 -0.11146552693E+02 -0.16803357905E+02  0.47556156842E+01  0.20717489094E+02  0.00000000000E+00 0.  1.
</event>
<event>
 6    1  0.6597032E-006  0.2132423E+03  0.7561462E-02  0.1139024E+00
          2   -1    0    0  501    0  0.00000000000E+00  0.00000000000E+00  0.44363528794E+02  0.44363528794E+02  0.00000000000E+00 0. -1.
         -2   -1    0    0    0  501 -0.00000000000E+00 -0.00000000000E+00 -0.13170032907E+04  0.13170032907E+04  0.00000000000E+00 0.  1.
          5    1    1    2  502    0  0.94603310504E+01  0.94063061335E+02 -0.17584521101E+03  0.19969068082E+03  0.41800000000E+01 0.  1.
         -5    1    1    2    0  502  0.67646055720E+02  0.98170225785E+02 -0.65064336121E+03  0.66148895529E+03  0.41800000000E+01 0.  1.
        -11    1    1    2    0    0 -0.44892427619E+02 -0.52099397607E+02 -0.23402011642E+03  0.24391615809E+03  0.00000000000E+00 0. -1.
         11    1    1    2    0    0 -0.32213959151E+02 -0.14013388951E+03 -0.21213107321E+03  0.25627102524E+03  0.00000000000E+00 0.  1.
</event>
<event>
 6    1  0.6597032E-006  0.2511360E+03  0.7561462E-02  0.1112589E+00
          2   -1    0    0  501    0  0.00000000000E+00  0.00000000000E+00  0.17048842265E+04  0.17048842265E+04  0.00000000000E+00 0.  1.
         -2   -1    0    0    0  501 -0.00000000000E+00 -0.00000000000E+00 -0.51178015323E+02  0.51178015323E+02  0.00000000000E+00 0. -1.
          5    1    1    2  502    0  0.40862271874E+02  0.12637017442E+03  0.26625453800E+03  0.29757032387E+03  0.41800000000E+01 0. -1.
         -5    1    1    2    0  502 -0.68338766047E+02  0.10574355144E+03  0.14931755225E+03  0.19535887342E+03  0.41800000000E+01 0. -1.
        -11    1    1    2    0    0  0.48295607770E+02 -0.19473675083E+03  0.11115970441E+04  0.11295586998E+04  0.00000000000E+00 0. -1.
         11    1    1    2    0    0 -0.20819113597E+02 -0.37376975029E+02  0.12653707677E+03  0.13357434466E+03  0.00000000000E+00 0.  1.
</event>
<event>
 6    1  0.6597032E-006  0.1781911E+03  0.7561462E-02  0.1169565E+00
         -1   -1    0    0    0  501 -0.00000000000E+00  0.00000000000E+00  0.39726326831E+02  0.39726326831E+02  0.00000000000E+00 0.  1.
          1   -1    0    0  501    0  0.00000000000E+00 -0.00000000000E+00 -0.84967623708E+03  0.84967623708E+03  0.00000000000E+00 0. -1.
          5    1    1    2  502    0  0.69536135919E+01  0.16438824145E+03 -0.35677100056E+03  0.39290567050E+03  0.41800000000E+01 0. -1.
         -5    1    1    2    0  502 -0.16685737812E+02 -0.17022049825E+02 -0.23207220496E+02  0.33529263483E+02  0.41800000000E+01 0. -1.
        -11    1    1    2    0    0 -0.35910846886E+01 -0.15306213181E+03 -0.41399670191E+03  0.44140025065E+03  0.00000000000E+00 0. -1.
         11    1    1    2    0    0  0.13323208908E+02  0.56959401841E+01 -0.15974987290E+02  0.21567379283E+02  0.00000000000E+00 0.  1.
</event>
<event>
 6    1  0.6597032E-006  0.1209451E+03  0.7561462E-02  0.1241546E+00
          2   -1    0    0  501    0  0.00000000000E+00  0.00000000000E+00  0.86110452716E+03  0.86110452716E+03  0.00000000000E+00 0. -1.
         -2   -1    0    0    0  501 -0.00000000000E+00 -0.00000000000E+00 -0.17110505394E+02  0.17110505394E+02  0.00000000000E+00 0.  1.
          5    1    1    2  502    0 -0.17957552117E+02 -0.81943782946E+02  0.31034860361E+03  0.32151358510E+03  0.41800000000E+01 0.  1.
         -5    1    1    2    0  502 -0.20545516261E+02  0.46725652483E+02  0.16294532728E+03  0.17080414784E+03  0.41800000000E+01 0.  1.
        -11    1    1    2    0    0  0.45385612371E+02  0.63233584899E+02  0.28688837413E+03  0.29725961596E+03  0.00000000000E+00 0.  1.
         11    1    1    2    0    0 -0.68825439922E+01 -0.28015454435E+02  0.83811716752E+02  0.88637683656E+02  0.00000000000E+00 0. -1.
</event>
<event>
 6    1  0.6597032E-006  0.1845456E+03  0.7561462E-02  0.1163475E+00
          2   -1    0    0  501    0  0.00000000000E+00  0.00000000000E+00  0.71115285576E+03  0.71115285576E+03  0.00000000000E+00 0. -1.
         -2   -1    0    0    0  501 -0.00000000000E+00 -0.00000000000E+00 -0.52825533350E+02  0.52825533350E+02  0.00000000000E+00 0.  1.
          5    1    1    2  502    0 -0.40382217631E+01 -0.68578909817E+02  0.78024149373E+02  0.10404140710E+03  0.41800000000E+01 0. -1.
         -5    1    1    2    0  502  0.12252890010E+03 -0.37830308052E+02  0.26175140626E+03  0.29150597703E+03  0.41800000000E+01 0. -1.
        -11    1    1    2    0    0 -0.23122192331E+02  0.63133576478E+02  0.62531028584E+02  0.91818373939E+02  0.00000000000E+00 0.  1.
         11    1    1    2    0    0 -0.95368486010E+02  0.43275641391E+02  0.25602073819E+03  0.27661263103E+03  0.00000000000E+00 0. -1.
</event>
<event>
 6    1  0.6597032E-006  0.9927012E+02  0.7561462E-02  0.1281838E+00
         -3   -1    0    0    0  501 -0.00000000000E+00  0.00000000000E+00  0.88102001844E+02  0.88102001844E+02  0.00000000000E+00 0.  1.
          3   -1    0    0  501    0  0.00000000000E+00 -0.00000000000E+00 -0.22273195306E+03  0.22273195306E+03  0.00000000000E+00 0. -1.
          5    1    1    2  502    0  0.35089959774E+02 -0.57022045886E+02 -0.30882566274E+02  0.73851366227E+02  0.41800000000E+01 0.  1.
         -5    1    1    2    0  502 -0.68038218169E+01  0.33961892811E+02  0.45406127757E+02  0.57261601379E+02  0.41800000000E+01 0.  1.
        -11    1    1    2    0    0  0.82886682983E+01  0.50290934567E+02 -0.54285742695E+02  0.74463561436E+02  0.00000000000E+00 0.  1.
         11    1    1    2    0    0 -0.36574806255E+02 -0.27230781492E+02 -0.94867770005E+02  0.10525742586E+03  0.00000000000E+00 0. -1.
</event>
<event>
 6    1  0.6597032E-006  0.1329191E+03  0.7561462E-02  0.1223187E+00
          1   -1    0    0  501    0  0.00000000000E+00  0.00000000000E+00  0.45892441105E+03  0.45892441105E+03  0.00000000000E+00 0. -1.
         -1   -1    0    0    0  501 -0.00000000000E+00 -0.00000000000E+00 -0.60257114489E+02  0.60257114489E+02  0.00000000000E+00 0.  1.
          5    1    1    2  502    0 -0.31930680606E+02 -0.53921659979E+02  0.28354949604E+01  0.62869914987E+02  0.41800000000E+01 0.  1.
         -5    1    1    2    0  502 -0.30554253978E+01 -0.60693932227E+02  0.17542311131E+03  0.18569822136E+03  0.41800000000E+01 0.  1.
        -11    1    1    2    0    0  0.40493720435E+02  0.16304831309E+02  0.12927635340E+03  0.13644766200E+03  0.00000000000E+00 0. -1.
         11    1    1    2    0    0 -0.55076144313E+01  0.98310760897E+02  0.91132336891E+02  0.13416572719E+03  0.00000000000E+00 0.  1.
</event>
<event>
 6    1  0.6597032E-006  0.1001386E+03  0.7561462E-02  0.1280005E+00
         -2   -1    0    0    0  501 -0.00000000000E+00  0.00000000000E+00  0.10323174180E+03  0.10323174180E+03  0.00000000000E+00 0.  1.
          2   -1    0    0  501    0  0.00000000000E+00 -0.00000000000E+00 -0.15966055812E+03  0.15966055812E+03  0.00000000000E+00 0. -1.
          5    1    1    2  502    0 -0.30874386469E+02  0.32017409140E+02  0.23979152451E+02  0.50703198914E+02  0.41800000000E+01 0. -1.
         -5    1    1    2    0  502  0.36348639720E+02 -0.75152064299E+02 -0.16304884776E+01  0.83601359263E+02  0.41800000000E+01 0. -1.
        -11    1    1    2    0    0 -0.18088625651E+02  0.53000941582E+02 -0.86643794732E+01  0.56668947918E+02  0.00000000000E+00 0.  1.
         11    1    1    2    0    0  0.12614372399E+02 -0.98662864226E+01 -0.70113100815E+02  0.71918793821E+02  0.00000000000E+00 0. -1.
</event>
<event>
 6    1  0.6597032E-006  0.9524958E+02  0.7561462E-02  0.1290615E+00
         -1   -1    0    0    0  501 -0.00000000000E+00  0.00000000000E+00  0.12593993952E+03  0.12593993952E+03  0.00000000000E+00 0.  1.
          1   -1    0    0  501    0  0.00000000000E+00 -0.00000000000E+00 -0.10778465288E+03  0.10778465288E+03  0.00000000000E+00 0. -1.
          5    1    1    2  502    0  0.20952941742E+02  0.11582949505E+02 -0.30082819761E+02  0.38673491329E+02  0.41800000000E+01 0. -1.
         -5    1    1    2    0  502 -0.32548108856E+02 -0.58101975403E+02  0.60495346608E+02  0.90068742064E+02  0.41800000000E+01 0.  1.
        -11    1    1    2    0    0 -0.24760673538E+02 -0.14312395062E+02  0.10629189387E+02  0.30510904174E+02  0.00000000000E+00 0. -1.
         11    1    1    2    0    0  0.36355840653E+02  0.60831420960E+02 -0.22886429589E+02  0.74471454833E+02  0.00000000000E+00 0.  1.
</event>
<event>
 6    1  0.6597032E-006  0.1176587E+03  0.7561462E-02  0.1247010E+00
         -2   -1    0    0    0  501 -0.00000000000E+00  0.00000000000E+00  0.21948677235E+02  0.21948677235E+02  0.00000000000E+00 0.  1.
          2   -1    0    0  501    0  0.00000000000E+00 -0.00000000000E+00 -0.74981410313E+03  0.74981410313E+03  0.00000000000E+00 0. -1.
          5    1    1    2  502    0 -0.63323831784E+02  0.17510987265E+02 -0.10530265823E+03  0.12418802107E+03  0.41800000000E+01 0. -1.
         -5    1    1    2    0  502  0.36453353135E+02  0.38051951436E+02 -0.29554561681E+03  0.30023571070E+03  0.41800000000E+01 0. -1.
        -11    1    1    2    0    0 -0.37726476496E+02 -0.24142251479E+02 -0.14054329888E+03  0.14750781063E+03  0.00000000000E+00 0. -1.
         11    1    1    2    0    0  0.64596955145E+02 -0.31420687222E+02 -0.18647385198E+03  0.19983123797E+03  0.00000000000E+00 0.  1.
</event>
<event>
 6    1  0.6597032E-006  0.1356098E+03  0.7561462E-02  0.1219361E+00
          3   -1    0    0  501    0  0.00000000000E+00  0.00000000000E+00  0.13541812097E+03  0.13541812097E+03  0.00000000000E+00 0. -1.
         -3   -1    0    0    0  501 -0.00000000000E+00 -0.00000000000E+00 -0.17935829231E+03  0.17935829231E+03  0.00000000000E+00 0.  1.
          5    1    1    2  502    0 -0.25371266444E+02  0.19182879713E+02 -0.12363785304E+02  0.34380512243E+02  0.41800000000E+01 0. -1.
         -5    1    1    2    0  502  0.12650508646E+03 -0.23814623651E+02 -0.58196832716E+02  0.14133300017E+03  0.41800000000E+01 0. -1.
        -11    1    1    2    0    0 -0.72834488246E+02  0.23266537950E+02 -0.22216405454E+02  0.79622629557E+02  0.00000000000E+00 0.  1.
         11    1    1    2    0    0 -0.28299331769E+02 -0.18634794012E+02  0.48836852137E+02  0.59440271307E+02  0.00000000000E+00 0. -1.
</event>
<event>
 6    1  0.6597032E-006  0.9945253E+02  0.7561462E-02  0.1281451E+00
         -2   -1    0    0    0  501 -0.00000000000E+00  0.00000000000E+00  0.14195378469E+04  0.14195378469E+04  0.00000000000E+00 0.  1.
          2   -1    0    0  501    0  0.00000000000E+00 -0.00000000000E+00 -0.10887513478E+02  0.10887513478E+02  0.00000000000E+00 0. -1.
          5    1    1    2  502    0 -0.64366027028E+02  0.55064465269E+01  0.95199959103E+03  0.95419809270E+03  0.41800000000E+01 0.  1.
         -5    1    1    2    0  502  0.29798746755E+02  0.20632073922E+02  0.10711172823E+03  0.11315494911E+03  0.41800000000E+01 0.  1.
        -11    1    1    2    0    0  0.35331951352E+02  0.27045372612E+02  0.14080383263E+03  0.14766691657E+03  0.00000000000E+00 0.  1.
         11    1    1    2    0    0 -0.76467107867E+00 -0.53183893061E+02  0.20873518148E+03  0.21540540195E+03  0.00000000000E+00 0. -1.
</event>
<event>
 6    1  0.6597032E-006  0.1478760E+03  0.7561462E-02  0.1203107E+00
         -2   -1    0    0    0  501 -0.00000000000E+00  0.00000000000E+00  0.16528672382E+02  0.16528672382E+02  0.00000000000E+00 0.  1.
          2   -1    0    0  501    0  0.00000000000E+00 -0.00000000000E+00 -0.14955737038E+04  0.14955737038E+04  0.00000000000E+00 0. -1.
          5    1    1    2  502    0 -0.63286784440E+02  0.97432021352E+02 -0.84615299040E+03  0.85410220198E+03  0.41800000000E+01 0. -1.
         -5    1    1    2    0  502  0.38869903370E+02  0.68540776352E+01 -0.13275829915E+03  0.13856437551E+03  0.41800000000E+01 0. -1.
        -11    1    1    2    0    0 -0.27208291955E+02 -0.76462531150E+02 -0.26887584241E+03  0.28085766583E+03  0.00000000000E+00 0.  1.
         11    1    1    2    0    0  0.51625173025E+02 -0.27823567837E+02 -0.23125789945E+03  0.23857813285E+03  0.00000000000E+00 0. -1.
</event>
<event>
 6    1  0.6597032E-006  0.6717619E+02  0.7561462E-02  0.1369968E+00
          1   -1    0    0  501    0  0.00000000000E+00  0.00000000000E+00  0.13571151231E+03  0.13571151231E+03  0.00000000000E+00 0. -1.
         -1   -1    0    0    0  501 -0.00000000000E+00 -0.00000000000E+00 -0.10887962197E+03  0.10887962197E+03  0.00000000000E+00 0.  1.
          5    1    1    2  502    0  0.28868754321E+02  0.29418197803E+02  0.29533952099E+02  0.50877913328E+02  0.41800000000E+01 0. -1.
         -5    1    1    2    0  502 -0.17466821628E+02  0.77876418869E+01 -0.71192981513E+02  0.73835291296E+02  0.41800000000E+01 0.  1.
        -11    1    1    2    0    0  0.58300871781E+01  0.16207442447E+02 -0.12542158252E+02  0.21306732288E+02  0.00000000000E+00 0.  1.
         11    1    1    2    0    0 -0.17232019871E+02 -0.53413282137E+02  0.81033078013E+02  0.98571197364E+02  0.00000000000E+00 0. -1.
</event>
<event>
 6    1  0.6597032E-006  0.9213601E+02  0.7561462E-02  0.1297760E+00
         -2   -1    0    0    0  501 -0.00000000000E+00  0.00000000000E+00  0.13286446420E+03  0.13286446420E+03  0.00000000000E+00 0.  1.
          2   -1    0    0  501    0  0.00000000000E+00 -0.00000000000E+00 -0.18020085210E+03  0.18020085210E+03  0.00000000000E+00 0. -1.
          5    1    1    2  502    0 -0.11287063238E+02 -0.16337297714E+02 -0.38903149868E+02  0.43877472156E+02  0.41800000000E+01 0.  1.
         -5    1    1    2    0  502  0.30213002849E+02 -0.60423680561E+02  0.90135886613E+02  0.11271999454E+03  0.41800000000E+01 0.  1.
        -11    1    1    2    0    0  0.12659348625E+02  0.58407632827E+02 -0.99127991965E+01  0.60580312545E+02  0.00000000000E+00 0.  1.
         11    1    1    2    0    0 -0.31585288236E+02  0.18353345447E+02 -0.88656325446E+02  0.95887537061E+02  0.00000000000E+00 0. -1.
</event>
<event>
 6    1  0.6597032E-006  0.9191715E+02  0.7561462E-02  0.1298274E+00
          3   -1    0    0  501    0  0.00000000000E+00  0.00000000000E+00  0.43598136525E+03  0.43598136525E+03  0.00000000000E+00 0. -1.
         -3   -1    0    0    0  501 -0.00000000000E+00 -0.00000000000E+00 -0.43725440536E+02  0.43725440536E+02  0.00000000000E+00 0.  1.
          5    1    1    2  502    0 -0.41292987366E+02  0.39137395705E+02 -0.76231721876E+01  0.57553728831E+02  0.41800000000E+01 0. -1.
         -5    1    1    2    0  502  0.36544310941E+02 -0.86570437674E+01  0.84274807736E+02  0.92358793236E+02  0.41800000000E+01 0. -1.
        -11    1    1    2    0    0  0.32307564519E+02 -0.46877338422E+02  0.13740594207E+03  0.14873350832E+03  0.00000000000E+00 0.  1.
         11    1    1    2    0    0 -0.27558888095E+02  0.16396986484E+02  0.17819834710E+03  0.18106077539E+03  0.00000000000E+00 0. -1.
</event>
<event>
 6    1  0.6597032E-006  0.1235249E+03  0.7561462E-02  0.1237393E+00
          2   -1    0    0  501    0  0.00000000000E+00  0.00000000000E+00  0.14796595804E+03  0.14796595804E+03  0.00000000000E+00 0. -1.
         -2   -1    0    0    0  501 -0.00000000000E+00 -0.00000000000E+00 -0.14069494411E+03  0.14069494411E+03  0.00000000000E+00 0.  1.
          5    1    1    2  502    0 -0.41046657213E+02  0.17774822753E+02 -0.19349255933E+02  0.48914604133E+02  0.41800000000E+01 0. -1.
         -5    1    1    2    0  502  0.94093086270E+02  0.42293307432E+02 -0.27288140178E+02  0.10679114070E+03  0.41800000000E+01 0. -1.
        -11    1    1    2    0    0 -0.52966639470E+02 -0.70648276035E+02  0.11259695545E+02  0.89013620010E+02  0.00000000000E+00 0.  1.
         11    1    1    2    0    0 -0.79789586998E-01  0.10580145850E+02  0.42648714495E+02  0.43941537304E+02  0.00000000000E+00 0. -1.
</event>
<event>
 6    1  0.6597032E-006  0.1038440E+03  0.7561462E-02  0.1272414E+00
         -3   -1    0    0    0  501 -0.00000000000E+00  0.00000000000E+00  0.56097456695E+02  0.56097456695E+02  0.00000000000E+00 0. -1.
          3   -1    0    0  501    0  0.00000000000E+00 -0.00000000000E+00 -0.32446966195E+03  0.32446966195E+03  0.00000000000E+00 0.  1.
          5    1    1    2  502    0 -0.81626150756E+02  0.21853597142E+02 -0.26512797243E+02  0.88661203538E+02  0.41800000000E+01 0. -1.
         -5    1    1    2    0  502  0.28304824948E+01 -0.27972297980E+02 -0.10674677203E+03  0.11046631533E+03  0.41800000000E+01 0. -1.
        -11    1    1    2    0    0  0.43092447534E+02  0.29282734862E+02 -0.12812188006E+03  0.13830999149E+03  0.00000000000E+00 0.  1.
         11    1    1    2    0    0  0.35703220727E+02 -0.23164034024E+02 -0.69907559280E+01  0.43129608287E+02  0.00000000000E+00 0. -1.
</event>
<event>
 6    1  0.6597032E-006  0.1393792E+03  0.7561462E-02  0.1214167E+00
         -2   -1    0    0    0  501 -0.00000000000E+00  0.00000000000E+00  0.28779093621E+02  0.28779093621E+02  0.00000000000E+00 0.  1.
          2   -1    0    0  501    0  0.00000000000E+00 -0.00000000000E+00 -0.80338094361E+03  0.80338094361E+03  0.00000000000E+00 0. -1.
          5    1    1    2  502    0  0.10290911916E+03 -0.71351788468E+02 -0.21889195849E+03  0.25221523827E+03  0.41800000000E+01 0.  1.
         -5    1    1    2    0  502 -0.29325787651E+02  0.95429789197E+01 -0.78017406576E+02  0.83995585579E+02  0.41800000000E+01 0.  1.
        -11    1    1    2    0    0 -0.63882705910E+02  0.43070340636E+01 -0.34670557523E+03  0.35256815873E+03  0.00000000000E+00 0.  1.
         11    1    1    2    0    0 -0.97006256015E+01  0.57501775484E+02 -0.13098690969E+03  0.14338105465E+03  0.00000000000E+00 0. -1.
</event>
<event>
 6    1  0.6597032E-006  0.1315058E+03  0.7561462E-02  0.1225238E+00
         -3   -1    0    0    0  501 -0.00000000000E+00  0.00000000000E+00  0.11302097776E+03  0.11302097776E+03  0.00000000000E+00 0.  1.
          3   -1    0    0  501    0  0.00000000000E+00 -0.00000000000E+00 -0.22516874686E+03  0.22516874686E+03  0.00000000000E+00 0. -1.
          5    1    1    2  502    0  0.12468249602E+03  0.36044208893E+02 -0.16118433221E+02  0.13085177147E+03  0.41800000000E+01 0. -1.
         -5    1    1    2    0  502 -0.26312986179E+02 -0.26858288042E+01  0.17044173298E+02  0.31742135427E+02  0.41800000000E+01 0. -1.
        -11    1    1    2    0    0 -0.47869429268E+02 -0.41721901900E+01 -0.10657625986E+03  0.11690760709E+03  0.00000000000E+00 0. -1.
         11    1    1    2    0    0 -0.50500080571E+02 -0.29186189899E+02 -0.64972493222E+01  0.58688210633E+02  0.00000000000E+00 0.  1.
</event>
<event>
 6    1  0.6597032E-006  0.1239674E+03  0.7561462E-02  0.1236692E+00
          2   -1    0    0  501    0  0.00000000000E+00  0.00000000000E+00  0.66966311711E+03  0.66966311711E+03  0.00000000000E+00 0. -1.
         -2   -1    0    0    0  501 -0.00000000000E+00 -0.00000000000E+00 -0.29619792655E+02  0.29619792655E+02  0.00000000000E+00 0.  1.
          5    1    1    2  502    0 -0.47943442211E+02 -0.29336776609E+02  0.25424146126E+03  0.26041392655E+03  0.41800000000E+01 0.  1.
         -5    1    1    2    0  502  0.69140483792E+02 -0.47783337845E+02  0.18499800235E+03  0.20323726811E+03  0.41800000000E+01 0.  1.
        -11    1    1    2    0    0 -0.34617502098E+02  0.61056698932E+01  0.12919562119E+03  0.13389234180E+03  0.00000000000E+00 0. -1.
         11    1    1    2    0    0  0.13420460517E+02  0.71014444560E+02  0.71608239644E+02  0.10173937331E+03  0.00000000000E+00 0.  1.
</event>
<event>
 6    1  0.6597032E-006  0.1075928E+03  0.7561462E-02  0.1265094E+00
         -1   -1    0    0    0  501 -0.00000000000E+00  0.00000000000E+00  0.95858974343E+03  0.95858974343E+03  0.00000000000E+00 0.  1.
          1   -1    0    0  501    0  0.00000000000E+00 -0.00000000000E+00 -0.13995539134E+02  0.13995539134E+02  0.00000000000E+00 0. -1.
          5    1    1    2  502    0 -0.39621682845E+02 -0.53630271023E+02  0.21300233114E+03  0.22323429215E+03  0.41800000000E+01 0.  1.
         -5    1    1    2    0  502  0.51341473506E+02  0.16754199809E+02  0.39569394894E+03  0.39938430583E+03  0.41800000000E+01 0.  1.
        -11    1    1    2    0    0  0.37078386818E+02  0.95858526948E+01  0.90310170549E+02  0.98094965444E+02  0.00000000000E+00 0. -1.
         11    1    1    2    0    0 -0.48798177479E+02  0.27290218520E+02  0.24558775367E+03  0.25187171914E+03  0.00000000000E+00 0.  1.
</event>
<event>
 6    1  0.6597032E-006  0.9121736E+02  0.7561462E-02  0.1299930E+00
         -2   -1    0    0    0  501 -0.00000000000E+00  0.00000000000E+00  0.73085898572E+02  0.73085898572E+02  0.00000000000E+00 0. -1.
          2   -1    0    0  501    0  0.00000000000E+00 -0.00000000000E+00 -0.19978389745E+03  0.19978389745E+03  0.00000000000E+00 0.  1.
          5    1    1    2  502    0  0.38879526121E+02 -0.66851857743E+02 -0.40502325502E+02  0.87399652209E+02  0.41800000000E+01 0.  1.
         -5    1    1    2    0  502 -0.49453399416E+02  0.21081007349E+02 -0.68615646272E+01  0.54356242087E+02  0.41800000000E+01 0.  1.
        -11    1    1    2    0    0 -0.38046006560E+01  0.27755588943E+02 -0.97702942277E+02  0.10164011331E+03  0.00000000000E+00 0.  1.
         11    1    1    2    0    0  0.14378473951E+02  0.18015261451E+02  0.18368833530E+02  0.29473788416E+02  0.00000000000E+00 0. -1.
</event>
<event>
 6    1  0.6597032E-006  0.1390603E+03  0.7561462E-02  0.1214599E+00
         -2   -1    0    0    0  501 -0.00000000000E+00  0.00000000000E+00  0.16088433092E+03  0.16088433092E+03  0.00000000000E+00 0.  1.
          2   -1    0    0  501    0  0.00000000000E+00 -0.00000000000E+00 -0.17992440820E+03  0.17992440820E+03  0.00000000000E+00 0. -1.
          5    1    1    2  502    0  0.53327645129E+02 -0.70229129172E+02  0.59965280747E+02  0.10672054917E+03  0.41800000000E+01 0.  1.
         -5    1    1    2    0  502 -0.61657495061E+02 -0.28384958004E+02  0.15574164760E+02  0.69766607672E+02  0.41800000000E+01 0.  1.
        -11    1    1    2    0    0  0.15847235154E+02  0.10836734257E+03 -0.54378567206E+02  0.12227691674E+03  0.00000000000E+00 0.  1.
         11    1    1    2    0    0 -0.75173852225E+01 -0.97532553885E+01 -0.40200955580E+02  0.42044665545E+02  0.00000000000E+00 0. -1.
</event>
<event>
 6    1  0.6597032E-006  0.1600096E+03  0.7561462E-02  0.1188686E+00
         -1   -1    0    0    0  501 -0.00000000000E+00  0.00000000000E+00  0.59245530085E+03  0.59245530085E+03  0.00000000000E+00 0.  1.
          1   -1    0    0  501    0  0.00000000000E+00 -0.00000000000E+00 -0.62676283366E+02  0.62676283366E+02  0.00000000000E+00 0. -1.
          5    1    1    2  502    0  0.75522046320E+02 -0.36453413945E+02  0.13560175553E+03  0.15949212949E+03  0.41800000000E+01 0. -1.
         -5    1    1    2    0  502 -0.29064182109E+02 -0.76476652990E+02  0.30823545700E+03  0.31893569021E+03  0.41800000000E+01 0.  1.
        -11    1    1    2    0    0 -0.15813660403E+02  0.12133376749E+03  0.63982683548E+02  0.13807874124E+03  0.00000000000E+00 0. -1.
         11    1    1    2    0    0 -0.30644203808E+02 -0.84037005552E+01  0.21959121409E+02  0.38625023277E+02  0.00000000000E+00 0.  1.
</event>
<event>
 6    1  0.6597032E-006  0.1128590E+03  0.7561462E-02  0.1255365E+00
          3   -1    0    0  501    0  0.00000000000E+00  0.00000000000E+00  0.11918179618E+03  0.11918179618E+03  0.00000000000E+00 0. -1.
         -3   -1    0    0    0  501 -0.00000000000E+00 -0.00000000000E+00 -0.16369948145E+03  0.16369948145E+03  0.00000000000E+00 0.  1.
          5    1    1    2  502    0  0.14723037518E+02 -0.59624192898E+02  0.39489056164E+02  0.73134603091E+02  0.41800000000E+01 0. -1.
         -5    1    1    2    0  502  0.60228794012E+02  0.12964895881E+02 -0.51571091338E+02  0.80452756417E+02  0.41800000000E+01 0. -1.
        -11    1    1    2    0    0 -0.88651078750E+01 -0.11401187893E+02  0.21652644830E+02  0.26027182928E+02  0.00000000000E+00 0. -1.
         11    1    1    2    0    0 -0.66086723654E+02  0.58060484910E+02 -0.54088294922E+02  0.10326673520E+03  0.00000000000E+00 0.  1.
</event>
<event>
 6    1  0.6597032E-006  0.1196017E+03  0.7561462E-02  0.1243755E+00
          2   -1    0    0  501    0  0.00000000000E+00  0.00000000000E+00  0.94041876695E+02  0.94041876695E+02  0.00000000000E+00 0. -1.
         -2   -1    0    0    0  501 -0.00000000000E+00 -0.00000000000E+00 -0.16636374952E+03  0.16636374952E+03  0.00000000000E+00 0.  1.
          5    1    1    2  502    0 -0.14325077005E+02  0.39439219573E+02 -0.20201417816E+02  0.46757133718E+02  0.41800000000E+01 0. -1.
         -5    1    1    2    0  502 -0.14237373732E+02 -0.90977394550E+02  0.52079686079E+01  0.92326510098E+02  0.41800000000E+01 0. -1.
        -11    1    1    2    0    0  0.21231329090E+02  0.76213080230E+02 -0.32411851472E+02  0.85496965144E+02  0.00000000000E+00 0. -1.
         11    1    1    2    0    0  0.73311216463E+01 -0.24674905254E+02 -0.24916572144E+02  0.35825017255E+02  0.00000000000E+00 0.  1.
</event>
<event>
 6    1  0.6597032E-006  0.1455791E+03  0.7561462E-02  0.1206013E+00
          2   -1    0    0  501    0  0.00000000000E+00  0.00000000000E+00  0.18316558687E+04  0.18316558687E+04  0.00000000000E+00 0. -1.
         -2   -1    0    0    0  501 -0.00000000000E+00 -0.00000000000E+00 -0.17445968233E+02  0.17445968233E+02  0.00000000000E+00 0.  1.
          5    1    1    2  502    0  0.12059060630E+03  0.59742576026E+02  0.54273982817E+03  0.55919161581E+03  0.41800000000E+01 0. -1.
         -5    1    1    2    0  502  0.48327489144E+01  0.56256132723E+01  0.52797857591E+03  0.52804720622E+03  0.41800000000E+01 0. -1.
        -11    1    1    2    0    0 -0.32730963871E+02  0.29346065494E+01  0.57098845980E+02  0.65880240769E+02  0.00000000000E+00 0.  1.
         11    1    1    2    0    0 -0.92692391344E+02 -0.68302795848E+02  0.68639265039E+03  0.69598277410E+03  0.00000000000E+00 0. -1.
</event>
<event>
 6    1  0.6597032E-006  0.1248360E+03  0.7561462E-02  0.1235326E+00
         -1   -1    0    0    0  501 -0.00000000000E+00  0.00000000000E+00  0.37943102203E+02  0.37943102203E+02  0.00000000000E+00 0.  1.
          1   -1    0    0  501    0  0.00000000000E+00 -0.00000000000E+00 -0.67068379649E+03  0.67068379649E+03  0.00000000000E+00 0. -1.
          5    1    1    2  502    0  0.10239006440E+03  0.17451082211E+02 -0.15008911271E+03  0.18257184809E+03  0.41800000000E+01 0. -1.
         -5    1    1    2    0  502 -0.24621680870E+02 -0.77738223346E+01  0.23620482805E+01  0.26262352420E+02  0.41800000000E+01 0. -1.
        -11    1    1    2    0    0 -0.65636685561E+02  0.34220761060E+02 -0.33161204155E+03  0.33977313178E+03  0.00000000000E+00 0. -1.
         11    1    1    2    0    0 -0.12131697973E+02 -0.43898020936E+02 -0.15340158830E+03  0.16001956640E+03  0.00000000000E+00 0.  1.
</event>
<event>
 6    1  0.6597032E-006  0.1291749E+03  0.7561462E-02  0.1228685E+00
          2   -1    0    0  501    0  0.00000000000E+00  0.00000000000E+00  0.41044133976E+02  0.41044133976E+02  0.00000000000E+00 0. -1.
         -2   -1    0    0    0  501 -0.00000000000E+00 -0.00000000000E+00 -0.47029845321E+03  0.47029845321E+03  0.00000000000E+00 0.  1.
          5    1    1    2  502    0 -0.47724791645E+02  0.22410642277E+02 -0.59422516734E+02  0.79551244616E+02  0.41800000000E+01 0.  1.
         -5    1    1    2    0  502  0.71851825074E+02  0.59703361356E+02 -0.20279684381E+03  0.22331862525E+03  0.41800000000E+01 0.  1.
        -11    1    1    2    0    0  0.37196211849E+01  0.12645109440E+02 -0.65545339805E+02  0.66857504775E+02  0.00000000000E+00 0.  1.
         11    1    1    2    0    0 -0.27846654614E+02 -0.94759113073E+02 -0.10148961889E+03  0.14161521255E+03  0.00000000000E+00 0. -1.
</event>
<event>
 6    1  0.6597032E-006  0.1073035E+03  0.7561462E-02  0.1265646E+00
          2   -1    0    0  501    0  0.00000000000E+00  0.00000000000E+00  0.60548213792E+03  0.60548213792E+03  0.00000000000E+00 0.  1.
         -2   -1    0    0    0  501 -0.00000000000E+00 -0.00000000000E+00 -0.35278312751E+02  0.35278312751E+02  0.00000000000E+00 0. -1.
          5    1    1    2  502    0  0.54535390917E+02  0.51941156227E+01  0.63718897515E+02  0.84134760950E+02  0.41800000000E+01 0.  1.
         -5    1    1    2    0  502 -0.67139675592E+02  0.11539318854E+02  0.35809033690E+02  0.77075620089E+02  0.41800000000E+01 0.  1.
        -11    1    1    2    0    0 -0.28818215393E+02  0.20779960656E+02  0.20561442674E+03  0.20866142142E+03  0.00000000000E+00 0. -1.
         11    1    1    2    0    0  0.41422500068E+02 -0.37513395132E+02  0.26506146722E+03  0.27088864821E+03  0.00000000000E+00 0.  1.
</event>
<event>
 6    1  0.6597032E-006  0.1397914E+03  0.7561462E-02  0.1213610E+00
          1   -1    0    0  501    0  0.00000000000E+00  0.00000000000E+00  0.80313212541E+03  0.80313212541E+03  0.00000000000E+00 0. -1.
         -1   -1    0    0    0  501 -0.00000000000E+00 -0.00000000000E+00 -0.34495428180E+02  0.34495428180E+02  0.00000000000E+00 0.  1.
          5    1    1    2  502    0 -0.54838566487E+02 -0.92033255256E+02  0.13401844991E+03  0.17162693776E+03  0.41800000000E+01 0. -1.
         -5    1    1    2    0  502 -0.45049269995E+02  0.22165281463E+02  0.18889427717E+03  0.19549745977E+03  0.41800000000E+01 0. -1.
        -11    1    1    2    0    0  0.27890403709E+02  0.16976220487E+02  0.27039153450E+02  0.42393189316E+02  0.00000000000E+00 0.  1.
         11    1    1    2    0    0  0.71997432773E+02  0.52891753306E+02  0.41868481670E+03  0.42810996675E+03  0.00000000000E+00 0. -1.
</event>
<event>
 6    1  0.6597032E-006  0.1028891E+03  0.7561462E-02  0.1274335E+00
          2   -1    0    0  501    0  0.00000000000E+00  0.00000000000E+00  0.29769653500E+03  0.29769653500E+03  0.00000000000E+00 0. -1.
         -2   -1    0    0    0  501 -0.00000000000E+00 -0.00000000000E+00 -0.55146686093E+02  0.55146686093E+02  0.00000000000E+00 0.  1.
          5    1    1    2  502    0 -0.21729056081E+01 -0.19476034656E+02  0.94250984709E+02  0.96357448925E+02  0.41800000000E+01 0. -1.
         -5    1    1    2    0  502 -0.61339291837E+02  0.41500964093E+02  0.56146143709E+01  0.74389750895E+02  0.41800000000E+01 0.  1.
        -11    1    1    2    0    0  0.30443762579E+02 -0.56257569648E+02  0.66541503592E+02  0.92301183757E+02  0.00000000000E+00 0. -1.
         11    1    1    2    0    0  0.33068434867E+02  0.34232640211E+02  0.76142746232E+02  0.89794837514E+02  0.00000000000E+00 0.  1.
</event>
<event>
 6    1  0.6597032E-006  0.1822463E+03  0.7561462E-02  0.1165647E+00
          2   -1    0    0  501    0  0.00000000000E+00  0.00000000000E+00  0.39106343732E+03  0.39106343732E+03  0.00000000000E+00 0. -1.
         -2   -1    0    0    0  501 -0.00000000000E+00 -0.00000000000E+00 -0.10432013161E+03  0.10432013161E+03  0.00000000000E+00 0.  1.
          5    1    1    2  502    0 -0.19164472036E+02 -0.13472241071E+03  0.14555154011E+03  0.19929909223E+03  0.41800000000E+01 0. -1.
         -5    1    1    2    0  502 -0.24954472436E+02 -0.28252354168E+02 -0.22606765322E+02  0.44152683371E+02  0.41800000000E+01 0. -1.
        -11    1    1    2    0    0  0.71115225758E+02  0.12531044999E+03  0.13451149012E+03  0.19711272203E+03  0.00000000000E+00 0. -1.
         11    1    1    2    0    0 -0.26996281285E+02  0.37664314886E+02  0.29287040799E+02  0.54819071297E+02  0.00000000000E+00 0.  1.
</event>
<event>
 6    1  0.6597032E-006  0.2223718E+03  0.7561462E-02  0.1132127E+00
         -2   -1    0    0    0  501 -0.00000000000E+00  0.00000000000E+00  0.54347482958E+02  0.54347482958E+02  0.00000000000E+00 0.  1.
          2   -1    0    0  501    0  0.00000000000E+00 -0.00000000000E+00 -0.10346910219E+04  0.10346910219E+04  0.00000000000E+00 0. -1.
          5    1    1    2  502    0  0.17593821156E+03 -0.35639047314E+02 -0.32391748719E+03  0.37035713425E+03  0.41800000000E+01 0.  1.
         -5    1    1    2    0  502  0.28430528640E+02  0.50693464103E+02 -0.71473678271E+02  0.92217576129E+02  0.41800000000E+01 0.  1.
        -11    1    1    2    0    0 -0.81702073122E+02 -0.20111152973E+02 -0.36494919013E+03  0.37452316163E+03  0.00000000000E+00 0. -1.
         11    1    1    2    0    0 -0.12266666708E+03  0.50567361837E+01 -0.22000318336E+03  0.25194063286E+03  0.00000000000E+00 0.  1.
</event>
<event>
 6    1  0.6597032E-006  0.1432645E+03  0.7561462E-02  0.1209003E+00
          1   -1    0    0  501    0  0.00000000000E+00  0.00000000000E+00  0.54622773354E+02  0.54622773354E+02  0.00000000000E+00 0. -1.
         -1   -1    0    0    0  501 -0.00000000000E+00 -0.00000000000E+00 -0.42947085288E+03  0.42947085288E+03  0.00000000000E+00 0.  1.
          5    1    1    2  502    0  0.24473270717E+02  0.75690434968E+02 -0.11494956165E+03  0.13985298370E+03  0.41800000000E+01 0. -1.
         -5    1    1    2    0  502  0.72100350177E+02 -0.39289815913E+02 -0.13721588923E+03  0.15996194168E+03  0.41800000000E+01 0. -1.
        -11    1    1    2    0    0 -0.25064924290E+02 -0.46116491524E+02 -0.91877098138E+02  0.10581295943E+03  0.00000000000E+00 0.  1.
         11    1    1    2    0    0 -0.71508696604E+02  0.97158724690E+01 -0.30805530508E+02  0.78465741428E+02  0.00000000000E+00 0. -1.
</event>
<event>
 6    1  0.6597032E-006  0.1304674E+03  0.7561462E-02  0.1226764E+00
         -3   -1    0    0    0  501 -0.00000000000E+00  0.00000000000E+00  0.31890400308E+03  0.31890400308E+03  0.00000000000E+00 0.  1.
          3   -1    0    0  501    0  0.00000000000E+00 -0.00000000000E+00 -0.61364936444E+02  0.61364936444E+02  0.00000000000E+00 0. -1.
          5    1    1    2  502    0  0.19517871786E+02 -0.25096056202E+02  0.10345946525E+02  0.33693773393E+02  0.41800000000E+01 0. -1.
         -5    1    1    2    0  502 -0.10065352448E+03  0.31919256238E+02  0.17300797591E+03  0.20272938375E+03  0.41800000000E+01 0. -1.
        -11    1    1    2    0    0  0.13029197413E+02  0.38991352793E+02  0.22880563371E+02  0.47048971913E+02  0.00000000000E+00 0.  1.
         11    1    1    2    0    0  0.68106455282E+02 -0.45814552828E+02  0.51304580834E+02  0.96796810466E+02  0.00000000000E+00 0. -1.
</event>
<event>
 6    1  0.6597032E-006  0.1123268E+03  0.7561462E-02  0.1256321E+00
          2   -1    0    0  501    0  0.00000000000E+00  0.00000000000E+00  0.79074686430E+02  0.79074686430E+02  0.00000000000E+00 0. -1.
         -2   -1    0    0    0  501 -0.00000000000E+00 -0.00000000000E+00 -0.18367754050E+03  0.18367754050E+03  0.00000000000E+00 0.  1.
          5    1    1    2  502    0 -0.25829010004E+02  0.38535116031E+02 -0.42331207993E+02  0.62940420205E+02  0.41800000000E+01 0. -1.
         -5    1    1    2    0  502  0.35923290001E+02 -0.75505786036E+02 -0.56073954020E+02  0.10076391819E+03  0.41800000000E+01 0. -1.
        -11    1    1    2    0    0 -0.42746598512E+02  0.43574833398E+02  0.10249028473E+02  0.61895721780E+02  0.00000000000E+00 0. -1.
         11    1    1    2    0    0  0.32652318515E+02 -0.66041633939E+01 -0.16446720530E+02  0.37152166757E+02  0.00000000000E+00 0.  1.
</event>
<event>
 6    1  0.6597032E-006  0.1932094E+03  0.7561462E-02  0.1155598E+00
          1   -1    0    0  501    0  0.00000000000E+00  0.00000000000E+00  0.71962286558E+03  0.71962286558E+03  0.00000000000E+00 0. -1.
         -1   -1    0    0    0  501 -0.00000000000E+00 -0.00000000000E+00 -0.87645117064E+02  0.87645117064E+02  0.00000000000E+00 0.  1.
          5    1    1    2  502    0 -0.11984896213E+03  0.11606566132E+03  0.44855385133E+02  0.17281345271E+03  0.41800000000E+01 0. -1.
         -5    1    1    2    0  502 -0.32149400079E+02 -0.93544773749E+01  0.72547870907E+02  0.80010975157E+02  0.41800000000E+01 0. -1.
        -11    1    1    2    0    0  0.72813761779E+02 -0.48039866564E+02  0.36529804561E+03  0.37556934754E+03  0.00000000000E+00 0. -1.
         11    1    1    2    0    0  0.79184600426E+02 -0.58671317382E+02  0.14927644686E+03  0.17887420724E+03  0.00000000000E+00 0.  1.
</event>
<event>
 6    1  0.6597032E-006  0.9842147E+02  0.7561462E-02  0.1283651E+00
          1   -1    0    0  501    0  0.00000000000E+00  0.00000000000E+00  0.24826302803E+02  0.24826302803E+02  0.00000000000E+00 0. -1.
         -1   -1    0    0    0  501 -0.00000000000E+00 -0.00000000000E+00 -0.68260832591E+03  0.68260832591E+03  0.00000000000E+00 0.  1.
          5    1    1    2  502    0  0.37785735271E+02 -0.31085390002E+02 -0.30692549070E+03  0.31082920150E+03  0.41800000000E+01 0.  1.
         -5    1    1    2    0  502  0.29930822252E+02  0.14449169239E+02 -0.70073384924E+01  0.34222913452E+02  0.41800000000E+01 0.  1.
        -11    1    1    2    0    0 -0.65739722388E+02 -0.26628356028E+02 -0.20382272424E+03  0.21581122158E+03  0.00000000000E+00 0.  1.
         11    1    1    2    0    0 -0.19768351354E+01  0.43264576792E+02 -0.14002646968E+03  0.14657129218E+03  0.00000000000E+00 0. -1.
</event>
<event>
 6    1  0.6597032E-006  0.2785750E+03  0.7561462E-02  0.1096470E+00
         -1   -1    0    0    0  501 -0.00000000000E+00  0.00000000000E+00  0.85904684324E+02  0.85904684324E+02  0.00000000000E+00 0.  1.
          1   -1    0    0  501    0  0.00000000000E+00 -0.00000000000E+00 -0.10730295163E+04  0.10730295163E+04  0.00000000000E+00 0. -1.
          5    1    1    2  502    0  0.20661888517E+02  0.17996953617E+02 -0.49926467471E+02  0.57104540369E+02  0.41800000000E+01 0. -1.
         -5    1    1    2    0  502 -0.26820495078E+03  0.15026130676E+02 -0.25863533123E+03  0.37292008151E+03  0.41800000000E+01 0.  1.
        -11    1    1    2    0    0  0.51969049296E+02  0.23732263985E+02 -0.95239018089E+02  0.11106067263E+03  0.00000000000E+00 0.  1.
         11    1    1    2    0    0  0.19557401297E+03 -0.56755348278E+02 -0.58332401519E+03  0.61784890613E+03  0.00000000000E+00 0. -1.
</event>
<event>
 6    1  0.6597032E-006  0.1214321E+03  0.7561462E-02  0.1240753E+00
         -1   -1    0    0    0  501 -0.00000000000E+00  0.00000000000E+00  0.10542112598E+03  0.10542112598E+03  0.00000000000E+00 0.  1.
          1   -1    0    0  501    0  0.00000000000E+00 -0.00000000000E+00 -0.16859223615E+03  0.16859223615E+03  0.00000000000E+00 0. -1.
          5    1    1    2  502    0 -0.25759133267E+02  0.54729383710E+02  0.15179261414E+01  0.60651586028E+02  0.41800000000E+01 0. -1.
         -5    1    1    2    0  502 -0.43709173850E+02 -0.70839976069E+02 -0.16899647840E+00  0.83344436215E+02  0.41800000000E+01 0. -1.
        -11    1    1    2    0    0  0.10256350369E+02  0.35208355107E+02  0.46708991206E+01  0.36968071235E+02  0.00000000000E+00 0.  1.
         11    1    1    2    0    0  0.59211956748E+02 -0.19097762747E+02 -0.69190938948E+02  0.93049268650E+02  0.00000000000E+00 0. -1.
</event>
<event>
 6    1  0.6597032E-006  0.1728736E+03  0.7561462E-02  0.1174884E+00
          2   -1    0    0  501    0  0.00000000000E+00  0.00000000000E+00  0.10734102638E+03  0.10734102638E+03  0.00000000000E+00 0.  1.
         -2   -1    0    0    0  501 -0.00000000000E+00 -0.00000000000E+00 -0.35389784507E+03  0.35389784507E+03  0.00000000000E+00 0. -1.
          5    1    1    2  502    0 -0.74657242579E+02 -0.11463615268E+03 -0.29626588362E+02  0.14003698979E+03  0.41800000000E+01 0.  1.
         -5    1    1    2    0  502 -0.28108595256E+02 -0.10088763214E+02 -0.94208473394E+02  0.98917061873E+02  0.41800000000E+01 0.  1.
        -11    1    1    2    0    0  0.11285416509E+03  0.12528721848E+03 -0.96723910007E+02  0.19439255248E+03  0.00000000000E+00 0.  1.
         11    1    1    2    0    0 -0.10088327255E+02 -0.56230258011E+00 -0.25997846924E+02  0.27892267309E+02  0.00000000000E+00 0. -1.
</event>
<event>
 6    1  0.6597032E-006  0.1446272E+03  0.7561462E-02  0.1207235E+00
         -2   -1    0    0    0  501 -0.00000000000E+00  0.00000000000E+00  0.20952475139E+03  0.20952475139E+03  0.00000000000E+00 0.  1.
          2   -1    0    0  501    0  0.00000000000E+00 -0.00000000000E+00 -0.20053033901E+03  0.20053033901E+03  0.00000000000E+00 0. -1.
          5    1    1    2  502    0  0.21462146362E+02 -0.18012268872E+02  0.27848617098E+02  0.39725098246E+02  0.41800000000E+01 0. -1.
         -5    1    1    2    0  502 -0.89298392642E+02  0.10698196330E+03  0.12118232767E+03  0.18472133699E+03  0.41800000000E+01 0. -1.
        -11    1    1    2    0    0  0.74202031385E+02 -0.72030457031E+02 -0.11419465402E+03  0.15406085553E+03  0.00000000000E+00 0.  1.
         11    1    1    2    0    0 -0.63657851058E+01 -0.16939237397E+02 -0.25841878375E+02  0.31547799631E+02  0.00000000000E+00 0. -1.
</event>
<event>
 6    1  0.6597032E-006  0.1108375E+03  0.7561462E-02  0.1259027E+00
         -3   -1    0    0    0  501 -0.00000000000E+00  0.00000000000E+00  0.17987585992E+03  0.17987585992E+03  0.00000000000E+00 0.  1.
          3   -1    0    0  501    0  0.00000000000E+00 -0.00000000000E+00 -0.91710694097E+02  0.91710694097E+02  0.00000000000E+00 0. -1.
          5    1    1    2  502    0 -0.26854760382E+02  0.47034803229E+02  0.45264833748E+02  0.70709465025E+02  0.41800000000E+01 0.  1.
         -5    1    1    2    0  502 -0.18783128684E+02 -0.79939375959E+02  0.48925467067E+02  0.95678019835E+02  0.41800000000E+01 0.  1.
        -11    1    1    2    0    0  0.49852676087E+02 -0.20764583745E+01  0.27150278820E+02  0.56804389200E+02  0.00000000000E+00 0.  1.
         11    1    1    2    0    0 -0.42147870213E+01  0.34981031105E+02 -0.33175413809E+02  0.48394679958E+02  0.00000000000E+00 0. -1.
</event>
<event>
 6    1  0.6597032E-006  0.1095109E+03  0.7561462E-02  0.1261478E+00
          3   -1    0    0  501    0  0.00000000000E+00  0.00000000000E+00  0.29824054755E+02  0.29824054755E+02  0.00000000000E+00 0. -1.
         -3   -1    0    0    0  501 -0.00000000000E+00 -0.00000000000E+00 -0.46694326007E+03  0.46694326007E+03  0.00000000000E+00 0.  1.
          5    1    1    2  502    0  0.33113260369E+02  0.36566533456E+02 -0.90889645525E+02  0.10349878958E+03  0.41800000000E+01 0. -1.
         -5    1    1    2    0  502 -0.88028712546E+02 -0.12585355966E+02 -0.18372764881E+03  0.20415868033E+03  0.41800000000E+01 0. -1.
        -11    1    1    2    0    0  0.65870586894E+02 -0.21020192091E+02 -0.16369533571E+03  0.17769903102E+03  0.00000000000E+00 0.  1.
         11    1    1    2    0    0 -0.10955134716E+02 -0.29609853988E+01  0.11934247240E+01  0.11410813896E+02  0.00000000000E+00 0. -1.
</event>
<event>
 6    1  0.6597032E-006  0.1332557E+03  0.7561462E-02  0.1222703E+00
          4   -1    0    0  501    0  0.00000000000E+00  0.00000000000E+00  0.32718981754E+02  0.32718981754E+02  0.00000000000E+00 0. -1.
         -4   -1    0    0    0  501 -0.00000000000E+00 -0.00000000000E+00 -0.61232986566E+03  0.61232986566E+03  0.00000000000E+00 0.  1.
          5    1    1    2  502    0  0.27308170374E+02  0.11457731074E+03 -0.20214505842E+03  0.23399528489E+03  0.41800000000E+01 0. -1.
         -5    1    1    2    0  502 -0.32522889150E+02 -0.19601829425E+02 -0.46980322996E+02  0.60552400318E+02  0.41800000000E+01 0. -1.
        -11    1    1    2    0    0  0.30242366694E+02 -0.40949297256E+02 -0.21032140120E+03  0.21639440263E+03  0.00000000000E+00 0.  1.
         11    1    1    2    0    0 -0.25027647919E+02 -0.54026184062E+02 -0.12016410129E+03  0.13410675957E+03  0.00000000000E+00 0. -1.
</event>
<event>
 6    1  0.6597032E-006  0.8662432E+02  0.7561462E-02  0.1311239E+00
         -4   -1    0    0    0  501 -0.00000000000E+00  0.00000000000E+00  0.27783132625E+03  0.27783132625E+03  0.00000000000E+00 0.  1.
          4   -1    0    0  501    0  0.00000000000E+00 -0.00000000000E+00 -0.65527537298E+02  0.65527537298E+02  0.00000000000E+00 0. -1.
          5    1    1    2  502    0 -0.48462635173E+02  0.55815899589E+02  0.15957188761E+03  0.17591106096E+03  0.41800000000E+01 0.  1.
         -5    1    1    2    0  502  0.34940263512E+02 -0.26746213006E+02  0.29840519494E+02  0.53330206527E+02  0.41800000000E+01 0.  1.
        -11    1    1    2    0    0 -0.11850201067E+02 -0.27081727520E+02  0.61292394555E+02  0.68048547825E+02  0.00000000000E+00 0.  1.
         11    1    1    2    0    0  0.25372572727E+02 -0.19879590627E+01 -0.38401012707E+02  0.46069048231E+02  0.00000000000E+00 0. -1.
</event>
<event>
 6    1  0.6597032E-006  0.9904461E+02  0.7561462E-02  0.1282318E+00
         -2   -1    0    0    0  501 -0.00000000000E+00  0.00000000000E+00  0.25661662127E+03  0.25661662127E+03  0.00000000000E+00 0. -1.
          2   -1    0    0  501    0  0.00000000000E+00 -0.00000000000E+00 -0.59043896714E+02  0.59043896714E+02  0.00000000000E+00 0.  1.
          5    1    1    2  502    0 -0.51148426260E+02  0.16384232996E+02  0.10281142505E+03  0.11607009142E+03  0.41800000000E+01 0. -1.
         -5    1    1    2    0  502  0.40058076249E+02 -0.59357634883E+02  0.56660429880E+02  0.91410365965E+02  0.41800000000E+01 0. -1.
        -11    1    1    2    0    0  0.33385697808E+02  0.36064476065E+02  0.59043652516E+02  0.76820597202E+02  0.00000000000E+00 0. -1.
         11    1    1    2    0    0 -0.22295347798E+02  0.69089258224E+01 -0.20942782894E+02  0.31359463401E+02  0.00000000000E+00 0.  1.
</event>
<event>
 6    1  0.6597032E-006  0.9568661E+02  0.7561462E-02  0.1289637E+00
          1   -1    0    0  501    0  0.00000000000E+00  0.00000000000E+00  0.16623338009E+03  0.16623338009E+03  0.00000000000E+00 0. -1.
         -1   -1    0    0    0  501 -0.00000000000E+00 -0.00000000000E+00 -0.12041149268E+03  0.12041149268E+03  0.00000000000E+00 0.  1.
          5    1    1    2  502    0  0.48391440827E+02  0.42063347513E+02 -0.64058326651E+02  0.90730360754E+02  0.41800000000E+01 0.  1.
         -5    1    1    2    0  502  0.20035467442E+02  0.14943594449E+02  0.57634671802E+02  0.62959977481E+02  0.41800000000E+01 0.  1.
        -11    1    1    2    0    0 -0.18880868957E+02 -0.47786344798E+02  0.63129134437E+02  0.81396004672E+02  0.00000000000E+00 0. -1.
         11    1    1    2    0    0 -0.49546039311E+02 -0.92205971641E+01 -0.10883592181E+02  0.51558529869E+02  0.00000000000E+00 0.  1.
</event>
<event>
 6    1  0.6597032E-006  0.1164288E+03  0.7561462E-02  0.1249107E+00
          2   -1    0    0  501    0  0.00000000000E+00  0.00000000000E+00  0.10920753008E+04  0.10920753008E+04  0.00000000000E+00 0. -1.
         -2   -1    0    0    0  501 -0.00000000000E+00 -0.00000000000E+00 -0.13290914019E+02  0.13290914019E+02  0.00000000000E+00 0.  1.
          5    1    1    2  502    0  0.81776823387E+02 -0.35877549551E+02  0.29130662851E+03  0.30471572263E+03  0.41800000000E+01 0. -1.
         -5    1    1    2    0  502 -0.37496558418E+02  0.10021611469E+02  0.26056430889E+03  0.26347230605E+03  0.41800000000E+01 0. -1.
        -11    1    1    2    0    0 -0.54989391432E+02  0.52301643947E+02  0.37282645096E+03  0.38047188814E+03  0.00000000000E+00 0.  1.
         11    1    1    2    0    0  0.10709126462E+02 -0.26445705866E+02  0.15408699843E+03  0.15670629800E+03  0.00000000000E+00 0. -1.
</event>
<event>
 6    1  0.6597032E-006  0.1424840E+03  0.7561462E-02  0.1210025E+00
          2   -1    0    0  501    0  0.00000000000E+00  0.00000000000E+00  0.72817150736E+02  0.72817150736E+02  0.00000000000E+00 0. -1.
         -2   -1    0    0    0  501 -0.00000000000E+00 -0.00000000000E+00 -0.37901620428E+03  0.37901620428E+03  0.00000000000E+00 0.  1.
          5    1    1    2  502    0 -0.50664553765E+02 -0.31493007656E+02 -0.15933069961E+03  0.17018357963E+03  0.41800000000E+01 0.  1.
         -5    1    1    2    0  502  0.60257603187E+02 -0.68077792809E+02 -0.10565291445E+03  0.13944739276E+03  0.41800000000E+01 0.  1.
        -11    1    1    2    0    0  0.30818532761E+02  0.48806020190E+01 -0.20070835464E+02  0.37100413392E+02  0.00000000000E+00 0.  1.
         11    1    1    2    0    0 -0.40411582184E+02  0.94690198446E+02 -0.21144604020E+02  0.10510196923E+03  0.00000000000E+00 0. -1.
</event>
<event>
 6    1  0.6597032E-006  0.9848032E+02  0.7561462E-02  0.1283524E+00
         -1   -1    0    0    0  501 -0.00000000000E+00  0.00000000000E+00  0.17149982664E+03  0.17149982664E+03  0.00000000000E+00 0.  1.
          1   -1    0    0  501    0  0.00000000000E+00 -0.00000000000E+00 -0.82002642041E+02  0.82002642041E+02  0.00000000000E+00 0. -1.
          5    1    1    2  502    0 -0.31588381401E+02 -0.56823375404E+02  0.21194955719E+02  0.68508542386E+02  0.41800000000E+01 0.  1.
         -5    1    1    2    0  502  0.52104308088E+02  0.27249662304E+02  0.64260685758E+02  0.87202701513E+02  0.41800000000E+01 0.  1.
        -11    1    1    2    0    0 -0.17003702487E+02  0.49651533745E+02  0.33283470178E+02  0.62146521130E+02  0.00000000000E+00 0.  1.
         11    1    1    2    0    0 -0.35122241993E+01 -0.20077820645E+02 -0.29241927055E+02  0.35644703654E+02  0.00000000000E+00 0. -1.
</event>
<event>
 6    1  0.6597032E-006  0.1677324E+03  0.7561462E-02  0.1180233E+00
         -1   -1    0    0    0  501 -0.00000000000E+00  0.00000000000E+00  0.14601608580E+03  0.14601608580E+03  0.00000000000E+00 0.  1.
          1   -1    0    0  501    0  0.00000000000E+00 -0.00000000000E+00 -0.26643454672E+03  0.26643454672E+03  0.00000000000E+00 0. -1.
          5    1    1    2  502    0  0.11448254343E+03 -0.74789789046E+02  0.48162390274E+02  0.14504086849E+03  0.41800000000E+01 0. -1.
         -5    1    1    2    0  502 -0.21551758438E+02 -0.32073355895E+02 -0.23660144413E+02  0.45502233833E+02  0.41800000000E+01 0. -1.
        -11    1    1    2    0    0 -0.51824337054E+02  0.76383080984E+01 -0.82375143647E+02  0.97620540628E+02  0.00000000000E+00 0. -1.
         11    1    1    2    0    0 -0.41106447939E+02  0.99224836843E+02 -0.62545563136E+02  0.12428698957E+03  0.00000000000E+00 0.  1.
</event>
<event>
 6    1  0.6597032E-006  0.1310482E+03  0.7561462E-02  0.1225909E+00
          2   -1    0    0  501    0  0.00000000000E+00  0.00000000000E+00  0.73991746225E+03  0.73991746225E+03  0.00000000000E+00 0. -1.
         -2   -1    0    0    0  501 -0.00000000000E+00 -0.00000000000E+00 -0.84434209180E+02  0.84434209180E+02  0.00000000000E+00 0.  1.
          5    1    1    2  502    0  0.13282643123E+02 -0.70294014747E+02  0.50089772818E+03  0.50599771107E+03  0.41800000000E+01 0. -1.
         -5    1    1    2    0  502 -0.55897489276E+02  0.69875044538E+02 -0.40721234900E+02  0.98400927477E+02  0.41800000000E+01 0.  1.
        -11    1    1    2    0    0  0.20698551428E+02 -0.45493901909E+02  0.88197330715E+02  0.10137501806E+03  0.00000000000E+00 0.  1.
         11    1    1    2    0    0  0.21916294725E+02  0.45912872118E+02  0.10710942908E+03  0.11857801482E+03  0.00000000000E+00 0. -1.
</event>
<event>
 6    1  0.6597032E-006  0.1166545E+03  0.7561462E-02  0.1248720E+00
          1   -1    0    0  501    0  0.00000000000E+00  0.00000000000E+00  0.14146243285E+04  0.14146243285E+04  0.00000000000E+00 0. -1.
         -1   -1    0    0    0  501 -0.00000000000E+00 -0.00000000000E+00 -0.10384704734E+02  0.10384704734E+02  0.00000000000E+00 0.  1.
          5    1    1    2  502    0 -0.88925873825E+02  0.21234550691E+02  0.45037376360E+03  0.45957884690E+03  0.41800000000E+01 0. -1.
         -5    1    1    2    0  502  0.36628376423E+02 -0.31815829884E+01  0.40203711818E+03  0.40373639571E+03  0.41800000000E+01 0. -1.
        -11    1    1    2    0    0  0.10129295781E+02 -0.50544980368E+02  0.26536039857E+03  0.27032117713E+03  0.00000000000E+00 0.  1.
         11    1    1    2    0    0  0.42168201622E+02  0.32492012666E+02  0.28646834338E+03  0.29137261346E+03  0.00000000000E+00 0. -1.
</event>
<event>
 6    1  0.6597032E-006  0.1677231E+03  0.7561462E-02  0.1180243E+00
          1   -1    0    0  501    0  0.00000000000E+00  0.00000000000E+00  0.32900215282E+02  0.32900215282E+02  0.00000000000E+00 0. -1.
         -1   -1    0    0    0  501 -0.00000000000E+00 -0.00000000000E+00 -0.95912748771E+03  0.95912748771E+03  0.00000000000E+00 0.  1.
          5    1    1    2  502    0  0.67581355410E+02  0.10394886565E+02 -0.20654721979E+03  0.21761093647E+03  0.41800000000E+01 0. -1.
         -5    1    1    2    0  502 -0.10973102328E+02  0.11848410970E+03 -0.29473192332E+03  0.31787304424E+03  0.41800000000E+01 0. -1.
        -11    1    1    2    0    0 -0.48640788484E+02 -0.54402124305E+02 -0.10450452793E+03  0.12746259762E+03  0.00000000000E+00 0.  1.
         11    1    1    2    0    0 -0.79674645983E+01 -0.74476871959E+02 -0.32044360138E+03  0.32908112467E+03  0.00000000000E+00 0. -1.
</event>
<event>
 6    1  0.6597032E-006  0.6099285E+02  0.7561462E-02  0.1393712E+00
         -1   -1    0    0    0  501 -0.00000000000E+00  0.00000000000E+00  0.11319839485E+03  0.11319839485E+03  0.00000000000E+00 0.  1.
          1   -1    0    0  501    0  0.00000000000E+00 -0.00000000000E+00 -0.21265353529E+03  0.21265353529E+03  0.00000000000E+00 0. -1.
          5    1    1    2  502    0 -0.15076072175E+02 -0.50539003006E+01 -0.84817286206E+02  0.86396031737E+02  0.41800000000E+01 0. -1.
         -5    1    1    2    0  502  0.28749155993E+01 -0.30465457045E+02  0.89508017600E+02  0.94686677138E+02  0.41800000000E+01 0.  1.
        -11    1    1    2    0    0 -0.24200371101E+01 -0.18519993116E+02 -0.82759416231E+02  0.84840837451E+02  0.00000000000E+00 0.  1.
         11    1    1    2    0    0  0.14621193686E+02  0.54039350462E+02 -0.21386455598E+02  0.59928383811E+02  0.00000000000E+00 0. -1.
</event>
<event>
 6    1  0.6597032E-006  0.8897137E+02  0.7561462E-02  0.1305362E+00
          2   -1    0    0  501    0  0.00000000000E+00  0.00000000000E+00  0.13252565995E+03  0.13252565995E+03  0.00000000000E+00 0.  1.
         -2   -1    0    0    0  501 -0.00000000000E+00 -0.00000000000E+00 -0.98401431163E+02  0.98401431163E+02  0.00000000000E+00 0. -1.
          5    1    1    2  502    0 -0.32524457670E+02  0.76584976738E+01  0.45542032475E+02  0.56639580289E+02  0.41800000000E+01 0. -1.
         -5    1    1    2    0  502  0.37151090481E+02 -0.32065901880E+02 -0.51162319109E+02  0.71017468864E+02  0.41800000000E+01 0. -1.
        -11    1    1    2    0    0  0.33521652193E+02 -0.17938488704E+02  0.19944984363E+02  0.42933587598E+02  0.00000000000E+00 0. -1.
         11    1    1    2    0    0 -0.38148285004E+02  0.42345892910E+02  0.19799531058E+02  0.60336454364E+02  0.00000000000E+00 0.  1.
</event>
<event>
 6    1  0.6597032E-006  0.1688006E+03  0.7561462E-02  0.1179104E+00
         -2   -1    0    0    0  501 -0.00000000000E+00  0.00000000000E+00  0.11212176658E+03  0.11212176658E+03  0.00000000000E+00 0.  1.
          2   -1    0    0  501    0  0.00000000000E+00 -0.00000000000E+00 -0.26008351811E+03  0.26008351811E+03  0.00000000000E+00 0. -1.
          5    1    1    2  502    0  0.23267824640E+02 -0.13819908380E+03 -0.53775189428E+02  0.15016531498E+03  0.41800000000E+01 0. -1.
         -5    1    1    2    0  502  0.32766372694E+02  0.20731132507E+02 -0.34735038823E+01  0.39152939402E+02  0.41800000000E+01 0. -1.
        -11    1    1    2    0    0 -0.80521047253E+02  0.99632211848E+02 -0.78381193432E+02  0.15017932006E+03  0.00000000000E+00 0.  1.
         11    1    1    2    0    0  0.24486849918E+02  0.17835739443E+02 -0.12331864786E+02  0.32707710245E+02  0.00000000000E+00 0. -1.
</event>
<event>
 6    1  0.6597032E-006  0.1084382E+03  0.7561462E-02  0.1263490E+00
          1   -1    0    0  501    0  0.00000000000E+00  0.00000000000E+00  0.26812345263E+03  0.26812345263E+03  0.00000000000E+00 0. -1.
         -1   -1    0    0    0  501 -0.00000000000E+00 -0.00000000000E+00 -0.51373609327E+02  0.51373609327E+02  0.00000000000E+00 0.  1.
          5    1    1    2  502    0  0.64382241623E+02  0.70692698745E+01  0.19245783479E+02  0.67697268739E+02  0.41800000000E+01 0.  1.
         -5    1    1    2    0  502 -0.51408575742E+02  0.25336634930E+02  0.66676566212E+02  0.88022858459E+02  0.41800000000E+01 0.  1.
        -11    1    1    2    0    0  0.48522164131E+00  0.30335030821E+02  0.65606787622E+02  0.72282087110E+02  0.00000000000E+00 0. -1.
         11    1    1    2    0    0 -0.13458887522E+02 -0.62740935626E+02  0.65220705992E+02  0.91494847650E+02  0.00000000000E+00 0.  1.
</event>
<event>
 6    1  0.6597032E-006  0.1151506E+03  0.7561462E-02  0.1251318E+00
          1   -1    0    0  501    0  0.00000000000E+00  0.00000000000E+00  0.13093170306E+03  0.13093170306E+03  0.00000000000E+00 0. -1.
         -1   -1    0    0    0  501 -0.00000000000E+00 -0.00000000000E+00 -0.12535310957E+03  0.12535310957E+03  0.00000000000E+00 0.  1.
          5    1    1    2  502    0  0.47631952850E+02 -0.82381485492E+02  0.10986693965E+02  0.95883741732E+02  0.41800000000E+01 0.  1.
         -5    1    1    2    0  502  0.59000289644E+01  0.40609102281E+02 -0.22314883403E+02  0.46897078279E+02  0.41800000000E+01 0.  1.
        -11    1    1    2    0    0 -0.54984560223E+02  0.30686380956E+01 -0.21350478900E+02  0.59064044493E+02  0.00000000000E+00 0.  1.
         11    1    1    2    0    0  0.14525784081E+01  0.38703745115E+02  0.38257261829E+02  0.54439948132E+02  0.00000000000E+00 0. -1.
</event>
<event>
 6    1  0.6597032E-006  0.1884665E+03  0.7561462E-02  0.1159852E+00
         -1   -1    0    0    0  501 -0.00000000000E+00  0.00000000000E+00  0.47556733544E+02  0.47556733544E+02  0.00000000000E+00 0.  1.
          1   -1    0    0  501    0  0.00000000000E+00 -0.00000000000E+00 -0.85693639256E+03  0.85693639256E+03  0.00000000000E+00 0. -1.
          5    1    1    2  502    0 -0.14755973852E+03 -0.31132636941E+02 -0.30805682674E+03  0.34301544924E+03  0.41800000000E+01 0.  1.
         -5    1    1    2    0  502 -0.20399759753E+02  0.52012641930E+02 -0.69840325488E+02  0.89535515762E+02  0.41800000000E+01 0.  1.
        -11    1    1    2    0    0  0.46400746972E+02  0.15652861583E+01 -0.39586179699E+02  0.61012663140E+02  0.00000000000E+00 0.  1.
         11    1    1    2    0    0  0.12155875130E+03 -0.22445291147E+02 -0.39189632708E+03  0.41092949796E+03  0.00000000000E+00 0. -1.
</event>
<event>
 6    1  0.6597032E-006  0.8467104E+02  0.7561462E-02  0.1316295E+00
         -2   -1    0    0    0  501 -0.00000000000E+00  0.00000000000E+00  0.14948885142E+03  0.14948885142E+03  0.00000000000E+00 0.  1.
          2   -1    0    0  501    0  0.00000000000E+00 -0.00000000000E+00 -0.87550632053E+02  0.87550632053E+02  0.00000000000E+00 0. -1.
          5    1    1    2  502    0 -0.42262707660E+02  0.34552583727E+02  0.53577130393E+02  0.76602864190E+02  0.41800000000E+01 0. -1.
         -5    1    1    2    0  502  0.11574457860E+02 -0.56989972200E+02 -0.14064301106E+02  0.59975844902E+02  0.41800000000E+01 0. -1.
        -11    1    1    2    0    0  0.30422904434E+02  0.33483220911E+02  0.51978972048E+02  0.68909308021E+02  0.00000000000E+00 0.  1.
         11    1    1    2    0    0  0.26534536615E+00 -0.11045832438E+02 -0.29553581967E+02  0.31551466361E+02  0.00000000000E+00 0. -1.
</event>
<event>
 6    1  0.6597032E-006  0.1451409E+03  0.7561462E-02  0.1206574E+00
         -2   -1    0    0    0  501 -0.00000000000E+00  0.00000000000E+00  0.52722318924E+02  0.52722318924E+02  0.00000000000E+00 0.  1.
          2   -1    0    0  501    0  0.00000000000E+00 -0.00000000000E+00 -0.40732232008E+03  0.40732232008E+03  0.00000000000E+00 0. -1.
          5    1    1    2  502    0  0.12101225657E+03 -0.40684346661E+02 -0.14526457328E+03  0.19343849398E+03  0.41800000000E+01 0. -1.
         -5    1    1    2    0  502 -0.26174071381E+02  0.13609810648E+02 -0.53793075449E+02  0.61493709636E+02  0.41800000000E+01 0. -1.
        -11    1    1    2    0    0 -0.80642771747E+01  0.43665266066E+02 -0.63969812539E+02  0.77870565320E+02  0.00000000000E+00 0. -1.
         11    1    1    2    0    0 -0.86773908018E+02 -0.16590730053E+02 -0.91572539895E+02  0.12724187007E+03  0.00000000000E+00 0.  1.
</event>
<event>
 6    1  0.6597032E-006  0.9159520E+02  0.7561462E-02  0.1299034E+00
          2   -1    0    0  501    0  0.00000000000E+00  0.00000000000E+00  0.59225780326E+03  0.59225780326E+03  0.00000000000E+00 0. -1.
         -2   -1    0    0    0  501 -0.00000000000E+00 -0.00000000000E+00 -0.23790940192E+02  0.23790940192E+02  0.00000000000E+00 0.  1.
          5    1    1    2  502    0 -0.48906399859E+02 -0.57370764287E+01  0.52609533392E+02  0.72180228573E+02  0.41800000000E+01 0.  1.
         -5    1    1    2    0  502  0.30027056830E+02  0.50080605496E+02  0.28863917795E+03  0.29451610930E+03  0.41800000000E+01 0.  1.
        -11    1    1    2    0    0  0.22216107625E+02  0.73714002638E+01  0.90203553041E+01  0.25085051119E+02  0.00000000000E+00 0.  1.
         11    1    1    2    0    0 -0.33367645962E+01 -0.51714929331E+02  0.21819779642E+03  0.22426735446E+03  0.00000000000E+00 0. -1.
</event>
<event>
 6    1  0.6597032E-006  0.1419555E+03  0.7561462E-02  0.1210722E+00
          2   -1    0    0  501    0  0.00000000000E+00  0.00000000000E+00  0.33878139063E+03  0.33878139063E+03  0.00000000000E+00 0. -1.
         -2   -1    0    0    0  501 -0.00000000000E+00 -0.00000000000E+00 -0.85162065319E+02  0.85162065319E+02  0.00000000000E+00 0.  1.
          5    1    1    2  502    0 -0.14470964632E+02 -0.19548041302E+02 -0.13401881312E+02  0.28082335352E+02  0.41800000000E+01 0.  1.
         -5    1    1    2    0  502  0.13546572755E+03 -0.13385077212E+01  0.93333098543E+02  0.16456395300E+03  0.41800000000E+01 0.  1.
        -11    1    1    2    0    0 -0.92535709961E+02  0.22360354525E+02  0.56519079740E+02  0.11071246293E+03  0.00000000000E+00 0.  1.
         11    1    1    2    0    0 -0.28459052959E+02 -0.14738055024E+01  0.11716902834E+03  0.12058470467E+03  0.00000000000E+00 0. -1.
</event>
<event>
 6    1  0.6597032E-006  0.1110593E+03  0.7561462E-02  0.1258621E+00
          1   -1    0    0  501    0  0.00000000000E+00  0.00000000000E+00  0.46052508879E+03  0.46052508879E+03  0.00000000000E+00 0. -1.
         -1   -1    0    0    0  501 -0.00000000000E+00 -0.00000000000E+00 -0.47807555165E+02  0.47807555165E+02  0.00000000000E+00 0.  1.
          5    1    1    2  502    0  0.87893792410E+01  0.52470607801E+02  0.16096751525E+03  0.16958311012E+03  0.41800000000E+01 0.  1.
         -5    1    1    2    0  502 -0.17744590781E+02  0.11775729953E+02 -0.20161176454E+02  0.29622352268E+02  0.41800000000E+01 0.  1.
        -11    1    1    2    0    0 -0.41237382867E+02 -0.83630445998E+02  0.17278909473E+03  0.19634318043E+03  0.00000000000E+00 0. -1.
         11    1    1    2    0    0  0.50192594407E+02  0.19384108244E+02  0.99122100090E+02  0.11278400114E+03  0.00000000000E+00 0.  1.
</event>
<event>
 6    1  0.6597032E-006  0.1231151E+03  0.7561462E-02  0.1238045E+00
          3   -1    0    0  501    0  0.00000000000E+00  0.00000000000E+00  0.72050894824E+02  0.72050894824E+02  0.00000000000E+00 0. -1.
         -3   -1    0    0    0  501 -0.00000000000E+00 -0.00000000000E+00 -0.21738779030E+03  0.21738779030E+03  0.00000000000E+00 0.  1.
          5    1    1    2  502    0 -0.81018474370E+02  0.46676261823E+02 -0.74925811308E+02  0.11989168531E+03  0.41800000000E+01 0.  1.
         -5    1    1    2    0  502  0.22131412835E+02 -0.38482387045E+02 -0.27752763183E+02  0.52520299038E+02  0.41800000000E+01 0.  1.
        -11    1    1    2    0    0 -0.23236356452E+02 -0.11353217881E+02 -0.38723808653E+01  0.26149935965E+02  0.00000000000E+00 0.  1.
         11    1    1    2    0    0  0.82123417987E+02  0.31593431029E+01 -0.38785940116E+02  0.90876764805E+02  0.00000000000E+00 0. -1.
</event>
<event>
 6    1  0.6597032E-006  0.9613658E+02  0.7561462E-02  0.1288637E+00
         -2   -1    0    0    0  501 -0.00000000000E+00  0.00000000000E+00  0.30857443048E+02  0.30857443048E+02  0.00000000000E+00 0.  1.
          2   -1    0    0  501    0  0.00000000000E+00 -0.00000000000E+00 -0.53195225959E+03  0.53195225959E+03  0.00000000000E+00 0. -1.
          5    1    1    2  502    0  0.53247498437E+02  0.18415428618E+02 -0.12604962894E+03  0.13813184085E+03  0.41800000000E+01 0. -1.
         -5    1    1    2    0  502 -0.27180640923E+02 -0.60572876350E+02 -0.48819617059E+02  0.82514774435E+02  0.41800000000E+01 0. -1.
        -11    1    1    2    0    0 -0.21197244637E+02  0.53155003950E+02 -0.32508310166E+03  0.33008150602E+03  0.00000000000E+00 0. -1.
         11    1    1    2    0    0 -0.48696128777E+01 -0.10997556218E+02 -0.11424688724E+01  0.12081581332E+02  0.00000000000E+00 0.  1.
</event>
<event>
 6    1  0.6597032E-006  0.8599761E+02  0.7561462E-02  0.1312844E+00
         -2   -1    0    0    0  501 -0.00000000000E+00  0.00000000000E+00  0.12671458983E+03  0.12671458983E+03  0.00000000000E+00 0.  1.
          2   -1    0    0  501    0  0.00000000000E+00 -0.00000000000E+00 -0.12872314085E+03  0.12872314085E+03  0.00000000000E+00 0. -1.
          5    1    1    2  502    0  0.28849542649E+02 -0.54841714364E+02 -0.56753033873E+01  0.62366587320E+02  0.41800000000E+01 0. -1.
         -5    1    1    2    0  502 -0.26670422640E+02  0.32384489509E+02  0.66033455176E+02  0.78345109656E+02  0.41800000000E+01 0. -1.
        -11    1    1    2    0    0  0.30822647289E+02  0.92572062823E+01  0.10334384146E+02  0.33801345383E+02  0.00000000000E+00 0.  1.
         11    1    1    2    0    0 -0.33001767298E+02  0.13200018572E+02 -0.72701086956E+02  0.80924688320E+02  0.00000000000E+00 0. -1.
</event>
<event>
 6    1  0.6597032E-006  0.5530937E+03  0.7561462E-02  0.1000780E+00
          1   -1    0    0  501    0  0.00000000000E+00  0.00000000000E+00  0.12648364449E+04  0.12648364449E+04  0.00000000000E+00 0. -1.
         -1   -1    0    0    0  501 -0.00000000000E+00 -0.00000000000E+00 -0.26494622819E+03  0.26494622819E+03  0.00000000000E+00 0.  1.
          5    1    1    2  502    0 -0.10747647571E+03 -0.33642187565E+03  0.13788803017E+03  0.37915887503E+03  0.41800000000E+01 0. -1.
         -5    1    1    2    0  502  0.30870520803E+03  0.41462003667E+03  0.51000159847E+03  0.72617338365E+03  0.41800000000E+01 0.  1.
        -11    1    1    2    0    0 -0.28996023697E+02 -0.55116592630E+02  0.11190378211E+03  0.12806664134E+03  0.00000000000E+00 0.  1.
         11    1    1    2    0    0 -0.17223270861E+03 -0.23081568385E+02  0.24009680594E+03  0.29638377307E+03  0.00000000000E+00 0. -1.
</event>
<event>
 6    1  0.6597032E-006  0.1402272E+03  0.7561462E-02  0.1213024E+00
          1   -1    0    0  501    0  0.00000000000E+00  0.00000000000E+00  0.76775627948E+03  0.76775627948E+03  0.00000000000E+00 0. -1.
         -1   -1    0    0    0  501 -0.00000000000E+00 -0.00000000000E+00 -0.30971564661E+02  0.30971564661E+02  0.00000000000E+00 0.  1.
          5    1    1    2  502    0 -0.64650774442E+02  0.30830365303E+02  0.21905298202E+03  0.23050361254E+03  0.41800000000E+01 0.  1.
         -5    1    1    2    0  502 -0.33241441688E+02 -0.82872837722E+02  0.14955871575E+03  0.17423599667E+03  0.41800000000E+01 0.  1.
        -11    1    1    2    0    0  0.26319839461E+02  0.38247327285E+02  0.52835678498E+02  0.70336341361E+02  0.00000000000E+00 0. -1.
         11    1    1    2    0    0  0.71572376668E+02  0.13795145134E+02  0.31533733855E+03  0.32365189357E+03  0.00000000000E+00 0.  1.
</event>
<event>
 6    1  0.6597032E-006  0.1323548E+03  0.7561462E-02  0.1224003E+00
         -2   -1    0    0    0  501 -0.00000000000E+00  0.00000000000E+00  0.21524865276E+02  0.21524865276E+02  0.00000000000E+00 0.  1.
          2   -1    0    0  501    0  0.00000000000E+00 -0.00000000000E+00 -0.86482542447E+03  0.86482542447E+03  0.00000000000E+00 0. -1.
          5    1    1    2  502    0  0.75897883804E+02  0.80319302022E+02 -0.28311888804E+03  0.30394975934E+03  0.41800000000E+01 0. -1.
         -5    1    1    2    0  502 -0.27941255338E+02 -0.21621698124E+02 -0.99771662285E+02  0.10592482511E+03  0.41800000000E+01 0. -1.
        -11    1    1    2    0    0 -0.58160834521E+02  0.81505565630E+00 -0.28753038745E+03  0.29335485456E+03  0.00000000000E+00 0. -1.
         11    1    1    2    0    0  0.10204206055E+02 -0.59512659554E+02 -0.17287962143E+03  0.18312085073E+03  0.00000000000E+00 0.  1.
</event>
<event>
 6    1  0.6597032E-006  0.1223972E+03  0.7561462E-02  0.1239194E+00
          2   -1    0    0  501    0  0.00000000000E+00  0.00000000000E+00  0.88132056014E+03  0.88132056014E+03  0.00000000000E+00 0. -1.
         -2   -1    0    0    0  501 -0.00000000000E+00 -0.00000000000E+00 -0.20658266105E+02  0.20658266105E+02  0.00000000000E+00 0.  1.
          5    1    1    2  502    0  0.27599951335E+02 -0.36468419117E+02  0.78131959443E+02  0.90629897898E+02  0.41800000000E+01 0. -1.
         -5    1    1    2    0  502 -0.53549907569E+01  0.92801600375E+02  0.22775132941E+03  0.24602632665E+03  0.41800000000E+01 0.  1.
        -11    1    1    2    0    0 -0.25052089045E+02  0.18368357746E+02  0.10987002102E+03  0.11417716607E+03  0.00000000000E+00 0.  1.
         11    1    1    2    0    0  0.28071284669E+01 -0.74701539004E+02  0.44490898417E+03  0.45114543563E+03  0.00000000000E+00 0. -1.
</event>
<event>
 6    1  0.6597032E-006  0.2267284E+03  0.7561462E-02  0.1128964E+00
         -2   -1    0    0    0  501 -0.00000000000E+00  0.00000000000E+00  0.99022360315E+02  0.99022360315E+02  0.00000000000E+00 0.  1.
          2   -1    0    0  501    0  0.00000000000E+00 -0.00000000000E+00 -0.95234047676E+03  0.95234047676E+03  0.00000000000E+00 0. -1.
          5    1    1    2  502    0  0.11980700538E+02 -0.21420606326E+03 -0.60585921326E+02  0.22297062808E+03  0.41800000000E+01 0.  1.
         -5    1    1    2    0  502  0.71951579441E+01  0.27590139149E+01 -0.43769793802E+02  0.44639105111E+02  0.41800000000E+01 0.  1.
        -11    1    1    2    0    0 -0.20161473290E+01  0.21287959896E+03 -0.70811625100E+03  0.73942573219E+03  0.00000000000E+00 0. -1.
         11    1    1    2    0    0 -0.17159711153E+02 -0.14325496184E+01 -0.40846150321E+02  0.44327371694E+02  0.00000000000E+00 0.  1.
</event>
<event>
 6    1  0.6597032E-006  0.1726272E+03  0.7561462E-02  0.1175136E+00
          1   -1    0    0  501    0  0.00000000000E+00  0.00000000000E+00  0.10547408355E+03  0.10547408355E+03  0.00000000000E+00 0. -1.
         -1   -1    0    0    0  501 -0.00000000000E+00 -0.00000000000E+00 -0.41570556131E+03  0.41570556131E+03  0.00000000000E+00 0.  1.
          5    1    1    2  502    0  0.19346892148E+02  0.32660521111E+02 -0.76263696843E+02  0.85291475138E+02  0.41800000000E+01 0. -1.
         -5    1    1    2    0  502  0.85091550861E+02 -0.11704012464E+03 -0.23213691229E+03  0.27357628050E+03  0.41800000000E+01 0. -1.
        -11    1    1    2    0    0 -0.13511273412E+02  0.68719276386E+02 -0.55061183477E+00  0.70037108947E+02  0.00000000000E+00 0.  1.
         11    1    1    2    0    0 -0.90927169596E+02  0.15660327141E+02 -0.12802567945E+01  0.92274780273E+02  0.00000000000E+00 0. -1.
</event>
<event>
 6    1  0.6597032E-006  0.1162255E+03  0.7561462E-02  0.1249457E+00
          2   -1    0    0  501    0  0.00000000000E+00  0.00000000000E+00  0.51956075287E+03  0.51956075287E+03  0.00000000000E+00 0. -1.
         -2   -1    0    0    0  501 -0.00000000000E+00 -0.00000000000E+00 -0.32306427239E+02  0.32306427239E+02  0.00000000000E+00 0.  1.
          5    1    1    2  502    0  0.92430864441E+01  0.46919396415E+02  0.66958416954E+02  0.82387902073E+02  0.41800000000E+01 0.  1.
         -5    1    1    2    0  502 -0.48145303248E+02 -0.68690793344E+02  0.86929521034E+02  0.12087435353E+03  0.41800000000E+01 0.  1.
        -11    1    1    2    0    0  0.47485975733E+02 -0.24476165505E+02  0.14741626383E+03  0.15679781698E+03  0.00000000000E+00 0.  1.
         11    1    1    2    0    0 -0.85837589298E+01  0.46247562435E+02  0.18595012381E+03  0.19180710752E+03  0.00000000000E+00 0. -1.
</event>
<event>
 6    1  0.6597032E-006  0.9729260E+02  0.7561462E-02  0.1286094E+00
          1   -1    0    0  501    0  0.00000000000E+00  0.00000000000E+00  0.11280117390E+04  0.11280117390E+04  0.00000000000E+00 0. -1.
         -1   -1    0    0    0  501 -0.00000000000E+00 -0.00000000000E+00 -0.16273237943E+02  0.16273237943E+02  0.00000000000E+00 0.  1.
          5    1    1    2  502    0  0.48376944324E+02  0.83507074436E+00  0.44297248045E+03  0.44562665644E+03  0.41800000000E+01 0. -1.
         -5    1    1    2    0  502  0.22012531025E+02  0.21695549083E+02  0.14562260657E+02  0.34420636363E+02  0.41800000000E+01 0. -1.
        -11    1    1    2    0    0 -0.10252933830E+02  0.32031499286E+02  0.17486799985E+03  0.17807289791E+03  0.00000000000E+00 0. -1.
         11    1    1    2    0    0 -0.60136541519E+02 -0.54562119114E+02  0.47933576005E+03  0.48616478619E+03  0.00000000000E+00 0.  1.
</event>
<event>
 6    1  0.6597032E-006  0.1079989E+03  0.7561462E-02  0.1264321E+00
          1   -1    0    0  501    0  0.00000000000E+00  0.00000000000E+00  0.61435201571E+02  0.61435201571E+02  0.00000000000E+00 0. -1.
         -1   -1    0    0    0  501 -0.00000000000E+00 -0.00000000000E+00 -0.28852931080E+03  0.28852931080E+03  0.00000000000E+00 0.  1.
          5    1    1    2  502    0  0.31959950825E+02  0.15733859425E+02 -0.69784173184E+02  0.78462067371E+02  0.41800000000E+01 0.  1.
         -5    1    1    2    0  502 -0.10291586073E+03 -0.11014808478E+02 -0.98372469671E+02  0.14285522596E+03  0.41800000000E+01 0.  1.
        -11    1    1    2    0    0  0.58769146251E+01 -0.96266730455E+01  0.21971383587E+02  0.24697219604E+02  0.00000000000E+00 0. -1.
         11    1    1    2    0    0  0.65078995277E+02  0.49076220986E+01 -0.80908849962E+02  0.10394999944E+03  0.00000000000E+00 0.  1.
</event>
<event>
 6    1  0.6597032E-006  0.1156023E+03  0.7561462E-02  0.1250533E+00
         -2   -1    0    0    0  501 -0.00000000000E+00  0.00000000000E+00  0.19975253926E+02  0.19975253926E+02  0.00000000000E+00 0. -1.
          2   -1    0    0  501    0  0.00000000000E+00 -0.00000000000E+00 -0.73899224359E+03  0.73899224359E+03  0.00000000000E+00 0.  1.
          5    1    1    2  502    0 -0.81796811658E+02  0.11740030795E+02 -0.17588832436E+03  0.19437778105E+03  0.41800000000E+01 0. -1.
         -5    1    1    2    0  502  0.43504822900E+02  0.21719111106E+02 -0.17227273410E+03  0.17905238540E+03  0.41800000000E+01 0. -1.
        -11    1    1    2    0    0 -0.27177010050E+02 -0.17332696875E+02 -0.18591558995E+03  0.18868921231E+03  0.00000000000E+00 0.  1.
         11    1    1    2    0    0  0.65468998808E+02 -0.16126445026E+02 -0.18494034125E+03  0.19684811875E+03  0.00000000000E+00 0. -1.
</event>
<event>
 6    1  0.6597032E-006  0.1009114E+03  0.7561462E-02  0.1278391E+00
         -1   -1    0    0    0  501 -0.00000000000E+00  0.00000000000E+00  0.36571496835E+02  0.36571496835E+02  0.00000000000E+00 0.  1.
          1   -1    0    0  501    0  0.00000000000E+00 -0.00000000000E+00 -0.53225451383E+03  0.53225451383E+03  0.00000000000E+00 0. -1.
          5    1    1    2  502    0  0.42748258148E+02  0.14823377237E+02 -0.79895976822E+02  0.91912924008E+02  0.41800000000E+01 0.  1.
         -5    1    1    2    0  502 -0.63322845482E+02 -0.15629137328E+02 -0.16547874563E+02  0.67419264651E+02  0.41800000000E+01 0.  1.
        -11    1    1    2    0    0  0.53649840344E+02  0.13954455804E+02 -0.24898063580E+03  0.25507722205E+03  0.00000000000E+00 0.  1.
         11    1    1    2    0    0 -0.33075253011E+02 -0.13148695713E+02 -0.15025852981E+03  0.15441659995E+03  0.00000000000E+00 0. -1.
</event>
<event>
 6    1  0.6597032E-006  0.8831815E+02  0.7561462E-02  0.1306976E+00
          2   -1    0    0  501    0  0.00000000000E+00  0.00000000000E+00  0.32495221998E+03  0.32495221998E+03  0.00000000000E+00 0. -1.
         -2   -1    0    0    0  501 -0.00000000000E+00 -0.00000000000E+00 -0.50244134632E+02  0.50244134632E+02  0.00000000000E+00 0.  1.
          5    1    1    2  502    0 -0.31593528224E+02 -0.19783223732E+02 -0.71746262013E+01  0.38189980728E+02  0.41800000000E+01 0.  1.
         -5    1    1    2    0  502 -0.27359178039E+02  0.52977803867E+02  0.15888653329E+03  0.16975740098E+03  0.41800000000E+01 0.  1.
        -11    1    1    2    0    0  0.48902481275E+02 -0.46860085857E+01  0.98107035247E+01  0.50096519390E+02  0.00000000000E+00 0.  1.
         11    1    1    2    0    0  0.10050224988E+02 -0.28508571549E+02  0.11318547474E+03  0.11715245352E+03  0.00000000000E+00 0. -1.
</event>
<event>
 6    1  0.6597032E-006  0.1033797E+03  0.7561462E-02  0.1273345E+00
         -2   -1    0    0    0  501 -0.00000000000E+00  0.00000000000E+00  0.38774032215E+03  0.38774032215E+03  0.00000000000E+00 0.  1.
          2   -1    0    0  501    0  0.00000000000E+00 -0.00000000000E+00 -0.40978193775E+02  0.40978193775E+02  0.00000000000E+00 0. -1.
          5    1    1    2  502    0  0.55145291132E+02 -0.29201823594E+02  0.19392427323E+03  0.20375928391E+03  0.41800000000E+01 0.  1.
         -5    1    1    2    0  502 -0.87992049457E+01  0.59598765307E+02  0.62534013620E+02  0.86933388829E+02  0.41800000000E+01 0.  1.
        -11    1    1    2    0    0 -0.46649657382E+02 -0.47586135261E+02  0.98544718856E+02  0.11896088608E+03  0.00000000000E+00 0.  1.
         11    1    1    2    0    0  0.30357119574E+00  0.17189193547E+02 -0.82408773240E+01  0.19064957103E+02  0.00000000000E+00 0. -1.
</event>
<event>
 6    1  0.6597032E-006  0.1602225E+03  0.7561462E-02  0.1188446E+00
         -1   -1    0    0    0  501 -0.00000000000E+00  0.00000000000E+00  0.57286421094E+02  0.57286421094E+02  0.00000000000E+00 0.  1.
          1   -1    0    0  501    0  0.00000000000E+00 -0.00000000000E+00 -0.55676455675E+03  0.55676455675E+03  0.00000000000E+00 0. -1.
          5    1    1    2  502    0 -0.49712065210E+02  0.31718202820E+02 -0.14278995905E+03  0.15454377575E+03  0.41800000000E+01 0. -1.
         -5    1    1    2    0  502  0.14097556985E+02  0.98548710768E+02 -0.48099620161E+02  0.11064192409E+03  0.41800000000E+01 0. -1.
        -11    1    1    2    0    0 -0.25641355020E+02 -0.74722059303E+02 -0.13114621649E+03  0.15310191159E+03  0.00000000000E+00 0.  1.
         11    1    1    2    0    0  0.61255863245E+02 -0.55544854285E+02 -0.17744233997E+03  0.19576336642E+03  0.00000000000E+00 0. -1.
</event>
<event>
 6    1  0.6597032E-006  0.1047736E+03  0.7561462E-02  0.1270566E+00
          1   -1    0    0  501    0  0.00000000000E+00  0.00000000000E+00  0.25359529832E+02  0.25359529832E+02  0.00000000000E+00 0. -1.
         -1   -1    0    0    0  501 -0.00000000000E+00 -0.00000000000E+00 -0.58632917307E+03  0.58632917307E+03  0.00000000000E+00 0.  1.
          5    1    1    2  502    0  0.50898883377E+02  0.39015624733E+02 -0.33739684930E+03  0.34346327551E+03  0.41800000000E+01 0. -1.
         -5    1    1    2    0  502 -0.44520770045E+02  0.40383071751E+01 -0.95183760179E+02  0.10524175736E+03  0.41800000000E+01 0.  1.
        -11    1    1    2    0    0 -0.22148099304E+02 -0.67638792314E+02 -0.89611288860E+02  0.11443656592E+03  0.00000000000E+00 0.  1.
         11    1    1    2    0    0  0.15769985972E+02  0.24584860406E+02 -0.38777744896E+02  0.48547104116E+02  0.00000000000E+00 0. -1.
</event>
<event>
 6    1  0.1341503E-005  0.1965963E+03  0.7561462E-02  0.1152643E+00
          2   -1    0    0  501    0  0.00000000000E+00  0.00000000000E+00  0.90187211735E+03  0.90187211735E+03  0.00000000000E+00 0. -1.
         -2   -1    0    0    0  501 -0.00000000000E+00 -0.00000000000E+00 -0.47585475319E+02  0.47585475319E+02  0.00000000000E+00 0.  1.
          5    1    1    2  502    0 -0.21817828396E+02 -0.24820816639E+01  0.24758273848E+02  0.33356002297E+02  0.41800000000E+01 0. -1.
         -5    1    1    2    0  502  0.13414008728E+03  0.13320958788E+03  0.33770416275E+03  0.38703996080E+03  0.41800000000E+01 0. -1.
        -11    1    1    2    0    0 -0.81365736006E+02 -0.50521037976E+02  0.16178404576E+03  0.18800754170E+03  0.00000000000E+00 0.  1.
         11    1    1    2    0    0 -0.30956522883E+02 -0.80206468236E+02  0.33004015968E+03  0.34105408787E+03  0.00000000000E+00 0. -1.
</event>
<event>
 6    1  0.6597032E-006  0.1918208E+03  0.7561462E-02  0.1156829E+00
          2   -1    0    0  501    0  0.00000000000E+00  0.00000000000E+00  0.27466831477E+03  0.27466831477E+03  0.00000000000E+00 0. -1.
         -2   -1    0    0    0  501 -0.00000000000E+00 -0.00000000000E+00 -0.26300962096E+03  0.26300962096E+03  0.00000000000E+00 0.  1.
          5    1    1    2  502    0  0.81296705731E+01 -0.98181625496E+01  0.75484296671E+01  0.15392824624E+02  0.41800000000E+01 0. -1.
         -5    1    1    2    0  502 -0.17462317132E+03 -0.45521209750E+02 -0.17737915014E+03  0.25307364107E+03  0.41800000000E+01 0.  1.
        -11    1    1    2    0    0  0.42325338041E+02 -0.17458153227E+02  0.12961795324E+02  0.47583920523E+02  0.00000000000E+00 0.  1.
         11    1    1    2    0    0  0.12416816270E+03  0.72797525527E+02  0.16852761896E+03  0.22162754951E+03  0.00000000000E+00 0. -1.
</event>
<event>
 6    1  0.6597032E-006  0.1057913E+03  0.7561462E-02  0.1268568E+00
         -2   -1    0    0    0  501 -0.00000000000E+00  0.00000000000E+00  0.97868526810E+02  0.97868526810E+02  0.00000000000E+00 0. -1.
          2   -1    0    0  501    0  0.00000000000E+00 -0.00000000000E+00 -0.14519160782E+03  0.14519160782E+03  0.00000000000E+00 0.  1.
          5    1    1    2  502    0  0.30306049534E+02 -0.61891790607E+02  0.14318929676E+02  0.70509251378E+02  0.41800000000E+01 0. -1.
         -5    1    1    2    0  502 -0.13841095629E+02  0.55250799328E+02  0.52217957781E+01  0.57349510074E+02  0.41800000000E+01 0. -1.
        -11    1    1    2    0    0 -0.22337661703E+02 -0.36011278602E+02 -0.94157724206E+01  0.43410138069E+02  0.00000000000E+00 0. -1.
         11    1    1    2    0    0  0.58727077986E+01  0.42652269880E+02 -0.57448034043E+02  0.71791235107E+02  0.00000000000E+00 0.  1.
</event>
<event>
 6    1  0.6597032E-006  0.7084125E+02  0.7561462E-02  0.1357255E+00
          1   -1    0    0  501    0  0.00000000000E+00  0.00000000000E+00  0.85755998066E+02  0.85755998066E+02  0.00000000000E+00 0. -1.
         -1   -1    0    0    0  501 -0.00000000000E+00 -0.00000000000E+00 -0.15264288056E+03  0.15264288056E+03  0.00000000000E+00 0.  1.
          5    1    1    2  502    0 -0.10886839300E+02  0.61446884313E+01  0.38567197050E+02  0.40757595049E+02  0.41800000000E+01 0. -1.
         -5    1    1    2    0  502  0.35279101390E+02  0.21311191249E+02 -0.90577766204E+02  0.99602138520E+02  0.41800000000E+01 0. -1.
        -11    1    1    2    0    0 -0.27084863697E+02  0.23613417245E+02 -0.27635757886E+02  0.45331208118E+02  0.00000000000E+00 0.  1.
         11    1    1    2    0    0  0.26926016070E+01 -0.51069296925E+02  0.12759444542E+02  0.52707936944E+02  0.00000000000E+00 0. -1.
</event>
<event>
 6    1  0.6597032E-006  0.1026495E+03  0.7561462E-02  0.1274821E+00
         -1   -1    0    0    0  501 -0.00000000000E+00  0.00000000000E+00  0.55532117472E+02  0.55532117472E+02  0.00000000000E+00 0.  1.
          1   -1    0    0  501    0  0.00000000000E+00 -0.00000000000E+00 -0.24239906563E+03  0.24239906563E+03  0.00000000000E+00 0. -1.
          5    1    1    2  502    0  0.20953548101E+02 -0.54577218540E+02 -0.22734060475E+02  0.62865203947E+02  0.41800000000E+01 0.  1.
         -5    1    1    2    0  502  0.37213043000E+01  0.69133069449E+02 -0.38469065956E+02  0.79313118919E+02  0.41800000000E+01 0.  1.
        -11    1    1    2    0    0 -0.27368826305E+01 -0.42059145997E+02 -0.24739263399E+02  0.48872215441E+02  0.00000000000E+00 0.  1.
         11    1    1    2    0    0 -0.21937969770E+02  0.27503295088E+02 -0.10092455833E+03  0.10688064480E+03  0.00000000000E+00 0. -1.
</event>
<event>
 6    1  0.6597032E-006  0.1145437E+03  0.7561462E-02  0.1252380E+00
         -4   -1    0    0    0  501 -0.00000000000E+00  0.00000000000E+00  0.62574905634E+02  0.62574905634E+02  0.00000000000E+00 0.  1.
          4   -1    0    0  501    0  0.00000000000E+00 -0.00000000000E+00 -0.34719299228E+03  0.34719299228E+03  0.00000000000E+00 0. -1.
          5    1    1    2  502    0  0.38256288807E+02 -0.24917371618E+02  0.21095089665E+02  0.50466763811E+02  0.41800000000E+01 0.  1.
         -5    1    1    2    0  502 -0.16226944778E+02 -0.60874012477E+02 -0.10970786151E+03  0.12657901251E+03  0.41800000000E+01 0.  1.
        -11    1    1    2    0    0  0.97972780319E+01 -0.13018837970E+02 -0.56679673811E+02  0.58975098323E+02  0.00000000000E+00 0. -1.
         11    1    1    2    0    0 -0.31826622062E+02  0.98810222064E+02 -0.13932564099E+03  0.17374702326E+03  0.00000000000E+00 0.  1.
</event>
<event>
 6    1  0.6597032E-006  0.1306428E+03  0.7561462E-02  0.1226505E+00
         -1   -1    0    0    0  501 -0.00000000000E+00  0.00000000000E+00  0.14907725918E+03  0.14907725918E+03  0.00000000000E+00 0.  1.
          1   -1    0    0  501    0  0.00000000000E+00 -0.00000000000E+00 -0.31220040527E+03  0.31220040527E+03  0.00000000000E+00 0. -1.
          5    1    1    2  502    0  0.74827456853E+00  0.55042159345E+02 -0.73861889316E+02  0.92213070189E+02  0.41800000000E+01 0. -1.
         -5    1    1    2    0  502  0.95939367523E+02 -0.34783722069E+01  0.95688092860E+02  0.13561026816E+03  0.41800000000E+01 0.  1.
        -11    1    1    2    0    0 -0.96330874211E+01 -0.85725049565E+01  0.95646110283E+01  0.16055092607E+02  0.00000000000E+00 0.  1.
         11    1    1    2    0    0 -0.87054554670E+02 -0.42991282182E+02 -0.19451396067E+03  0.21739923350E+03  0.00000000000E+00 0. -1.
</event>
<event>
 6    1  0.6597032E-006  0.1448967E+03  0.7561462E-02  0.1206888E+00
          2   -1    0    0  501    0  0.00000000000E+00  0.00000000000E+00  0.98158745141E+03  0.98158745141E+03  0.00000000000E+00 0.  1.
         -2   -1    0    0    0  501 -0.00000000000E+00 -0.00000000000E+00 -0.25240667336E+02  0.25240667336E+02  0.00000000000E+00 0. -1.
          5    1    1    2  502    0 -0.85608445793E+02  0.16270088364E+02  0.15490439882E+03  0.17778179586E+03  0.41800000000E+01 0. -1.
         -5    1    1    2    0  502  0.11229005056E+01  0.60139949449E+02  0.33838135685E+03  0.34371134617E+03  0.41800000000E+01 0. -1.
        -11    1    1    2    0    0  0.10066097754E+03 -0.75907259602E+02  0.43542270548E+03  0.45330726545E+03  0.00000000000E+00 0.  1.
         11    1    1    2    0    0 -0.16175432256E+02 -0.50277821071E+00  0.27638322927E+02  0.32027711264E+02  0.00000000000E+00 0. -1.
</event>
<event>
 6    1  0.6597032E-006  0.1441113E+03  0.7561462E-02  0.1207902E+00
         -2   -1    0    0    0  501 -0.00000000000E+00  0.00000000000E+00  0.30960570657E+02  0.30960570657E+02  0.00000000000E+00 0.  1.
          2   -1    0    0  501    0  0.00000000000E+00 -0.00000000000E+00 -0.83643926479E+03  0.83643926479E+03  0.00000000000E+00 0. -1.
          5    1    1    2  502    0  0.44748433491E+01 -0.10556393243E+03 -0.27571255334E+03  0.29529417963E+03  0.41800000000E+01 0. -1.
         -5    1    1    2    0  502 -0.40053279433E+02  0.40829698064E+01 -0.24671670966E+02  0.47403581975E+02  0.41800000000E+01 0. -1.
        -11    1    1    2    0    0  0.65499860225E+02  0.86615546259E+02 -0.37797666225E+03  0.39326688362E+03  0.00000000000E+00 0.  1.
         11    1    1    2    0    0 -0.29921424141E+02  0.14865416369E+02 -0.12711780757E+03  0.13143519022E+03  0.00000000000E+00 0. -1.
</event>
<event>
 6    1  0.6597032E-006  0.1129335E+03  0.7561462E-02  0.1255232E+00
         -2   -1    0    0    0  501 -0.00000000000E+00  0.00000000000E+00  0.79887764841E+02  0.79887764841E+02  0.00000000000E+00 0.  1.
          2   -1    0    0  501    0  0.00000000000E+00 -0.00000000000E+00 -0.29263908657E+03  0.29263908657E+03  0.00000000000E+00 0. -1.
          5    1    1    2  502    0 -0.37760377413E+02 -0.33180420954E+02  0.93905473055E+01  0.51307321268E+02  0.41800000000E+01 0. -1.
         -5    1    1    2    0  502  0.85128012901E+01  0.85751707210E+02 -0.15345539385E+02  0.87628654299E+02  0.41800000000E+01 0. -1.
        -11    1    1    2    0    0  0.39035308004E+02 -0.35876055591E+01 -0.16140141419E+03  0.16609347575E+03  0.00000000000E+00 0. -1.
         11    1    1    2    0    0 -0.97877318807E+01 -0.48983680697E+02 -0.45394915467E+02  0.67497400100E+02  0.00000000000E+00 0.  1.
</event>
<event>
 6    1  0.6597032E-006  0.1149755E+03  0.7561462E-02  0.1251624E+00
          2   -1    0    0  501    0  0.00000000000E+00  0.00000000000E+00  0.60050412879E+03  0.60050412879E+03  0.00000000000E+00 0.  1.
         -2   -1    0    0    0  501 -0.00000000000E+00 -0.00000000000E+00 -0.23372538174E+02  0.23372538174E+02  0.00000000000E+00 0. -1.
          5    1    1    2  502    0 -0.38981097673E+02  0.18647226316E+02  0.11924031816E+03  0.12689748185E+03  0.41800000000E+01 0. -1.
         -5    1    1    2    0  502  0.86786379166E+02 -0.22999505103E+02  0.19501800483E+03  0.21473320063E+03  0.41800000000E+01 0. -1.
        -11    1    1    2    0    0 -0.67204520833E+01  0.41034114205E+02  0.67695239106E+02  0.79445631739E+02  0.00000000000E+00 0. -1.
         11    1    1    2    0    0 -0.41084829410E+02 -0.36681835418E+02  0.19517802852E+03  0.20280035274E+03  0.00000000000E+00 0.  1.
</event>
<event>
 6    1  0.6597032E-006  0.8309037E+02  0.7561462E-02  0.1320503E+00
         -2   -1    0    0    0  501 -0.00000000000E+00  0.00000000000E+00  0.12042109794E+03  0.12042109794E+03  0.00000000000E+00 0.  1.
          2   -1    0    0  501    0  0.00000000000E+00 -0.00000000000E+00 -0.13590802628E+03  0.13590802628E+03  0.00000000000E+00 0. -1.
          5    1    1    2  502    0 -0.19571779521E+02  0.11886827900E+02 -0.66142736294E+02  0.70119078685E+02  0.41800000000E+01 0.  1.
         -5    1    1    2    0  502 -0.30200545777E+02  0.34848235079E+02  0.56095564340E+02  0.72736903921E+02  0.41800000000E+01 0.  1.
        -11    1    1    2    0    0  0.24350427449E+02 -0.62233076192E+02 -0.31524160151E+02  0.73889591706E+02  0.00000000000E+00 0.  1.
         11    1    1    2    0    0  0.25421897849E+02  0.15498013213E+02  0.26084403759E+02  0.39583549907E+02  0.00000000000E+00 0. -1.
</event>
<event>
 6    1  0.6597032E-006  0.9979503E+02  0.7561462E-02  0.1280728E+00
         -2   -1    0    0    0  501 -0.00000000000E+00  0.00000000000E+00  0.18920300501E+03  0.18920300501E+03  0.00000000000E+00 0.  1.
          2   -1    0    0  501    0  0.00000000000E+00 -0.00000000000E+00 -0.68034089384E+02  0.68034089384E+02  0.00000000000E+00 0. -1.
          5    1    1    2  502    0  0.50005313884E+02  0.13479169416E+02  0.53367894000E+02  0.74483715903E+02  0.41800000000E+01 0.  1.
         -5    1    1    2    0  502 -0.71315510099E+02  0.15795649176E+02  0.24045052832E+02  0.77013255218E+02  0.41800000000E+01 0.  1.
        -11    1    1    2    0    0  0.21414800093E+02 -0.49661097823E+02 -0.35808285432E+01  0.54200005840E+02  0.00000000000E+00 0. -1.
         11    1    1    2    0    0 -0.10460387782E+00  0.20386279231E+02  0.47336797335E+02  0.51540117431E+02  0.00000000000E+00 0.  1.
</event>
<event>
 6    1  0.6597032E-006  0.5836746E+02  0.7561462E-02  0.1404813E+00
         -2   -1    0    0    0  501 -0.00000000000E+00  0.00000000000E+00  0.47986913327E+03  0.47986913327E+03  0.00000000000E+00 0.  1.
          2   -1    0    0  501    0  0.00000000000E+00 -0.00000000000E+00 -0.28881397638E+02  0.28881397638E+02  0.00000000000E+00 0. -1.
          5    1    1    2  502    0  0.11429270378E+02 -0.11634936318E+02 -0.38802237085E+01  0.17277977327E+02  0.41800000000E+01 0.  1.
         -5    1    1    2    0  502 -0.35168877227E+02  0.26376915829E+02  0.33307383361E+03  0.33598845612E+03  0.41800000000E+01 0.  1.
        -11    1    1    2    0    0 -0.11649286350E+02 -0.16624576615E+02  0.11812404743E+03  0.11985563400E+03  0.00000000000E+00 0.  1.
         11    1    1    2    0    0  0.35388893199E+02  0.18825971041E+01  0.36700783038E+01  0.35628463459E+02  0.00000000000E+00 0. -1.
</event>
<event>
 6    1  0.6597032E-006  0.1041395E+03  0.7561462E-02  0.1271824E+00
          1   -1    0    0  501    0  0.00000000000E+00  0.00000000000E+00  0.27393333949E+03  0.27393333949E+03  0.00000000000E+00 0. -1.
         -1   -1    0    0    0  501 -0.00000000000E+00 -0.00000000000E+00 -0.50082925791E+02  0.50082925791E+02  0.00000000000E+00 0.  1.
          5    1    1    2  502    0 -0.20974529716E+02  0.34842886078E+02  0.84276363888E+02  0.93669288015E+02  0.41800000000E+01 0.  1.
         -5    1    1    2    0  502  0.60102583392E+02 -0.36504706909E+02  0.18327916125E+02  0.72789415895E+02  0.41800000000E+01 0.  1.
        -11    1    1    2    0    0 -0.49529538252E+02  0.35897778810E+02  0.54975723258E+02  0.82244488148E+02  0.00000000000E+00 0. -1.
         11    1    1    2    0    0  0.10401484576E+02 -0.34235957979E+02  0.66270410431E+02  0.75313073227E+02  0.00000000000E+00 0.  1.
</event>
<event>
 6    1  0.6597032E-006  0.8777197E+02  0.7561462E-02  0.1308339E+00
         -2   -1    0    0    0  501 -0.00000000000E+00  0.00000000000E+00  0.46492970498E+02  0.46492970498E+02  0.00000000000E+00 0.  1.
          2   -1    0    0  501    0  0.00000000000E+00 -0.00000000000E+00 -0.31062800677E+03  0.31062800677E+03  0.00000000000E+00 0. -1.
          5    1    1    2  502    0  0.31476145171E+02  0.46016402103E+02 -0.36385134949E+01  0.56026495141E+02  0.41800000000E+01 0. -1.
         -5    1    1    2    0  502 -0.43473209804E+02 -0.48680266949E-01 -0.11417830007E+03  0.12224597722E+03  0.41800000000E+01 0. -1.
        -11    1    1    2    0    0 -0.12217614928E+01  0.14254142004E+02  0.52347029149E+01  0.15234020481E+02  0.00000000000E+00 0.  1.
         11    1    1    2    0    0  0.13218826126E+02 -0.60221863840E+02 -0.15155292562E+03  0.16361448442E+03  0.00000000000E+00 0. -1.
</event>
<event>
 6    1  0.6597032E-006  0.8280931E+02  0.7561462E-02  0.1321263E+00
          1   -1    0    0  501    0  0.00000000000E+00  0.00000000000E+00  0.14433873746E+02  0.14433873746E+02  0.00000000000E+00 0. -1.
         -1   -1    0    0    0  501 -0.00000000000E+00 -0.00000000000E+00 -0.10743515928E+04  0.10743515928E+04  0.00000000000E+00 0.  1.
          5    1    1    2  502    0  0.12810624678E+02  0.22393585120E+02 -0.19825316471E+02  0.32803968241E+02  0.41800000000E+01 0.  1.
         -5    1    1    2    0  502  0.49977159576E+02  0.19009770537E+02 -0.67825476056E+03  0.68037201624E+03  0.41800000000E+01 0.  1.
        -11    1    1    2    0    0 -0.39299323477E+02 -0.47434510718E+02 -0.32939393621E+03  0.33510421490E+03  0.00000000000E+00 0.  1.
         11    1    1    2    0    0 -0.23488460777E+02  0.60311550601E+01 -0.32443705787E+02  0.40505267142E+02  0.00000000000E+00 0. -1.
</event>
<event>
 6    1  0.6597032E-006  0.1389180E+03  0.7561462E-02  0.1214792E+00
          2   -1    0    0  501    0  0.00000000000E+00  0.00000000000E+00  0.71498882608E+02  0.71498882608E+02  0.00000000000E+00 0. -1.
         -2   -1    0    0    0  501 -0.00000000000E+00 -0.00000000000E+00 -0.43926431669E+03  0.43926431669E+03  0.00000000000E+00 0.  1.
          5    1    1    2  502    0 -0.45509882188E+02 -0.21650804829E+02 -0.18927469026E+03  0.19591397985E+03  0.41800000000E+01 0.  1.
         -5    1    1    2    0  502 -0.69830882146E+02 -0.53803952196E+02 -0.33529829392E+02  0.94408364207E+02  0.41800000000E+01 0.  1.
        -11    1    1    2    0    0  0.59205700809E+02  0.49476391676E+02 -0.13811870155E+03  0.15820873572E+03  0.00000000000E+00 0.  1.
         11    1    1    2    0    0  0.56135063525E+02  0.25978365349E+02 -0.68422128827E+01  0.62232119522E+02  0.00000000000E+00 0. -1.
</event>
<event>
 6    1  0.6597032E-006  0.1021069E+03  0.7561462E-02  0.1275927E+00
         -2   -1    0    0    0  501 -0.00000000000E+00  0.00000000000E+00  0.31886218532E+03  0.31886218532E+03  0.00000000000E+00 0.  1.
          2   -1    0    0  501    0  0.00000000000E+00 -0.00000000000E+00 -0.42628505792E+02  0.42628505792E+02  0.00000000000E+00 0. -1.
          5    1    1    2  502    0  0.38021757990E+02 -0.41839269065E+02  0.52127157431E+02  0.77012281218E+02  0.41800000000E+01 0. -1.
         -5    1    1    2    0  502 -0.62895158132E+02  0.18860238537E+02  0.14062039013E+03  0.15525165389E+03  0.41800000000E+01 0. -1.
        -11    1    1    2    0    0 -0.14979702243E+02  0.36653206623E+02  0.77016736260E+02  0.86599230362E+02  0.00000000000E+00 0.  1.
         11    1    1    2    0    0  0.39853102385E+02 -0.13674176095E+02  0.64693957026E+01  0.42627525642E+02  0.00000000000E+00 0. -1.
</event>
<event>
 6    1  0.6597032E-006  0.6894241E+02  0.7561462E-02  0.1363727E+00
         -1   -1    0    0    0  501 -0.00000000000E+00  0.00000000000E+00  0.53907735709E+02  0.53907735709E+02  0.00000000000E+00 0.  1.
          1   -1    0    0  501    0  0.00000000000E+00 -0.00000000000E+00 -0.31415747067E+03  0.31415747067E+03  0.00000000000E+00 0. -1.
          5    1    1    2  502    0  0.46026164015E+02  0.16667825845E+01 -0.13571429740E+03  0.14337722572E+03  0.41800000000E+01 0.  1.
         -5    1    1    2    0  502  0.20304167550E+02 -0.80512459559E+01  0.27193939288E+02  0.35129254410E+02  0.41800000000E+01 0.  1.
        -11    1    1    2    0    0 -0.28343953984E+02  0.12405746274E+02  0.20836846078E+01  0.31010063038E+02  0.00000000000E+00 0.  1.
         11    1    1    2    0    0 -0.37986377581E+02 -0.60212829023E+01 -0.15381306146E+03  0.15854866321E+03  0.00000000000E+00 0. -1.
</event>
<event>
 6    1  0.6597032E-006  0.1229436E+03  0.7561462E-02  0.1238319E+00
         -2   -1    0    0    0  501 -0.00000000000E+00  0.00000000000E+00  0.21312264577E+02  0.21312264577E+02  0.00000000000E+00 0.  1.
          2   -1    0    0  501    0  0.00000000000E+00 -0.00000000000E+00 -0.81502694851E+03  0.81502694851E+03  0.00000000000E+00 0. -1.
          5    1    1    2  502    0 -0.71633180499E+02  0.64794819366E+02 -0.18029731474E+03  0.20458317445E+03  0.41800000000E+01 0.  1.
         -5    1    1    2    0  502  0.37384160310E+02 -0.13103720936E+02 -0.12339292177E+03  0.12966328889E+03  0.41800000000E+01 0.  1.
        -11    1    1    2    0    0  0.25141874260E+01  0.25650378641E+02 -0.10917291880E+03  0.11217392416E+03  0.00000000000E+00 0.  1.
         11    1    1    2    0    0  0.31734832762E+02 -0.77341477071E+02 -0.38085152862E+03  0.38991882557E+03  0.00000000000E+00 0. -1.
</event>
<event>
 6    1  0.6597032E-006  0.1134374E+03  0.7561462E-02  0.1254334E+00
          1   -1    0    0  501    0  0.00000000000E+00  0.00000000000E+00  0.65344473190E+02  0.65344473190E+02  0.00000000000E+00 0. -1.
         -1   -1    0    0    0  501 -0.00000000000E+00 -0.00000000000E+00 -0.48210568435E+03  0.48210568435E+03  0.00000000000E+00 0.  1.
          5    1    1    2  502    0  0.69694361804E+02 -0.70475455921E+02 -0.37301472893E+03  0.38598128757E+03  0.41800000000E+01 0.  1.
         -5    1    1    2    0  502  0.10401948048E+02  0.59568582390E+01  0.68302104098E+01  0.14415576905E+02  0.41800000000E+01 0.  1.
        -11    1    1    2    0    0 -0.40064128726E+02  0.12230710989E+01 -0.59382980823E+02  0.71644739687E+02  0.00000000000E+00 0.  1.
         11    1    1    2    0    0 -0.40032181127E+02  0.63295526583E+02  0.88062881823E+01  0.75408553379E+02  0.00000000000E+00 0. -1.
</event>
<event>
 6    1  0.6597032E-006  0.8650351E+02  0.7561462E-02  0.1311547E+00
          2   -1    0    0  501    0  0.00000000000E+00  0.00000000000E+00  0.19054058505E+03  0.19054058505E+03  0.00000000000E+00 0. -1.
         -2   -1    0    0    0  501 -0.00000000000E+00 -0.00000000000E+00 -0.68636975530E+02  0.68636975530E+02  0.00000000000E+00 0.  1.
          5    1    1    2  502    0 -0.31623754722E+02 -0.86821738324E+01 -0.27420800976E+02  0.42951306515E+02  0.41800000000E+01 0. -1.
         -5    1    1    2    0  502  0.54676225054E+02 -0.19914868303E+02  0.76826627821E+02  0.96467065406E+02  0.41800000000E+01 0. -1.
        -11    1    1    2    0    0 -0.36526054606E+02  0.46544613296E+02  0.76760135857E+02  0.96915799273E+02  0.00000000000E+00 0. -1.
         11    1    1    2    0    0  0.13473584274E+02 -0.17947571160E+02 -0.42623531867E+01  0.22843389381E+02  0.00000000000E+00 0.  1.
</event>
<event>
 6    1  0.6597032E-006  0.1417855E+03  0.7561462E-02  0.1210946E+00
         -2   -1    0    0    0  501 -0.00000000000E+00  0.00000000000E+00  0.61449055727E+02  0.61449055727E+02  0.00000000000E+00 0.  1.
          2   -1    0    0  501    0  0.00000000000E+00 -0.00000000000E+00 -0.40926680903E+03  0.40926680903E+03  0.00000000000E+00 0. -1.
          5    1    1    2  502    0 -0.50177347863E+02 -0.13022094687E+03 -0.12411331718E+03  0.18680698366E+03  0.41800000000E+01 0. -1.
         -5    1    1    2    0  502  0.13240335259E+02  0.23001004944E+02 -0.43325400239E+02  0.50979558767E+02  0.41800000000E+01 0. -1.
        -11    1    1    2    0    0  0.40382895822E+02  0.79638908100E+02 -0.55814796069E+02  0.10530159267E+03  0.00000000000E+00 0.  1.
         11    1    1    2    0    0 -0.34458832185E+01  0.27581033827E+02 -0.12456423981E+03  0.12762772966E+03  0.00000000000E+00 0. -1.
</event>
<event>
 6    1  0.6597032E-006  0.4728146E+02  0.7561462E-02  0.1460582E+00
          2   -1    0    0  501    0  0.00000000000E+00  0.00000000000E+00  0.34690691145E+03  0.34690691145E+03  0.00000000000E+00 0. -1.
         -2   -1    0    0    0  501 -0.00000000000E+00 -0.00000000000E+00 -0.35641282668E+02  0.35641282668E+02  0.00000000000E+00 0.  1.
          5    1    1    2  502    0  0.24210752547E+02 -0.54226832901E-01 -0.11600177743E+02  0.27169836273E+02  0.41800000000E+01 0.  1.
         -5    1    1    2    0  502 -0.99519127438E+01 -0.21996162833E+02  0.19408780525E+03  0.19562827069E+03  0.41800000000E+01 0.  1.
        -11    1    1    2    0    0 -0.52154792312E+00  0.29742950065E+02  0.13822439704E+03  0.14138917578E+03  0.00000000000E+00 0. -1.
         11    1    1    2    0    0 -0.13737291880E+02 -0.76925603995E+01 -0.94463957624E+01  0.18360911377E+02  0.00000000000E+00 0.  1.
</event>
<event>
 6    1  0.6597032E-006  0.1620802E+03  0.7561462E-02  0.1186368E+00
         -1   -1    0    0    0  501 -0.00000000000E+00  0.00000000000E+00  0.10508117161E+03  0.10508117161E+03  0.00000000000E+00 0.  1.
          1   -1    0    0  501    0  0.00000000000E+00 -0.00000000000E+00 -0.28544180498E+03  0.28544180498E+03  0.00000000000E+00 0. -1.
          5    1    1    2  502    0 -0.24047945366E+02 -0.25972639451E+02 -0.46934046173E+02  0.58933511406E+02  0.41800000000E+01 0.  1.
         -5    1    1    2    0  502 -0.55839116792E+02  0.12930134383E+03 -0.80770843827E+02  0.16241381128E+03  0.41800000000E+01 0.  1.
        -11    1    1    2    0    0  0.37232794993E+02 -0.15584121517E+01  0.14514194546E+02  0.39992143162E+02  0.00000000000E+00 0.  1.
         11    1    1    2    0    0  0.42654267166E+02 -0.10177029223E+03 -0.67169937911E+02  0.12918351074E+03  0.00000000000E+00 0. -1.
</event>
<event>
 6    1  0.6597032E-006  0.1262360E+03  0.7561462E-02  0.1233150E+00
          1   -1    0    0  501    0  0.00000000000E+00  0.00000000000E+00  0.79894839426E+03  0.79894839426E+03  0.00000000000E+00 0. -1.
         -1   -1    0    0    0  501 -0.00000000000E+00 -0.00000000000E+00 -0.20192034324E+02  0.20192034324E+02  0.00000000000E+00 0.  1.
          5    1    1    2  502    0  0.52018438693E+02 -0.33619388288E+02  0.23258601149E+03  0.24072786788E+03  0.41800000000E+01 0. -1.
         -5    1    1    2    0  502 -0.39984845780E+01  0.77825144002E+02  0.22811802354E+03  0.24109758601E+03  0.41800000000E+01 0. -1.
        -11    1    1    2    0    0 -0.13710656384E+02 -0.68792167844E+02  0.19969000341E+03  0.21165169954E+03  0.00000000000E+00 0.  1.
         11    1    1    2    0    0 -0.34309297731E+02  0.24586412130E+02  0.11836232149E+03  0.12566327515E+03  0.00000000000E+00 0. -1.
</event>
<event>
 6    1  0.6597032E-006  0.9178690E+02  0.7561462E-02  0.1298581E+00
         -1   -1    0    0    0  501 -0.00000000000E+00  0.00000000000E+00  0.80446152927E+02  0.80446152927E+02  0.00000000000E+00 0.  1.
          1   -1    0    0  501    0  0.00000000000E+00 -0.00000000000E+00 -0.17308336953E+03  0.17308336953E+03  0.00000000000E+00 0. -1.
          5    1    1    2  502    0 -0.35279593571E+02  0.18035981622E+01 -0.45842177623E+02  0.58024825188E+02  0.41800000000E+01 0. -1.
         -5    1    1    2    0  502  0.59387069945E+02  0.15427682708E+02  0.35380926847E+02  0.70951531731E+02  0.41800000000E+01 0. -1.
        -11    1    1    2    0    0 -0.49880511698E+02  0.79015360344E+01 -0.23472001493E+02  0.55690524985E+02  0.00000000000E+00 0.  1.
         11    1    1    2    0    0  0.25773035325E+02 -0.25132816905E+02 -0.58703964331E+02  0.68862640551E+02  0.00000000000E+00 0. -1.
</event>
<event>
 6    1  0.6597032E-006  0.1112282E+03  0.7561462E-02  0.1258312E+00
         -1   -1    0    0    0  501 -0.00000000000E+00  0.00000000000E+00  0.11769725694E+03  0.11769725694E+03  0.00000000000E+00 0.  1.
          1   -1    0    0  501    0  0.00000000000E+00 -0.00000000000E+00 -0.17100171543E+03  0.17100171543E+03  0.00000000000E+00 0. -1.
          5    1    1    2  502    0  0.40843705711E+02 -0.37356673799E+00  0.31683337201E+02  0.51861875250E+02  0.41800000000E+01 0.  1.
         -5    1    1    2    0  502 -0.79392961979E+02 -0.47730139092E+02  0.77171096575E+01  0.93050710750E+02  0.41800000000E+01 0.  1.
        -11    1    1    2    0    0  0.16898521937E+02  0.61114712231E+02 -0.19488590497E+02  0.66335309258E+02  0.00000000000E+00 0.  1.
         11    1    1    2    0    0  0.21650734331E+02 -0.13011006401E+02 -0.73216314851E+02  0.77451077107E+02  0.00000000000E+00 0. -1.
</event>
<event>
 6    1  0.6597032E-006  0.9683210E+02  0.7561462E-02  0.1287102E+00
          2   -1    0    0  501    0  0.00000000000E+00  0.00000000000E+00  0.31333486435E+02  0.31333486435E+02  0.00000000000E+00 0. -1.
         -2   -1    0    0    0  501 -0.00000000000E+00 -0.00000000000E+00 -0.37919981157E+03  0.37919981157E+03  0.00000000000E+00 0.  1.
          5    1    1    2  502    0  0.40315190075E+02 -0.29964986993E+02 -0.53241742911E+02  0.73316918815E+02  0.41800000000E+01 0. -1.
         -5    1    1    2    0  502 -0.52122057648E+02  0.48307992983E+02 -0.15527438764E+03  0.17081562849E+03  0.41800000000E+01 0. -1.
        -11    1    1    2    0    0  0.36904475203E+01  0.26369749921E+02 -0.10789730467E+03  0.11113420477E+03  0.00000000000E+00 0.  1.
         11    1    1    2    0    0  0.81164200527E+01 -0.44712755911E+02 -0.31452889913E+02  0.55266545934E+02  0.00000000000E+00 0. -1.
</event>
<event>
 6    1  0.6597032E-006  0.7237284E+02  0.7561462E-02  0.1352205E+00
         -1   -1    0    0    0  501 -0.00000000000E+00  0.00000000000E+00  0.40197176734E+03  0.40197176734E+03  0.00000000000E+00 0.  1.
          1   -1    0    0  501    0  0.00000000000E+00 -0.00000000000E+00 -0.37277084307E+02  0.37277084307E+02  0.00000000000E+00 0. -1.
          5    1    1    2  502    0 -0.28447136258E+02 -0.28625862342E+02  0.22506540458E+03  0.22869321874E+03  0.41800000000E+01 0.  1.
         -5    1    1    2    0  502  0.38534037063E+02 -0.27196118299E+02  0.18311391381E+02  0.50766921486E+02  0.41800000000E+01 0.  1.
        -11    1    1    2    0    0 -0.55059697528E+01  0.21357530730E+02  0.12301805610E+03  0.12497960613E+03  0.00000000000E+00 0.  1.
         11    1    1    2    0    0 -0.45809310521E+01  0.34464449911E+02 -0.17001690274E+01  0.34809105298E+02  0.00000000000E+00 0. -1.
</event>
<event>
 6    1  0.6597032E-006  0.1099259E+03  0.7561462E-02  0.1260707E+00
          2   -1    0    0  501    0  0.00000000000E+00  0.00000000000E+00  0.34224036728E+03  0.34224036728E+03  0.00000000000E+00 0. -1.
         -2   -1    0    0    0  501 -0.00000000000E+00 -0.00000000000E+00 -0.55547799279E+02  0.55547799279E+02  0.00000000000E+00 0.  1.
          5    1    1    2  502    0 -0.67374859077E+02  0.85887511914E+02  0.10687609215E+03  0.15282672480E+03  0.41800000000E+01 0.  1.
         -5    1    1    2    0  502  0.13484350883E+02 -0.16395700483E+02 -0.14290933775E+02  0.25929710781E+02  0.41800000000E+01 0.  1.
        -11    1    1    2    0    0  0.26556330554E+02 -0.23436245845E+02  0.30033471815E+02  0.46438192698E+02  0.00000000000E+00 0.  1.
         11    1    1    2    0    0  0.27334177640E+02 -0.46055565587E+02  0.16407393781E+03  0.17259353829E+03  0.00000000000E+00 0. -1.
</event>
<event>
 6    1  0.6597032E-006  0.1647287E+03  0.7561462E-02  0.1183459E+00
         -2   -1    0    0    0  501 -0.00000000000E+00  0.00000000000E+00  0.82707980604E+02  0.82707980604E+02  0.00000000000E+00 0.  1.
          2   -1    0    0  501    0  0.00000000000E+00 -0.00000000000E+00 -0.62513399428E+03  0.62513399428E+03  0.00000000000E+00 0. -1.
          5    1    1    2  502    0  0.10997230436E+01 -0.68027224574E+00  0.25822428707E+02  0.26190501817E+02  0.41800000000E+01 0. -1.
         -5    1    1    2    0  502  0.15051765638E+03 -0.39583819380E+02 -0.11403046643E+03  0.19298410119E+03  0.41800000000E+01 0. -1.
        -11    1    1    2    0    0 -0.98941306823E+01  0.24952282071E+02 -0.15405156673E+03  0.15637261721E+03  0.00000000000E+00 0.  1.
         11    1    1    2    0    0 -0.14172324874E+03  0.15311809555E+02 -0.30016640923E+03  0.33229475466E+03  0.00000000000E+00 0. -1.
</event>
<event>
 6    1  0.6597032E-006  0.1196393E+03  0.7561462E-02  0.1243693E+00
          2   -1    0    0  501    0  0.00000000000E+00  0.00000000000E+00  0.36173433119E+03  0.36173433119E+03  0.00000000000E+00 0. -1.
         -2   -1    0    0    0  501 -0.00000000000E+00 -0.00000000000E+00 -0.47687826943E+02  0.47687826943E+02  0.00000000000E+00 0.  1.
          5    1    1    2  502    0 -0.56715720174E+02  0.19277058105E+02  0.10432687492E+03  0.12037378084E+03  0.41800000000E+01 0. -1.
         -5    1    1    2    0  502  0.53550900120E+02  0.53434420078E+02  0.47739629105E+02  0.89551553531E+02  0.41800000000E+01 0. -1.
        -11    1    1    2    0    0  0.35628571561E+02 -0.18172105019E+02  0.11132381866E+03  0.11829037625E+03  0.00000000000E+00 0. -1.
         11    1    1    2    0    0 -0.32463751506E+02 -0.54539373164E+02  0.50656181569E+02  0.81206447515E+02  0.00000000000E+00 0.  1.
</event>
<event>
 6    1  0.6597032E-006  0.7147404E+02  0.7561462E-02  0.1355151E+00
          3   -1    0    0  501    0  0.00000000000E+00  0.00000000000E+00  0.27536247008E+03  0.27536247008E+03  0.00000000000E+00 0. -1.
         -3   -1    0    0    0  501 -0.00000000000E+00 -0.00000000000E+00 -0.62642939859E+02  0.62642939859E+02  0.00000000000E+00 0.  1.
          5    1    1    2  502    0 -0.33273948141E+02 -0.18589918713E+02  0.68514344388E+02  0.78513874504E+02  0.41800000000E+01 0.  1.
         -5    1    1    2    0  502  0.56372985460E+02 -0.14321067473E+02 -0.19854671446E+02  0.61601029549E+02  0.41800000000E+01 0.  1.
        -11    1    1    2    0    0 -0.12423779303E+02  0.79704434939E+00 -0.12780155292E+02  0.17841466900E+02  0.00000000000E+00 0.  1.
         11    1    1    2    0    0 -0.10675258016E+02  0.32113941836E+02  0.17684001257E+03  0.18004903899E+03  0.00000000000E+00 0. -1.
</event>
<event>
 6    1  0.6597032E-006  0.1254069E+03  0.7561462E-02  0.1234435E+00
         -1   -1    0    0    0  501 -0.00000000000E+00  0.00000000000E+00  0.86379587486E+02  0.86379587486E+02  0.00000000000E+00 0.  1.
          1   -1    0    0  501    0  0.00000000000E+00 -0.00000000000E+00 -0.41030191585E+03  0.41030191585E+03  0.00000000000E+00 0. -1.
          5    1    1    2  502    0 -0.92062189724E+02  0.42597028010E+02  0.26006845814E+01  0.10155879840E+03  0.41800000000E+01 0. -1.
         -5    1    1    2    0  502  0.37673588734E+02 -0.19267030444E+02  0.79099138379E+01  0.43249935112E+02  0.41800000000E+01 0.  1.
        -11    1    1    2    0    0 -0.54932328258E+01  0.27609427102E+02 -0.12599569158E+03  0.12910217027E+03  0.00000000000E+00 0.  1.
         11    1    1    2    0    0  0.59881833815E+02 -0.50939424668E+02 -0.20843723521E+03  0.22277059956E+03  0.00000000000E+00 0. -1.
</event>
<event>
 6    1  0.6597032E-006  0.1034917E+03  0.7561462E-02  0.1273120E+00
          1   -1    0    0  501    0  0.00000000000E+00  0.00000000000E+00  0.10837000346E+03  0.10837000346E+03  0.00000000000E+00 0. -1.
         -1   -1    0    0    0  501 -0.00000000000E+00 -0.00000000000E+00 -0.38634092231E+03  0.38634092231E+03  0.00000000000E+00 0.  1.
          5    1    1    2  502    0  0.32203125639E+02 -0.32669135006E+02 -0.17478299301E+03  0.18075088030E+03  0.41800000000E+01 0. -1.
         -5    1    1    2    0  502 -0.55495760799E+02  0.41398958127E+02 -0.18066856447E+03  0.19352585302E+03  0.41800000000E+01 0.  1.
        -11    1    1    2    0    0  0.53817921306E+02  0.11375230946E+02  0.53397785552E+02  0.76662168210E+02  0.00000000000E+00 0. -1.
         11    1    1    2    0    0 -0.30525286146E+02 -0.20105054067E+02  0.24082853080E+02  0.43772024237E+02  0.00000000000E+00 0.  1.
</event>
<event>
 6    1  0.6597032E-006  0.1102551E+03  0.7561462E-02  0.1260098E+00
         -2   -1    0    0    0  501 -0.00000000000E+00  0.00000000000E+00  0.21852288143E+02  0.21852288143E+02  0.00000000000E+00 0.  1.
          2   -1    0    0  501    0  0.00000000000E+00 -0.00000000000E+00 -0.63016683867E+03  0.63016683867E+03  0.00000000000E+00 0. -1.
          5    1    1    2  502    0  0.41790093649E+02  0.41972068697E+02 -0.90907895790E+02  0.10858077360E+03  0.41800000000E+01 0.  1.
         -5    1    1    2    0  502 -0.35086252098E+01 -0.62777592932E+02 -0.23300692325E+03  0.24137737116E+03  0.41800000000E+01 0.  1.
        -11    1    1    2    0    0 -0.61790170860E+02 -0.64504910212E+01 -0.21615750143E+03  0.22490820232E+03  0.00000000000E+00 0.  1.
         11    1    1    2    0    0  0.23508702421E+02  0.27256015256E+02 -0.68242230066E+02  0.77152779740E+02  0.00000000000E+00 0. -1.
</event>
<event>
 6    1  0.6597032E-006  0.1027899E+03  0.7561462E-02  0.1274536E+00
          3   -1    0    0  501    0  0.00000000000E+00  0.00000000000E+00  0.16877301215E+02  0.16877301215E+02  0.00000000000E+00 0. -1.
         -3   -1    0    0    0  501 -0.00000000000E+00 -0.00000000000E+00 -0.66000072780E+03  0.66000072780E+03  0.00000000000E+00 0.  1.
          5    1    1    2  502    0  0.63829435623E+02 -0.72361360876E+01 -0.18342720396E+03  0.19439539622E+03  0.41800000000E+01 0. -1.
         -5    1    1    2    0  502 -0.57416266701E+02  0.15226803964E+02 -0.23641405013E+03  0.24379819265E+03  0.41800000000E+01 0. -1.
        -11    1    1    2    0    0 -0.42817153939E+02  0.47700965089E+01 -0.87533696204E+02  0.97561316429E+02  0.00000000000E+00 0.  1.
         11    1    1    2    0    0  0.36403985017E+02 -0.12760764386E+02 -0.13574847629E+03  0.14112312371E+03  0.00000000000E+00 0. -1.
</event>
<event>
 6    1  0.6597032E-006  0.2228260E+03  0.7561462E-02  0.1131794E+00
         -2   -1    0    0    0  501 -0.00000000000E+00  0.00000000000E+00  0.66531325062E+02  0.66531325062E+02  0.00000000000E+00 0. -1.
          2   -1    0    0  501    0  0.00000000000E+00 -0.00000000000E+00 -0.85628538535E+03  0.85628538535E+03  0.00000000000E+00 0.  1.
          5    1    1    2  502    0 -0.22611449087E+00 -0.15019240568E+03 -0.16671034374E+03  0.22442731777E+03  0.41800000000E+01 0. -1.
         -5    1    1    2    0  502  0.65193832951E+02 -0.51015838940E+02 -0.20508209462E+03  0.22119898194E+03  0.41800000000E+01 0. -1.
        -11    1    1    2    0    0 -0.16823069346E+02  0.27324861091E+02 -0.14477580006E+02  0.35203181940E+02  0.00000000000E+00 0. -1.
         11    1    1    2    0    0 -0.48144649115E+02  0.17388338353E+03 -0.40348404192E+03  0.44198722876E+03  0.00000000000E+00 0.  1.
</event>
<event>
 6    1  0.6597032E-006  0.7668053E+02  0.7561462E-02  0.1338745E+00
          2   -1    0    0  501    0  0.00000000000E+00  0.00000000000E+00  0.28211416683E+03  0.28211416683E+03  0.00000000000E+00 0. -1.
         -2   -1    0    0    0  501 -0.00000000000E+00 -0.00000000000E+00 -0.40235360645E+02  0.40235360645E+02  0.00000000000E+00 0.  1.
          5    1    1    2  502    0  0.31188551137E+02  0.89969379986E+01 -0.83407102667E+01  0.33774405444E+02  0.41800000000E+01 0. -1.
         -5    1    1    2    0  502 -0.32942854267E+02 -0.13499953130E+02  0.15479554284E+03  0.15889182756E+03  0.41800000000E+01 0. -1.
        -11    1    1    2    0    0 -0.14894411511E+02  0.41567027817E+02  0.66436773077E+02  0.79771587127E+02  0.00000000000E+00 0. -1.
         11    1    1    2    0    0  0.16648714642E+02 -0.37064012686E+02  0.28987200542E+02  0.49911707352E+02  0.00000000000E+00 0.  1.
</event>
<event>
 6    1  0.6597032E-006  0.1891488E+03  0.7561462E-02  0.1159231E+00
          1   -1    0    0  501    0  0.00000000000E+00  0.00000000000E+00  0.49736092148E+03  0.49736092148E+03  0.00000000000E+00 0. -1.
         -1   -1    0    0    0  501 -0.00000000000E+00 -0.00000000000E+00 -0.76177525792E+02  0.76177525792E+02  0.00000000000E+00 0.  1.
          5    1    1    2  502    0  0.10504610465E+02  0.17026635074E+02  0.49165374165E+02  0.53244338288E+02  0.41800000000E+01 0. -1.
         -5    1    1    2    0  502 -0.12769499888E+03 -0.12489462359E+03  0.21195668288E+03  0.27721433505E+03  0.41800000000E+01 0. -1.
        -11    1    1    2    0    0  0.42258694507E+02 -0.62024303409E+01  0.60877551712E+02  0.74366280706E+02  0.00000000000E+00 0.  1.
         11    1    1    2    0    0  0.74931693902E+02  0.11407041885E+03  0.99183786932E+02  0.16871349323E+03  0.00000000000E+00 0. -1.
</event>
<event>
 6    1  0.6597032E-006  0.1585793E+03  0.7561462E-02  0.1190310E+00
         -2   -1    0    0    0  501 -0.00000000000E+00  0.00000000000E+00  0.52185845870E+02  0.52185845870E+02  0.00000000000E+00 0.  1.
          2   -1    0    0  501    0  0.00000000000E+00 -0.00000000000E+00 -0.60039774693E+03  0.60039774693E+03  0.00000000000E+00 0. -1.
          5    1    1    2  502    0  0.65778723651E+02 -0.12642853986E+03 -0.18323421287E+03  0.23217076763E+03  0.41800000000E+01 0.  1.
         -5    1    1    2    0  502  0.42315319005E+01  0.75611805460E+01 -0.14414407774E+03  0.14446475301E+03  0.41800000000E+01 0.  1.
        -11    1    1    2    0    0 -0.85801976246E+02  0.61781555166E+02 -0.15172222989E+03  0.18492856656E+03  0.00000000000E+00 0. -1.
         11    1    1    2    0    0  0.15791720694E+02  0.57085804148E+02 -0.69111380554E+02  0.91019505601E+02  0.00000000000E+00 0.  1.
</event>
<event>
 6    1  0.6597032E-006  0.1833934E+03  0.7561462E-02  0.1164559E+00
          1   -1    0    0  501    0  0.00000000000E+00  0.00000000000E+00  0.17101229889E+03  0.17101229889E+03  0.00000000000E+00 0. -1.
         -1   -1    0    0    0  501 -0.00000000000E+00 -0.00000000000E+00 -0.38069688402E+03  0.38069688402E+03  0.00000000000E+00 0.  1.
          5    1    1    2  502    0 -0.88353284787E+02  0.15032436949E+02 -0.20090175675E+02  0.91942181027E+02  0.41800000000E+01 0. -1.
         -5    1    1    2    0  502 -0.75426829431E+02  0.39201795024E+02 -0.24466269301E+03  0.25904303327E+03  0.41800000000E+01 0.  1.
        -11    1    1    2    0    0  0.17296017560E+03 -0.44532103333E+02  0.56415600975E+02  0.18729936093E+03  0.00000000000E+00 0. -1.
         11    1    1    2    0    0 -0.91800613855E+01 -0.97021286404E+01 -0.13473174138E+01  0.13424607682E+02  0.00000000000E+00 0.  1.
</event>
<event>
 6    1  0.6597032E-006  0.1184786E+03  0.7561462E-02  0.1245628E+00
         -2   -1    0    0    0  501 -0.00000000000E+00  0.00000000000E+00  0.64893053268E+02  0.64893053268E+02  0.00000000000E+00 0.  1.
          2   -1    0    0  501    0  0.00000000000E+00 -0.00000000000E+00 -0.38744081276E+03  0.38744081276E+03  0.00000000000E+00 0. -1.
          5    1    1    2  502    0 -0.87126204661E+02 -0.61705966699E+02 -0.12613736883E+02  0.10758801338E+03  0.41800000000E+01 0. -1.
         -5    1    1    2    0  502  0.20857281751E+02  0.79719318313E+01 -0.52554654165E+02  0.57254187389E+02  0.41800000000E+01 0. -1.
        -11    1    1    2    0    0  0.63324592338E+02  0.10654916588E+02 -0.22368938047E+03  0.23272402149E+03  0.00000000000E+00 0.  1.
         11    1    1    2    0    0  0.29443305731E+01  0.43079118280E+02 -0.33689987969E+02  0.54767643766E+02  0.00000000000E+00 0. -1.
</event>
<event>
 6    1  0.6597032E-006  0.1091640E+03  0.7561462E-02  0.1262126E+00
         -2   -1    0    0    0  501 -0.00000000000E+00  0.00000000000E+00  0.10835583077E+02  0.10835583077E+02  0.00000000000E+00 0. -1.
          2   -1    0    0  501    0  0.00000000000E+00 -0.00000000000E+00 -0.16290382775E+04  0.16290382775E+04  0.00000000000E+00 0.  1.
          5    1    1    2  502    0 -0.72947275704E+02 -0.16565707426E+01 -0.28807812704E+03  0.29720452376E+03  0.41800000000E+01 0.  1.
         -5    1    1    2    0  502 -0.12478106044E+01  0.38873442573E+02 -0.82823068040E+03  0.82915392656E+03  0.41800000000E+01 0.  1.
        -11    1    1    2    0    0  0.21481080105E+02 -0.47758603310E+02 -0.19298486046E+03  0.19996369011E+03  0.00000000000E+00 0.  1.
         11    1    1    2    0    0  0.52714006203E+02  0.10541731479E+02 -0.30890902653E+03  0.31355172018E+03  0.00000000000E+00 0. -1.
</event>
<event>
 6    1  0.6597032E-006  0.1323814E+03  0.7561462E-02  0.1223964E+00
         -1   -1    0    0    0  501 -0.00000000000E+00  0.00000000000E+00  0.40260535250E+02  0.40260535250E+02  0.00000000000E+00 0.  1.
          1   -1    0    0  501    0  0.00000000000E+00 -0.00000000000E+00 -0.60182209304E+03  0.60182209304E+03  0.00000000000E+00 0. -1.
          5    1    1    2  502    0 -0.67743044870E+02 -0.65535138077E+02 -0.12384012688E+03  0.15568501494E+03  0.41800000000E+01 0. -1.
         -5    1    1    2    0  502 -0.27448964572E+02  0.55653750241E+02 -0.60333764209E+02  0.86651145841E+02  0.41800000000E+01 0. -1.
        -11    1    1    2    0    0  0.54243825305E+02 -0.19693776299E+02 -0.31109849100E+03  0.31640560759E+03  0.00000000000E+00 0. -1.
         11    1    1    2    0    0  0.40948184138E+02  0.29575164135E+02 -0.66289175700E+02  0.83340859924E+02  0.00000000000E+00 0.  1.
</event>
<event>
 6    1  0.6597032E-006  0.2032863E+03  0.7561462E-02  0.1146996E+00
          1   -1    0    0  501    0  0.00000000000E+00  0.00000000000E+00  0.11486741743E+04  0.11486741743E+04  0.00000000000E+00 0. -1.
         -1   -1    0    0    0  501 -0.00000000000E+00 -0.00000000000E+00 -0.37427801548E+02  0.37427801548E+02  0.00000000000E+00 0.  1.
          5    1    1    2  502    0 -0.38933176870E+02  0.11426365343E+03  0.35114959519E+03  0.37134281380E+03  0.41800000000E+01 0. -1.
         -5    1    1    2    0  502 -0.93072450190E+02  0.27614857807E+01  0.19752147402E+03  0.21840858932E+03  0.41800000000E+01 0. -1.
        -11    1    1    2    0    0  0.14141143352E+03 -0.10023299400E+03  0.45165462988E+03  0.48377241685E+03  0.00000000000E+00 0.  1.
         11    1    1    2    0    0 -0.94058064574E+01 -0.16792145211E+02  0.11092067363E+03  0.11257815585E+03  0.00000000000E+00 0. -1.
</event>
<event>
 6    1  0.6597032E-006  0.9154299E+02  0.7561462E-02  0.1299158E+00
          4   -1    0    0  501    0  0.00000000000E+00  0.00000000000E+00  0.46528429746E+02  0.46528429746E+02  0.00000000000E+00 0. -1.
         -4   -1    0    0    0  501 -0.00000000000E+00 -0.00000000000E+00 -0.37650539030E+03  0.37650539030E+03  0.00000000000E+00 0.  1.
          5    1    1    2  502    0  0.45737614718E+02 -0.33519635527E+01 -0.21835113060E+03  0.22315432708E+03  0.41800000000E+01 0. -1.
         -5    1    1    2    0  502  0.17253431655E+02  0.37458041475E+02 -0.37466485987E+01  0.41620854757E+02  0.41800000000E+01 0. -1.
        -11    1    1    2    0    0 -0.58407066957E+02  0.27229573379E+01 -0.10604949085E+03  0.12110034879E+03  0.00000000000E+00 0.  1.
         11    1    1    2    0    0 -0.45839794165E+01 -0.36829035260E+02 -0.18296905061E+01  0.37158289423E+02  0.00000000000E+00 0. -1.
</event>
<event>
 6    1  0.6597032E-006  0.1664974E+03  0.7561462E-02  0.1181550E+00
         -1   -1    0    0    0  501 -0.00000000000E+00  0.00000000000E+00  0.61292360010E+02  0.61292360010E+02  0.00000000000E+00 0.  1.
          1   -1    0    0  501    0  0.00000000000E+00 -0.00000000000E+00 -0.57200722698E+03  0.57200722698E+03  0.00000000000E+00 0. -1.
          5    1    1    2  502    0  0.27422498085E+02 -0.14176076065E+03 -0.15001567770E+03  0.20825533035E+03  0.41800000000E+01 0. -1.
         -5    1    1    2    0  502 -0.42132758397E+02  0.10963743064E+01 -0.24924010115E+02  0.49143158699E+02  0.41800000000E+01 0. -1.
        -11    1    1    2    0    0  0.22956998768E+02  0.48495861118E+02 -0.22621428190E+03  0.23249037329E+03  0.00000000000E+00 0. -1.
         11    1    1    2    0    0 -0.82467384565E+01  0.92168525227E+02 -0.10956089725E+03  0.14341072465E+03  0.00000000000E+00 0.  1.
</event>
<event>
 6    1  0.6597032E-006  0.2961559E+03  0.7561462E-02  0.1087178E+00
          1   -1    0    0  501    0  0.00000000000E+00  0.00000000000E+00  0.55621966870E+03  0.55621966870E+03  0.00000000000E+00 0. -1.
         -1   -1    0    0    0  501 -0.00000000000E+00 -0.00000000000E+00 -0.19996467193E+03  0.19996467193E+03  0.00000000000E+00 0.  1.
          5    1    1    2  502    0 -0.19019794778E+03 -0.53035066546E+02  0.69948863976E+01  0.19762180663E+03  0.41800000000E+01 0. -1.
         -5    1    1    2    0  502 -0.88863636038E+02  0.61874229619E+02  0.90787896972E+01  0.10874310518E+03  0.41800000000E+01 0. -1.
        -11    1    1    2    0    0  0.27381123294E+03  0.26437883570E+01  0.34080046161E+03  0.43717792206E+03  0.00000000000E+00 0.  1.
         11    1    1    2    0    0  0.52503508764E+01 -0.11482951429E+02 -0.61914093486E+00  0.12641506767E+02  0.00000000000E+00 0. -1.
</event>
<event>
 6    1  0.6597032E-006  0.8998327E+02  0.7561462E-02  0.1302892E+00
         -1   -1    0    0    0  501 -0.00000000000E+00  0.00000000000E+00  0.23916337908E+02  0.23916337908E+02  0.00000000000E+00 0.  1.
          1   -1    0    0  501    0  0.00000000000E+00 -0.00000000000E+00 -0.54794097264E+03  0.54794097264E+03  0.00000000000E+00 0. -1.
          5    1    1    2  502    0 -0.36169536259E+02  0.15063513839E+02 -0.14735982944E+03  0.15253700055E+03  0.41800000000E+01 0. -1.
         -5    1    1    2    0  502  0.35641718261E+02 -0.36311179023E+02 -0.29028154853E+02  0.58727676413E+02  0.41800000000E+01 0.  1.
        -11    1    1    2    0    0  0.36825801058E+02 -0.13538752327E+02 -0.91323658047E+02  0.99395412154E+02  0.00000000000E+00 0.  1.
         11    1    1    2    0    0 -0.36297983060E+02  0.34786417511E+02 -0.25631299239E+03  0.26119722143E+03  0.00000000000E+00 0. -1.
</event>
<event>
 6    1  0.6597032E-006  0.1740993E+03  0.7561462E-02  0.1173639E+00
         -2   -1    0    0    0  501 -0.00000000000E+00  0.00000000000E+00  0.54782561786E+02  0.54782561786E+02  0.00000000000E+00 0.  1.
          2   -1    0    0  501    0  0.00000000000E+00 -0.00000000000E+00 -0.74189480639E+03  0.74189480639E+03  0.00000000000E+00 0. -1.
          5    1    1    2  502    0 -0.12990958143E+03 -0.40588129247E+02 -0.20629363837E+03  0.24718097260E+03  0.41800000000E+01 0. -1.
         -5    1    1    2    0  502  0.17548364048E+01 -0.44171487684E+02 -0.88110235647E+01  0.45269264532E+02  0.41800000000E+01 0. -1.
        -11    1    1    2    0    0  0.19598672144E+02 -0.11343527363E+02 -0.22523402451E+02  0.31938804311E+02  0.00000000000E+00 0.  1.
         11    1    1    2    0    0  0.10855607288E+03  0.96103144295E+02 -0.44948418022E+03  0.47228832673E+03  0.00000000000E+00 0. -1.
</event>
<event>
 6    1  0.6597032E-006  0.7700277E+02  0.7561462E-02  0.1337779E+00
         -1   -1    0    0    0  501 -0.00000000000E+00  0.00000000000E+00  0.69436513394E+03  0.69436513394E+03  0.00000000000E+00 0.  1.
          1   -1    0    0  501    0  0.00000000000E+00 -0.00000000000E+00 -0.19909649227E+02  0.19909649227E+02  0.00000000000E+00 0. -1.
          5    1    1    2  502    0 -0.32420062017E+02  0.30693458304E+02  0.47856326280E+03  0.48065935724E+03  0.41800000000E+01 0. -1.
         -5    1    1    2    0  502  0.13240542096E+02  0.11385809842E+01 -0.14227381651E+01  0.14003746126E+02  0.41800000000E+01 0. -1.
        -11    1    1    2    0    0 -0.33863596485E+02 -0.99371067383E+00  0.54455471169E+02  0.64133680449E+02  0.00000000000E+00 0.  1.
         11    1    1    2    0    0  0.53043116405E+02 -0.30838328614E+02  0.14285948890E+03  0.15547799934E+03  0.00000000000E+00 0. -1.
</event>
<event>
 6    1  0.6597032E-006  0.1119044E+03  0.7561462E-02  0.1257083E+00
         -2   -1    0    0    0  501 -0.00000000000E+00  0.00000000000E+00  0.70081925599E+02  0.70081925599E+02  0.00000000000E+00 0. -1.
          2   -1    0    0  501    0  0.00000000000E+00 -0.00000000000E+00 -0.28173822851E+03  0.28173822851E+03  0.00000000000E+00 0.  1.
          5    1    1    2  502    0  0.60156110580E+02  0.53998256144E+02  0.92828533264E+01  0.81475229810E+02  0.41800000000E+01 0.  1.
         -5    1    1    2    0  502 -0.40721830513E+02 -0.16778765450E+02 -0.26557913272E+02  0.51600286896E+02  0.41800000000E+01 0.  1.
        -11    1    1    2    0    0  0.30515991276E+02 -0.37912426214E+02 -0.11602464473E+03  0.12581850409E+03  0.00000000000E+00 0. -1.
         11    1    1    2    0    0 -0.49950271343E+02  0.69293552058E+00 -0.78356598229E+02  0.92926133315E+02  0.00000000000E+00 0.  1.
</event>
<event>
 6    1  0.6597032E-006  0.1151983E+03  0.7561462E-02  0.1251235E+00
         -1   -1    0    0    0  501 -0.00000000000E+00  0.00000000000E+00  0.25286769881E+03  0.25286769881E+03  0.00000000000E+00 0.  1.
          1   -1    0    0  501    0  0.00000000000E+00 -0.00000000000E+00 -0.86798957915E+02  0.86798957915E+02  0.00000000000E+00 0. -1.
          5    1    1    2  502    0  0.90240433750E+02  0.22062489831E+02  0.11648121443E+03  0.14904843191E+03  0.41800000000E+01 0.  1.
         -5    1    1    2    0  502 -0.34513735997E+02 -0.25401712670E+02  0.73110063547E+02  0.84846913738E+02  0.41800000000E+01 0.  1.
        -11    1    1    2    0    0 -0.22757019847E+02 -0.36266067278E+02 -0.32123763335E+02  0.53526122211E+02  0.00000000000E+00 0.  1.
         11    1    1    2    0    0 -0.32969677906E+02  0.39605290117E+02  0.86012262554E+01  0.52245188866E+02  0.00000000000E+00 0. -1.
</event>
<event>
 6    1  0.6597032E-006  0.2936204E+03  0.7561462E-02  0.1088474E+00
          1   -1    0    0  501    0  0.00000000000E+00  0.00000000000E+00  0.11476660786E+04  0.11476660786E+04  0.00000000000E+00 0. -1.
         -1   -1    0    0    0  501 -0.00000000000E+00 -0.00000000000E+00 -0.89350005292E+02  0.89350005292E+02  0.00000000000E+00 0.  1.
          5    1    1    2  502    0 -0.18701553301E+03 -0.30509977208E+02  0.19029611592E+03  0.26858099789E+03  0.41800000000E+01 0.  1.
         -5    1    1    2    0  502 -0.85745219151E+02  0.74632243371E+02  0.11764399437E+03  0.16364533653E+03  0.41800000000E+01 0.  1.
        -11    1    1    2    0    0  0.10087863441E+03  0.15421178901E+02  0.19060917938E+03  0.21620862819E+03  0.00000000000E+00 0.  1.
         11    1    1    2    0    0  0.17188211775E+03 -0.59543445064E+02  0.55976678362E+03  0.58858112126E+03  0.00000000000E+00 0. -1.
</event>
<event>
 6    1  0.6597032E-006  0.9393325E+02  0.7561462E-02  0.1293597E+00
         -1   -1    0    0    0  501 -0.00000000000E+00  0.00000000000E+00  0.88492852696E+02  0.88492852696E+02  0.00000000000E+00 0.  1.
          1   -1    0    0  501    0  0.00000000000E+00 -0.00000000000E+00 -0.17590264569E+03  0.17590264569E+03  0.00000000000E+00 0. -1.
          5    1    1    2  502    0 -0.33269806127E+02 -0.27304882664E+02 -0.18930815414E+02  0.47204711515E+02  0.41800000000E+01 0.  1.
         -5    1    1    2    0  502  0.57107407785E+02  0.56126018357E+02  0.23037277672E+02  0.83424064412E+02  0.41800000000E+01 0.  1.
        -11    1    1    2    0    0 -0.29207088204E+02  0.54870777287E+01  0.59423011114E+01  0.30306318910E+02  0.00000000000E+00 0.  1.
         11    1    1    2    0    0  0.53694865460E+01 -0.34308213422E+02 -0.97458556361E+02  0.10346040355E+03  0.00000000000E+00 0. -1.
</event>
<event>
 6    1  0.1555229E-005  0.1672893E+03  0.7561462E-02  0.1180705E+00
         -1   -1    0    0    0  501 -0.00000000000E+00  0.00000000000E+00  0.30762721577E+02  0.30762721577E+02  0.00000000000E+00 0.  1.
          1   -1    0    0  501    0  0.00000000000E+00 -0.00000000000E+00 -0.10751944760E+04  0.10751944760E+04  0.00000000000E+00 0. -1.
          5    1    1    2  502    0 -0.35776413914E+02  0.70830239365E+02 -0.14132659730E+03  0.16213437052E+03  0.41800000000E+01 0.  1.
         -5    1    1    2    0  502  0.55095268279E+02  0.72209701864E+02 -0.45633848715E+03  0.46530851796E+03  0.41800000000E+01 0.  1.
        -11    1    1    2    0    0 -0.49453007411E+02 -0.75767698067E+02 -0.31261130741E+03  0.32544150555E+03  0.00000000000E+00 0. -1.
         11    1    1    2    0    0  0.30134153045E+02 -0.67272243162E+02 -0.13415536253E+03  0.15307280351E+03  0.00000000000E+00 0.  1.
</event>
<event>
 6    1  0.6597032E-006  0.2529210E+03  0.7561462E-02  0.1111473E+00
         -1   -1    0    0    0  501 -0.00000000000E+00  0.00000000000E+00  0.91245491610E+02  0.91245491610E+02  0.00000000000E+00 0.  1.
          1   -1    0    0  501    0  0.00000000000E+00 -0.00000000000E+00 -0.10473281715E+04  0.10473281715E+04  0.00000000000E+00 0. -1.
          5    1    1    2  502    0 -0.15589162588E+02 -0.19570387081E+03 -0.88381953744E+02  0.21534128538E+03  0.41800000000E+01 0. -1.
         -5    1    1    2    0  502 -0.81015123456E+01 -0.50457093770E+02 -0.12283348945E+03  0.13310556467E+03  0.41800000000E+01 0. -1.
        -11    1    1    2    0    0 -0.16999434495E+02  0.17805212031E+03 -0.58371159891E+03  0.61050042508E+03  0.00000000000E+00 0. -1.
         11    1    1    2    0    0  0.40690109428E+02  0.68108844268E+02 -0.16115563781E+03  0.17962638801E+03  0.00000000000E+00 0.  1.
</event>
<event>
 6    1  0.6597032E-006  0.1563785E+03  0.7561462E-02  0.1192847E+00
          1   -1    0    0  501    0  0.00000000000E+00  0.00000000000E+00  0.10268783936E+03  0.10268783936E+03  0.00000000000E+00 0. -1.
         -1   -1    0    0    0  501 -0.00000000000E+00 -0.00000000000E+00 -0.29245421330E+03  0.29245421330E+03  0.00000000000E+00 0.  1.
          5    1    1    2  502    0  0.66476655729E+02 -0.83415653300E+02 -0.68188458744E+02  0.12666670943E+03  0.41800000000E+01 0. -1.
         -5    1    1    2    0  502 -0.56679247422E+02 -0.47651019047E+02 -0.61749375147E+02  0.96507069355E+02  0.41800000000E+01 0. -1.
        -11    1    1    2    0    0 -0.30711244880E+01  0.10047480310E+03 -0.85112190620E+02  0.13171447474E+03  0.00000000000E+00 0.  1.
         11    1    1    2    0    0 -0.67262838185E+01  0.30591869247E+02  0.25283650576E+02  0.40253799131E+02  0.00000000000E+00 0. -1.
</event>
<event>
 6    1  0.6597032E-006  0.2202880E+03  0.7561462E-02  0.1133668E+00
         -1   -1    0    0    0  501 -0.00000000000E+00  0.00000000000E+00  0.25083849691E+03  0.25083849691E+03  0.00000000000E+00 0.  1.
          1   -1    0    0  501    0  0.00000000000E+00 -0.00000000000E+00 -0.24536443026E+03  0.24536443026E+03  0.00000000000E+00 0. -1.
          5    1    1    2  502    0 -0.48819239379E+01 -0.16590902416E+03 -0.23218758962E+02  0.16764909975E+03  0.41800000000E+01 0.  1.
         -5    1    1    2    0  502 -0.12900405573E+02 -0.52556281661E+02  0.70735287900E+02  0.89160173621E+02  0.41800000000E+01 0.  1.
        -11    1    1    2    0    0  0.20905677220E+02  0.12413795216E+03  0.18539529218E+02  0.12724383148E+03  0.00000000000E+00 0.  1.
         11    1    1    2    0    0 -0.31233477086E+01  0.94327353661E+02 -0.60581991502E+02  0.11214982231E+03  0.00000000000E+00 0. -1.
</event>
<event>
 6    1  0.6597032E-006  0.1117871E+03  0.7561462E-02  0.1257296E+00
          1   -1    0    0  501    0  0.00000000000E+00  0.00000000000E+00  0.83590537024E+02  0.83590537024E+02  0.00000000000E+00 0. -1.
         -1   -1    0    0    0  501 -0.00000000000E+00 -0.00000000000E+00 -0.22394780856E+03  0.22394780856E+03  0.00000000000E+00 0.  1.
          5    1    1    2  502    0  0.17345807286E+02  0.17040767694E+02  0.89951237555E+01  0.26261177532E+02  0.41800000000E+01 0.  1.
         -5    1    1    2    0  502 -0.68723227228E+02 -0.51950044341E+02 -0.14479029543E+03  0.16853305646E+03  0.41800000000E+01 0.  1.
        -11    1    1    2    0    0  0.46600968656E+02 -0.24773988888E+02 -0.19271438507E+01  0.52812069534E+02  0.00000000000E+00 0. -1.
         11    1    1    2    0    0  0.47764512854E+01  0.59683265535E+02 -0.26349560039E+01  0.59932042056E+02  0.00000000000E+00 0.  1.
</event>
<event>
 6    1  0.6597032E-006  0.1499629E+03  0.7561462E-02  0.1200519E+00
          1   -1    0    0  501    0  0.00000000000E+00  0.00000000000E+00  0.98439779101E+03  0.98439779101E+03  0.00000000000E+00 0. -1.
         -1   -1    0    0    0  501 -0.00000000000E+00 -0.00000000000E+00 -0.28880106958E+02  0.28880106958E+02  0.00000000000E+00 0.  1.
          5    1    1    2  502    0 -0.15337941547E+02 -0.40646078937E+02  0.84515587377E+02  0.95119467479E+02  0.41800000000E+01 0. -1.
         -5    1    1    2    0  502  0.11606135482E+03  0.20307807517E+02  0.19304227313E+03  0.22619778236E+03  0.41800000000E+01 0. -1.
        -11    1    1    2    0    0 -0.99292178137E+02  0.48277512783E+02  0.55162566629E+03  0.56256602332E+03  0.00000000000E+00 0. -1.
         11    1    1    2    0    0 -0.14312351336E+01 -0.27939241363E+02  0.12633415725E+03  0.12939462481E+03  0.00000000000E+00 0.  1.
</event>
<event>
 6    1  0.6597032E-006  0.1051428E+03  0.7561462E-02  0.1269839E+00
          1   -1    0    0  501    0  0.00000000000E+00  0.00000000000E+00  0.49377171704E+03  0.49377171704E+03  0.00000000000E+00 0. -1.
         -1   -1    0    0    0  501 -0.00000000000E+00 -0.00000000000E+00 -0.41716716011E+02  0.41716716011E+02  0.00000000000E+00 0.  1.
          5    1    1    2  502    0  0.58972465403E+02 -0.23503460310E+00  0.17346639372E+02  0.61613190264E+02  0.41800000000E+01 0. -1.
         -5    1    1    2    0  502 -0.16542997405E+02 -0.54330167114E+02  0.13898703325E+03  0.15020088426E+03  0.41800000000E+01 0. -1.
        -11    1    1    2    0    0 -0.70985997411E+01  0.58263355611E+02  0.27771099405E+03  0.28384574146E+03  0.00000000000E+00 0. -1.
         11    1    1    2    0    0 -0.35330868258E+02 -0.36981538933E+01  0.18010334356E+02  0.39828617069E+02  0.00000000000E+00 0.  1.
</event>
<event>
 6    1  0.6597032E-006  0.1662052E+03  0.7561462E-02  0.1181864E+00
          1   -1    0    0  501    0  0.00000000000E+00  0.00000000000E+00  0.61062705440E+02  0.61062705440E+02  0.00000000000E+00 0. -1.
         -1   -1    0    0    0  501 -0.00000000000E+00 -0.00000000000E+00 -0.52279742711E+03  0.52279742711E+03  0.00000000000E+00 0.  1.
          5    1    1    2  502    0 -0.85249095161E+02  0.53698840683E+02 -0.13886290218E+03  0.17161396132E+03  0.41800000000E+01 0. -1.
         -5    1    1    2    0  502  0.36405589264E+02  0.80337745780E+02 -0.99155805592E+02  0.13277374179E+03  0.41800000000E+01 0. -1.
        -11    1    1    2    0    0  0.17764341794E+02 -0.31926121952E+02 -0.60335329781E+01  0.37030428332E+02  0.00000000000E+00 0. -1.
         11    1    1    2    0    0  0.31079164103E+02 -0.10211046451E+03 -0.21768248092E+03  0.24244200111E+03  0.00000000000E+00 0.  1.
</event>
<event>
 6    1  0.6597032E-006  0.1382184E+03  0.7561462E-02  0.1215747E+00
          2   -1    0    0  501    0  0.00000000000E+00  0.00000000000E+00  0.12039798571E+03  0.12039798571E+03  0.00000000000E+00 0. -1.
         -2   -1    0    0    0  501 -0.00000000000E+00 -0.00000000000E+00 -0.17362529159E+03  0.17362529159E+03  0.00000000000E+00 0.  1.
          5    1    1    2  502    0  0.94694698202E+02 -0.42778040489E+02 -0.27661430014E+02  0.10760889241E+03  0.41800000000E+01 0. -1.
         -5    1    1    2    0  502  0.36283953182E+00  0.50635491986E+02  0.60777664876E+01  0.51171245311E+02  0.41800000000E+01 0. -1.
        -11    1    1    2    0    0  0.55075296241E+01 -0.19625479841E+02 -0.27073165571E+02  0.33888768575E+02  0.00000000000E+00 0.  1.
         11    1    1    2    0    0 -0.10056506736E+03  0.11768028344E+02 -0.45704767815E+01  0.10135437100E+03  0.00000000000E+00 0. -1.
</event>
<event>
 6    1  0.6597032E-006  0.8877143E+02  0.7561462E-02  0.1305854E+00
         -2   -1    0    0    0  501 -0.00000000000E+00  0.00000000000E+00  0.44568607706E+02  0.44568607706E+02  0.00000000000E+00 0.  1.
          2   -1    0    0  501    0  0.00000000000E+00 -0.00000000000E+00 -0.33111128943E+03  0.33111128943E+03  0.00000000000E+00 0. -1.
          5    1    1    2  502    0 -0.27665226001E+02  0.35006601858E+02 -0.85320473765E+02  0.96373661064E+02  0.41800000000E+01 0. -1.
         -5    1    1    2    0  502  0.93302296216E+01 -0.76809400134E+02 -0.22994265268E+02  0.80826640218E+02  0.41800000000E+01 0.  1.
        -11    1    1    2    0    0 -0.87406680127E+00  0.34777595883E+02 -0.17419185654E+03  0.17763177658E+03  0.00000000000E+00 0. -1.
         11    1    1    2    0    0  0.19209063180E+02  0.70252023938E+01 -0.40360861547E+01  0.20847819272E+02  0.00000000000E+00 0.  1.
</event>
<event>
 6    1  0.6597032E-006  0.1866406E+03  0.7561462E-02  0.1161527E+00
          1   -1    0    0  501    0  0.00000000000E+00  0.00000000000E+00  0.79756235576E+02  0.79756235576E+02  0.00000000000E+00 0. -1.
         -1   -1    0    0    0  501 -0.00000000000E+00 -0.00000000000E+00 -0.12756615706E+04  0.12756615706E+04  0.00000000000E+00 0.  1.
          5    1    1    2  502    0 -0.30443434397E+02  0.17071138623E+02 -0.80359475757E+02  0.87711710824E+02  0.41800000000E+01 0. -1.
         -5    1    1    2    0  502  0.11612843072E+03 -0.12737713114E+03 -0.10851224447E+04  0.10987351539E+04  0.41800000000E+01 0.  1.
        -11    1    1    2    0    0 -0.37587412457E+02  0.11143047428E+03 -0.15606126092E+02  0.11863016204E+03  0.00000000000E+00 0. -1.
         11    1    1    2    0    0 -0.48097583867E+02 -0.11244817634E+01 -0.14817288420E+02  0.50340779386E+02  0.00000000000E+00 0.  1.
</event>
<event>
 6    1  0.6597032E-006  0.1369030E+03  0.7561462E-02  0.1217558E+00
          1   -1    0    0  501    0  0.00000000000E+00  0.00000000000E+00  0.93007165863E+03  0.93007165863E+03  0.00000000000E+00 0. -1.
         -1   -1    0    0    0  501 -0.00000000000E+00 -0.00000000000E+00 -0.21388517941E+02  0.21388517941E+02  0.00000000000E+00 0.  1.
          5    1    1    2  502    0 -0.45520700728E+02 -0.29829192901E+01  0.17214438164E+03  0.17813532084E+03  0.41800000000E+01 0. -1.
         -5    1    1    2    0  502  0.53742696314E+02  0.92982447947E+02  0.30982405124E+03  0.32793662217E+03  0.41800000000E+01 0. -1.
        -11    1    1    2    0    0  0.34535500291E+02 -0.56423919945E+02  0.15906613421E+03  0.17227418429E+03  0.00000000000E+00 0.  1.
         11    1    1    2    0    0 -0.42757495876E+02 -0.33575608712E+02  0.26764857359E+03  0.27311404926E+03  0.00000000000E+00 0. -1.
</event>
<event>
 6    1  0.6597032E-006  0.1258238E+03  0.7561462E-02  0.1233787E+00
          1   -1    0    0  501    0  0.00000000000E+00  0.00000000000E+00  0.34163685910E+02  0.34163685910E+02  0.00000000000E+00 0. -1.
         -1   -1    0    0    0  501 -0.00000000000E+00 -0.00000000000E+00 -0.64355692068E+03  0.64355692068E+03  0.00000000000E+00 0.  1.
          5    1    1    2  502    0  0.47162345141E+02  0.91996821082E+01 -0.38135076302E+02  0.61487213261E+02  0.41800000000E+01 0.  1.
         -5    1    1    2    0  502 -0.23703362270E+02  0.90172935117E+02 -0.28238762583E+03  0.29741091311E+03  0.41800000000E+01 0.  1.
        -11    1    1    2    0    0  0.17535728143E+01 -0.74991459399E+02 -0.26734876461E+03  0.27767274972E+03  0.00000000000E+00 0.  1.
         11    1    1    2    0    0 -0.25212555685E+02 -0.24381157826E+02 -0.21521768022E+02  0.41149730496E+02  0.00000000000E+00 0. -1.
</event>
<event>
 6    1  0.6597032E-006  0.1370736E+03  0.7561462E-02  0.1217322E+00
         -2   -1    0    0    0  501 -0.00000000000E+00  0.00000000000E+00  0.46233281028E+02  0.46233281028E+02  0.00000000000E+00 0.  1.
          2   -1    0    0  501    0  0.00000000000E+00 -0.00000000000E+00 -0.49247807541E+03  0.49247807541E+03  0.00000000000E+00 0. -1.
          5    1    1    2  502    0 -0.65179322955E+02 -0.37575194097E+02 -0.14017758013E+03  0.15914605155E+03  0.41800000000E+01 0.  1.
         -5    1    1    2    0  502 -0.25566858968E+02  0.59714946864E+02 -0.29614435755E+02  0.71512421029E+02  0.41800000000E+01 0.  1.
        -11    1    1    2    0    0  0.23488177626E+02  0.37210889541E+02 -0.66497399694E+02  0.79738628999E+02  0.00000000000E+00 0.  1.
         11    1    1    2    0    0  0.67258004297E+02 -0.59350642308E+02 -0.20995537880E+03  0.22831425486E+03  0.00000000000E+00 0. -1.
</event>
<event>
 6    1  0.6597032E-006  0.7901756E+02  0.7561462E-02  0.1331863E+00
         -2   -1    0    0    0  501 -0.00000000000E+00  0.00000000000E+00  0.10325587365E+03  0.10325587365E+03  0.00000000000E+00 0. -1.
          2   -1    0    0  501    0  0.00000000000E+00 -0.00000000000E+00 -0.16365697862E+03  0.16365697862E+03  0.00000000000E+00 0.  1.
          5    1    1    2  502    0 -0.45420848366E+02 -0.37099224565E+02  0.37462815654E+02  0.69716145091E+02  0.41800000000E+01 0.  1.
         -5    1    1    2    0  502  0.18479054215E+02  0.60421242794E+02 -0.74668891108E+01  0.63760715636E+02  0.41800000000E+01 0.  1.
        -11    1    1    2    0    0  0.18234375740E+02 -0.12894769628E+02 -0.10851579946E+03  0.11079010008E+03  0.00000000000E+00 0.  1.
         11    1    1    2    0    0  0.87074184105E+01 -0.10427248600E+02  0.18118767947E+02  0.22645891474E+02  0.00000000000E+00 0. -1.
</event>
<event>
 6    1  0.6597032E-006  0.2139962E+03  0.7561462E-02  0.1138440E+00
         -1   -1    0    0    0  501 -0.00000000000E+00  0.00000000000E+00  0.60284388483E+03  0.60284388483E+03  0.00000000000E+00 0.  1.
          1   -1    0    0  501    0  0.00000000000E+00 -0.00000000000E+00 -0.78407144713E+02  0.78407144713E+02  0.00000000000E+00 0. -1.
          5    1    1    2  502    0  0.41043786869E+02  0.17510714515E+03  0.25592033804E+03  0.31282550495E+03  0.41800000000E+01 0. -1.
         -5    1    1    2    0  502 -0.39780554226E+02  0.11175625691E+02  0.33299182667E+02  0.53232462562E+02  0.41800000000E+01 0. -1.
        -11    1    1    2    0    0  0.36083249367E+02 -0.15075642849E+03  0.19874403525E+03  0.25204898961E+03  0.00000000000E+00 0. -1.
         11    1    1    2    0    0 -0.37346482009E+02 -0.35526342349E+02  0.36473184158E+02  0.63144072420E+02  0.00000000000E+00 0.  1.
</event>
<event>
 6    1  0.6597032E-006  0.1008195E+03  0.7561462E-02  0.1278582E+00
          2   -1    0    0  501    0  0.00000000000E+00  0.00000000000E+00  0.37894491903E+03  0.37894491903E+03  0.00000000000E+00 0. -1.
         -2   -1    0    0    0  501 -0.00000000000E+00 -0.00000000000E+00 -0.35916108695E+02  0.35916108695E+02  0.00000000000E+00 0.  1.
          5    1    1    2  502    0 -0.35403420084E+02  0.24991774120E+02  0.92721545223E+02  0.10243411676E+03  0.41800000000E+01 0.  1.
         -5    1    1    2    0  502  0.74823051231E+02 -0.29518688829E+02  0.70825053845E+02  0.10725438284E+03  0.41800000000E+01 0.  1.
        -11    1    1    2    0    0 -0.35469953900E+02  0.33218380610E+02  0.16647645509E+03  0.17342430204E+03  0.00000000000E+00 0.  1.
         11    1    1    2    0    0 -0.39496772468E+01 -0.28691465900E+02  0.13005756175E+02  0.31748226085E+02  0.00000000000E+00 0. -1.
</event>
<event>
 6    1  0.6597032E-006  0.1399566E+03  0.7561462E-02  0.1213387E+00
          1   -1    0    0  501    0  0.00000000000E+00  0.00000000000E+00  0.47242850065E+03  0.47242850065E+03  0.00000000000E+00 0. -1.
         -1   -1    0    0    0  501 -0.00000000000E+00 -0.00000000000E+00 -0.57297828684E+02  0.57297828684E+02  0.00000000000E+00 0.  1.
          5    1    1    2  502    0  0.96312856715E+00 -0.23540532369E+02  0.65544759505E+02  0.69775871040E+02  0.41800000000E+01 0.  1.
         -5    1    1    2    0  502 -0.90608234602E+02  0.78795759500E+02  0.48441267314E+02  0.12954787791E+03  0.41800000000E+01 0.  1.
        -11    1    1    2    0    0  0.65679919323E+02  0.98908921606E+01  0.15353362648E+03  0.16728495453E+03  0.00000000000E+00 0. -1.
         11    1    1    2    0    0  0.23965186712E+02 -0.65146119292E+02  0.14761101867E+03  0.16311762586E+03  0.00000000000E+00 0.  1.
</event>
<event>
 6    1  0.6597032E-006  0.1344059E+03  0.7561462E-02  0.1221061E+00
         -1   -1    0    0    0  501 -0.00000000000E+00  0.00000000000E+00  0.45633878196E+03  0.45633878196E+03  0.00000000000E+00 0.  1.
          1   -1    0    0  501    0  0.00000000000E+00 -0.00000000000E+00 -0.45144545609E+02  0.45144545609E+02  0.00000000000E+00 0. -1.
          5    1    1    2  502    0  0.10949611638E+02  0.67193894848E+02  0.10421696150E+03  0.12455344622E+03  0.41800000000E+01 0. -1.
         -5    1    1    2    0  502 -0.76234108689E+02 -0.16821168651E+02  0.19457987535E+03  0.20969833412E+03  0.41800000000E+01 0. -1.
        -11    1    1    2    0    0  0.19248933744E+02  0.26540467196E+02  0.19535968862E+02  0.38165061622E+02  0.00000000000E+00 0.  1.
         11    1    1    2    0    0  0.46035563307E+02 -0.76913193393E+02  0.92861430630E+02  0.12906648560E+03  0.00000000000E+00 0. -1.
</event>
<event>
 6    1  0.6597032E-006  0.1411789E+03  0.7561462E-02  0.1211751E+00
         -2   -1    0    0    0  501 -0.00000000000E+00  0.00000000000E+00  0.75346426305E+03  0.75346426305E+03  0.00000000000E+00 0.  1.
          2   -1    0    0  501    0  0.00000000000E+00 -0.00000000000E+00 -0.29209277939E+02  0.29209277939E+02  0.00000000000E+00 0. -1.
          5    1    1    2  502    0 -0.10303684443E+03  0.50149656111E+02  0.27643641842E+03  0.29927603503E+03  0.41800000000E+01 0.  1.
         -5    1    1    2    0  502  0.24137288872E+01 -0.45539735014E+02  0.99794465888E+02  0.10980027948E+03  0.41800000000E+01 0.  1.
        -11    1    1    2    0    0  0.15737973721E+02  0.27051193328E+02  0.18003917414E+03  0.18273903552E+03  0.00000000000E+00 0.  1.
         11    1    1    2    0    0  0.84885141819E+02 -0.31661114424E+02  0.16798492666E+03  0.19085819095E+03  0.00000000000E+00 0. -1.
</event>
<event>
 6    1  0.6597032E-006  0.2275084E+03  0.7561462E-02  0.1128406E+00
          2   -1    0    0  501    0  0.00000000000E+00  0.00000000000E+00  0.43395192022E+03  0.43395192022E+03  0.00000000000E+00 0.  1.
         -2   -1    0    0    0  501 -0.00000000000E+00 -0.00000000000E+00 -0.12893631313E+03  0.12893631313E+03  0.00000000000E+00 0. -1.
          5    1    1    2  502    0 -0.50400672774E+02  0.16626158101E+03  0.15092845304E+03  0.23017387226E+03  0.41800000000E+01 0.  1.
         -5    1    1    2    0  502  0.53771861559E+02  0.40905151900E+02  0.45903614728E+02  0.81787889034E+02  0.41800000000E+01 0.  1.
        -11    1    1    2    0    0 -0.19308935668E+02 -0.18623612821E+03  0.61028850513E+02  0.19692955858E+03  0.00000000000E+00 0.  1.
         11    1    1    2    0    0  0.15937746882E+02 -0.20930604693E+02  0.47154688799E+02  0.53996913470E+02  0.00000000000E+00 0. -1.
</event>
<event>
 6    1  0.6597032E-006  0.7069128E+02  0.7561462E-02  0.1357758E+00
         -2   -1    0    0    0  501 -0.00000000000E+00  0.00000000000E+00  0.14544352630E+03  0.14544352630E+03  0.00000000000E+00 0.  1.
          2   -1    0    0  501    0  0.00000000000E+00 -0.00000000000E+00 -0.80503440841E+02  0.80503440841E+02  0.00000000000E+00 0. -1.
          5    1    1    2  502    0 -0.39083557017E+01 -0.29157345140E+02 -0.35585883880E+02  0.46360042616E+02  0.41800000000E+01 0.  1.
         -5    1    1    2    0  502 -0.13200986810E+02  0.20251614191E+02  0.86761732123E+02  0.90163543026E+02  0.41800000000E+01 0.  1.
        -11    1    1    2    0    0 -0.23620169117E+02  0.32415492798E+02  0.13737499747E+02  0.42395700982E+02  0.00000000000E+00 0.  1.
         11    1    1    2    0    0  0.40729511628E+02 -0.23509761849E+02  0.26737466182E-01  0.47027680514E+02  0.00000000000E+00 0. -1.
</event>
<event>
 6    1  0.6597032E-006  0.1174121E+03  0.7561462E-02  0.1247428E+00
         -1   -1    0    0    0  501 -0.00000000000E+00  0.00000000000E+00  0.14660665436E+03  0.14660665436E+03  0.00000000000E+00 0.  1.
          1   -1    0    0  501    0  0.00000000000E+00 -0.00000000000E+00 -0.10236720058E+03  0.10236720058E+03  0.00000000000E+00 0. -1.
          5    1    1    2  502    0 -0.65650164518E+02  0.65820399067E+02  0.11886101940E+02  0.93813756209E+02  0.41800000000E+01 0.  1.
         -5    1    1    2    0  502  0.24355747337E+02 -0.29409919856E+02  0.31206638011E+02  0.49492145541E+02  0.41800000000E+01 0.  1.
        -11    1    1    2    0    0  0.67817985029E+02 -0.15472453597E+02 -0.95733923334E+01  0.70216278415E+02  0.00000000000E+00 0. -1.
         11    1    1    2    0    0 -0.26523567848E+02 -0.20938025614E+02  0.10720106164E+02  0.35451674772E+02  0.00000000000E+00 0.  1.
</event>
<event>
 6    1  0.6597032E-006  0.1056098E+03  0.7561462E-02  0.1268923E+00
          1   -1    0    0  501    0  0.00000000000E+00  0.00000000000E+00  0.41079306370E+03  0.41079306370E+03  0.00000000000E+00 0. -1.
         -1   -1    0    0    0  501 -0.00000000000E+00 -0.00000000000E+00 -0.32553545720E+02  0.32553545720E+02  0.00000000000E+00 0.  1.
          5    1    1    2  502    0 -0.56406988642E+02 -0.39933995199E+02  0.60516929787E+02  0.91957835615E+02  0.41800000000E+01 0. -1.
         -5    1    1    2    0  502  0.19599095648E+02  0.48612570474E+02  0.11894265157E+03  0.13004665824E+03  0.41800000000E+01 0. -1.
        -11    1    1    2    0    0  0.45107302733E+02  0.27133227042E+02  0.71034392956E+02  0.88412475094E+02  0.00000000000E+00 0.  1.
         11    1    1    2    0    0 -0.82994097392E+01 -0.35811802318E+02  0.12774554367E+03  0.13292964046E+03  0.00000000000E+00 0. -1.
</event>
<event>
 6    1  0.6597032E-006  0.7006896E+02  0.7561462E-02  0.1359859E+00
         -2   -1    0    0    0  501 -0.00000000000E+00  0.00000000000E+00  0.10045251316E+03  0.10045251316E+03  0.00000000000E+00 0.  1.
          2   -1    0    0  501    0  0.00000000000E+00 -0.00000000000E+00 -0.17232223661E+03  0.17232223661E+03  0.00000000000E+00 0. -1.
          5    1    1    2  502    0  0.32707757494E+02  0.42281820892E+02  0.65166581341E+02  0.84390197902E+02  0.41800000000E+01 0. -1.
         -5    1    1    2    0  502  0.77274745754E+01 -0.59455628779E+01 -0.51595296349E+02  0.52674572486E+02  0.41800000000E+01 0. -1.
        -11    1    1    2    0    0  0.15405781486E+01 -0.33824433303E+02  0.66192608414E+01  0.34500438887E+02  0.00000000000E+00 0.  1.
         11    1    1    2    0    0 -0.41975810218E+02 -0.25118247108E+01 -0.92060269282E+02  0.10120954049E+03  0.00000000000E+00 0. -1.
</event>
<event>
 6    1  0.6597032E-006  0.1043702E+03  0.7561462E-02  0.1271365E+00
         -1   -1    0    0    0  501 -0.00000000000E+00  0.00000000000E+00  0.41100169343E+03  0.41100169343E+03  0.00000000000E+00 0.  1.
          1   -1    0    0  501    0  0.00000000000E+00 -0.00000000000E+00 -0.31912706282E+02  0.31912706282E+02  0.00000000000E+00 0. -1.
          5    1    1    2  502    0  0.56816470803E+02 -0.20468812456E+02  0.19545584513E+03  0.20461559919E+03  0.41800000000E+01 0.  1.
         -5    1    1    2    0  502 -0.50866136744E+02  0.29080560194E+02  0.93399624340E+02  0.11033587393E+03  0.41800000000E+01 0.  1.
        -11    1    1    2    0    0  0.21737603527E+01 -0.48605094949E+02  0.59585290871E+02  0.76925856363E+02  0.00000000000E+00 0.  1.
         11    1    1    2    0    0 -0.81240944119E+01  0.39993347210E+02  0.30648226807E+02  0.51037070229E+02  0.00000000000E+00 0. -1.
</event>
<event>
 6    1  0.6597032E-006  0.1040362E+03  0.7561462E-02  0.1272030E+00
         -1   -1    0    0    0  501 -0.00000000000E+00  0.00000000000E+00  0.67229839034E+02  0.67229839034E+02  0.00000000000E+00 0.  1.
          1   -1    0    0  501    0  0.00000000000E+00 -0.00000000000E+00 -0.19639188185E+03  0.19639188185E+03  0.00000000000E+00 0. -1.
          5    1    1    2  502    0 -0.46319165326E+02 -0.28862411285E+02 -0.41761131415E+02  0.68847428120E+02  0.41800000000E+01 0.  1.
         -5    1    1    2    0  502  0.55027873263E+02  0.24169483929E+02  0.88070881441E+01  0.60887338510E+02  0.41800000000E+01 0.  1.
        -11    1    1    2    0    0 -0.44671887848E+02  0.25603887442E+02 -0.51780068768E+02  0.73022682351E+02  0.00000000000E+00 0.  1.
         11    1    1    2    0    0  0.35963179911E+02 -0.20910960086E+02 -0.44427930776E+02  0.60864271901E+02  0.00000000000E+00 0. -1.
</event>
<event>
 6    1  0.6597032E-006  0.1298538E+03  0.7561462E-02  0.1227673E+00
         -2   -1    0    0    0  501 -0.00000000000E+00  0.00000000000E+00  0.26794316016E+02  0.26794316016E+02  0.00000000000E+00 0.  1.
          2   -1    0    0  501    0  0.00000000000E+00 -0.00000000000E+00 -0.10050257254E+04  0.10050257254E+04  0.00000000000E+00 0. -1.
          5    1    1    2  502    0  0.95345091409E+00 -0.62422536120E+02 -0.43383767786E+02  0.76138727278E+02  0.41800000000E+01 0.  1.
         -5    1    1    2    0  502 -0.47729373541E+02 -0.26779655306E+02 -0.27537923744E+03  0.28079608233E+03  0.41800000000E+01 0.  1.
        -11    1    1    2    0    0  0.22698626299E+02 -0.20104970126E+02 -0.10817609938E+03  0.11234547582E+03  0.00000000000E+00 0.  1.
         11    1    1    2    0    0  0.24077296329E+02  0.10930716155E+03 -0.55129230474E+03  0.56253975595E+03  0.00000000000E+00 0. -1.
</event>
<event>
 6    1  0.6597032E-006  0.7865355E+02  0.7561462E-02  0.1332916E+00
         -1   -1    0    0    0  501 -0.00000000000E+00  0.00000000000E+00  0.20205835567E+03  0.20205835567E+03  0.00000000000E+00 0.  1.
          1   -1    0    0  501    0  0.00000000000E+00 -0.00000000000E+00 -0.15955816835E+03  0.15955816835E+03  0.00000000000E+00 0. -1.
          5    1    1    2  502    0  0.48606388365E+02  0.38439284375E+01  0.19088799256E+02  0.52528196549E+02  0.41800000000E+01 0.  1.
         -5    1    1    2    0  502 -0.50607612312E+02  0.15252672797E+02  0.14707770966E+03  0.15634289089E+03  0.41800000000E+01 0.  1.
        -11    1    1    2    0    0  0.18480816583E+02  0.10659178754E+02  0.30426882340E+01  0.21550327723E+02  0.00000000000E+00 0.  1.
         11    1    1    2    0    0 -0.16479592636E+02 -0.29755779988E+02 -0.12670900983E+03  0.13119510886E+03  0.00000000000E+00 0. -1.
</event>
<event>
 6    1  0.6597032E-006  0.9952886E+02  0.7561462E-02  0.1281290E+00
         -1   -1    0    0    0  501 -0.00000000000E+00  0.00000000000E+00  0.69651614856E+02  0.69651614856E+02  0.00000000000E+00 0.  1.
          1   -1    0    0  501    0  0.00000000000E+00 -0.00000000000E+00 -0.33655625944E+03  0.33655625944E+03  0.00000000000E+00 0. -1.
          5    1    1    2  502    0 -0.30806286991E+02  0.17091968710E+02  0.39554798648E+02  0.53133955326E+02  0.41800000000E+01 0.  1.
         -5    1    1    2    0  502  0.52996006629E+02  0.28577624478E+02 -0.56954966885E+02  0.82985528812E+02  0.41800000000E+01 0.  1.
        -11    1    1    2    0    0 -0.39825897004E+02  0.13053992611E+02 -0.93300907841E+02  0.10228180776E+03  0.00000000000E+00 0. -1.
         11    1    1    2    0    0  0.17636177366E+02 -0.58723585799E+02 -0.15620356850E+03  0.16780658239E+03  0.00000000000E+00 0.  1.
</event>
<event>
 6    1  0.6597032E-006  0.9268227E+02  0.7561462E-02  0.1296483E+00
          2   -1    0    0  501    0  0.00000000000E+00  0.00000000000E+00  0.82892671245E+03  0.82892671245E+03  0.00000000000E+00 0. -1.
         -2   -1    0    0    0  501 -0.00000000000E+00 -0.00000000000E+00 -0.20065437359E+02  0.20065437359E+02  0.00000000000E+00 0.  1.
          5    1    1    2  502    0 -0.22095258070E+02 -0.34734349805E+02  0.30696059072E+02  0.51520830041E+02  0.41800000000E+01 0. -1.
         -5    1    1    2    0  502 -0.31150759519E+02 -0.32679600203E+01  0.41033195317E+03  0.41154687895E+03  0.41800000000E+01 0. -1.
        -11    1    1    2    0    0  0.57791414638E+02  0.63863116254E+02  0.22968383501E+03  0.24530187380E+03  0.00000000000E+00 0.  1.
         11    1    1    2    0    0 -0.45453970486E+01 -0.25860806429E+02  0.13814942783E+03  0.14062256702E+03  0.00000000000E+00 0. -1.
</event>
<event>
 6    1  0.6597032E-006  0.1308148E+03  0.7561462E-02  0.1226252E+00
          2   -1    0    0  501    0  0.00000000000E+00  0.00000000000E+00  0.11787946114E+04  0.11787946114E+04  0.00000000000E+00 0. -1.
         -2   -1    0    0    0  501 -0.00000000000E+00 -0.00000000000E+00 -0.16900486283E+02  0.16900486283E+02  0.00000000000E+00 0.  1.
          5    1    1    2  502    0  0.65459044750E+02 -0.69541982699E+02  0.46841949222E+03  0.47807454125E+03  0.41800000000E+01 0. -1.
         -5    1    1    2    0  502  0.17026442533E+02  0.37469725747E+02  0.66087941448E+02  0.77967740109E+02  0.41800000000E+01 0. -1.
        -11    1    1    2    0    0 -0.82145060457E+02  0.56841803990E+02  0.50209349866E+03  0.51193425655E+03  0.00000000000E+00 0. -1.
         11    1    1    2    0    0 -0.34042682595E+00 -0.24769547038E+02  0.12529319280E+03  0.12771855978E+03  0.00000000000E+00 0.  1.
</event>
<event>
 6    1  0.6597032E-006  0.5974358E+02  0.7561462E-02  0.1398911E+00
         -2   -1    0    0    0  501 -0.00000000000E+00  0.00000000000E+00  0.74369569396E+02  0.74369569396E+02  0.00000000000E+00 0.  1.
          2   -1    0    0  501    0  0.00000000000E+00 -0.00000000000E+00 -0.20746937735E+03  0.20746937735E+03  0.00000000000E+00 0. -1.
          5    1    1    2  502    0 -0.16393520788E+02  0.15947097817E+02 -0.76405169822E+02  0.79864133553E+02  0.41800000000E+01 0.  1.
         -5    1    1    2    0  502  0.41429162224E+02  0.22768784056E+02  0.35857842728E+02  0.59481512213E+02  0.41800000000E+01 0.  1.
        -11    1    1    2    0    0 -0.23600113339E+02 -0.22851144114E+02 -0.11236651549E+03  0.11706995319E+03  0.00000000000E+00 0. -1.
         11    1    1    2    0    0 -0.14355280964E+01 -0.15864737759E+02  0.19814034623E+02  0.25423347796E+02  0.00000000000E+00 0.  1.
</event>
<event>
 6    1  0.6597032E-006  0.9304177E+02  0.7561462E-02  0.1295648E+00
          1   -1    0    0  501    0  0.00000000000E+00  0.00000000000E+00  0.21188484831E+02  0.21188484831E+02  0.00000000000E+00 0. -1.
         -1   -1    0    0    0  501 -0.00000000000E+00 -0.00000000000E+00 -0.84798581334E+03  0.84798581334E+03  0.00000000000E+00 0.  1.
          5    1    1    2  502    0  0.39794727376E+02 -0.32117890833E+02 -0.11296489098E+03  0.12407142392E+03  0.41800000000E+01 0. -1.
         -5    1    1    2    0  502 -0.39741707309E+02 -0.67028186253E+01 -0.56359528338E+03  0.56504995083E+03  0.41800000000E+01 0. -1.
        -11    1    1    2    0    0 -0.42864700940E+02  0.22737959537E+02 -0.48970492518E+02  0.68938425628E+02  0.00000000000E+00 0. -1.
         11    1    1    2    0    0  0.42811680873E+02  0.16082749921E+02 -0.10126666163E+03  0.11111449780E+03  0.00000000000E+00 0.  1.
</event>
<event>
 6    1  0.6597032E-006  0.1019706E+03  0.7561462E-02  0.1276206E+00
          2   -1    0    0  501    0  0.00000000000E+00  0.00000000000E+00  0.79971646819E+02  0.79971646819E+02  0.00000000000E+00 0. -1.
         -2   -1    0    0    0  501 -0.00000000000E+00 -0.00000000000E+00 -0.18458760590E+03  0.18458760590E+03  0.00000000000E+00 0.  1.
          5    1    1    2  502    0 -0.69414167429E+02  0.18336850527E+02 -0.88448434794E+02  0.11399633654E+03  0.41800000000E+01 0.  1.
         -5    1    1    2    0  502  0.17460735306E+02 -0.31138856576E+02  0.16904793291E+02  0.39720902589E+02  0.41800000000E+01 0.  1.
        -11    1    1    2    0    0  0.30484247691E+02  0.46810797798E+02  0.41850449653E+01  0.56018342971E+02  0.00000000000E+00 0.  1.
         11    1    1    2    0    0  0.21469184431E+02 -0.34008791749E+02 -0.37257362542E+02  0.54823670617E+02  0.00000000000E+00 0. -1.
</event>
<event>
 6    1  0.6597032E-006  0.1663637E+03  0.7561462E-02  0.1181694E+00
         -1   -1    0    0    0  501 -0.00000000000E+00  0.00000000000E+00  0.78726107463E+02  0.78726107463E+02  0.00000000000E+00 0.  1.
          1   -1    0    0  501    0  0.00000000000E+00 -0.00000000000E+00 -0.46061906974E+03  0.46061906974E+03  0.00000000000E+00 0. -1.
          5    1    1    2  502    0 -0.40511278402E+02  0.59743378429E+02 -0.68971890651E+02  0.99925117182E+02  0.41800000000E+01 0. -1.
         -5    1    1    2    0  502 -0.10108684497E+03 -0.48748472090E+02 -0.44890387856E+02  0.12094454547E+03  0.41800000000E+01 0. -1.
        -11    1    1    2    0    0  0.12290314591E+03 -0.24156757387E+02 -0.13766151649E+03  0.18611669813E+03  0.00000000000E+00 0.  1.
         11    1    1    2    0    0  0.18694977466E+02  0.13161851048E+02 -0.13036916729E+03  0.13235881642E+03  0.00000000000E+00 0. -1.
</event>
<event>
 6    1  0.6597032E-006  0.9017894E+02  0.7561462E-02  0.1302419E+00
         -1   -1    0    0    0  501 -0.00000000000E+00  0.00000000000E+00  0.47156819566E+02  0.47156819566E+02  0.00000000000E+00 0.  1.
          1   -1    0    0  501    0  0.00000000000E+00 -0.00000000000E+00 -0.25109681619E+03  0.25109681619E+03  0.00000000000E+00 0. -1.
          5    1    1    2  502    0  0.23605239695E+02  0.44730427059E+02 -0.83857872793E+02  0.98018537406E+02  0.41800000000E+01 0.  1.
         -5    1    1    2    0  502 -0.18292246443E+02 -0.58079976684E+02 -0.17148654410E+02  0.63399043523E+02  0.41800000000E+01 0.  1.
        -11    1    1    2    0    0  0.11464742125E+02 -0.24566809589E+02 -0.89089969116E+02  0.93123525719E+02  0.00000000000E+00 0. -1.
         11    1    1    2    0    0 -0.16777735377E+02  0.37916359214E+02 -0.13843500309E+02  0.43712529111E+02  0.00000000000E+00 0.  1.
</event>
<event>
 6    1  0.6597032E-006  0.1616930E+03  0.7561462E-02  0.1186799E+00
         -2   -1    0    0    0  501 -0.00000000000E+00  0.00000000000E+00  0.38285337604E+02  0.38285337604E+02  0.00000000000E+00 0. -1.
          2   -1    0    0  501    0  0.00000000000E+00 -0.00000000000E+00 -0.76693078975E+03  0.76693078975E+03  0.00000000000E+00 0.  1.
          5    1    1    2  502    0 -0.79755818616E+02  0.20997461195E+02 -0.25980908034E+03  0.27261715758E+03  0.41800000000E+01 0. -1.
         -5    1    1    2    0  502  0.71380514746E+01  0.90464758469E+02 -0.13958641283E+03  0.16654327771E+03  0.41800000000E+01 0. -1.
        -11    1    1    2    0    0  0.59975326724E+02 -0.29144688021E+02 -0.85232558749E+02  0.10821756663E+03  0.00000000000E+00 0.  1.
         11    1    1    2    0    0  0.12642440418E+02 -0.82317531642E+02 -0.24401740023E+03  0.25783812544E+03  0.00000000000E+00 0. -1.
</event>
<event>
 6    1  0.6597032E-006  0.1050429E+03  0.7561462E-02  0.1270035E+00
         -2   -1    0    0    0  501 -0.00000000000E+00  0.00000000000E+00  0.29726340726E+02  0.29726340726E+02  0.00000000000E+00 0.  1.
          2   -1    0    0  501    0  0.00000000000E+00 -0.00000000000E+00 -0.69250210723E+03  0.69250210723E+03  0.00000000000E+00 0. -1.
          5    1    1    2  502    0 -0.59498470413E+02 -0.50946164930E+02 -0.46977038004E+02  0.91432457050E+02  0.41800000000E+01 0. -1.
         -5    1    1    2    0  502  0.25311547495E+02  0.18875135631E+02 -0.11086623509E+03  0.11535050787E+03  0.41800000000E+01 0. -1.
        -11    1    1    2    0    0 -0.30002896850E+02  0.65009193953E+01 -0.98228787350E+02  0.10291418968E+03  0.00000000000E+00 0.  1.
         11    1    1    2    0    0  0.64189819768E+02  0.25570109904E+02 -0.40670370606E+03  0.41253129337E+03  0.00000000000E+00 0. -1.
</event>
<event>
 6    1  0.6597032E-006  0.1138518E+03  0.7561462E-02  0.1253599E+00
         -1   -1    0    0    0  501 -0.00000000000E+00  0.00000000000E+00  0.73150861448E+02  0.73150861448E+02  0.00000000000E+00 0.  1.
          1   -1    0    0  501    0  0.00000000000E+00 -0.00000000000E+00 -0.27453161015E+03  0.27453161015E+03  0.00000000000E+00 0. -1.
          5    1    1    2  502    0 -0.33615942047E+02  0.90360428244E+02 -0.22510216160E+02  0.99091981430E+02  0.41800000000E+01 0.  1.
         -5    1    1    2    0  502 -0.27939501293E+02 -0.22973675324E+02 -0.76453296495E+02  0.84681665284E+02  0.41800000000E+01 0.  1.
        -11    1    1    2    0    0  0.50962403254E+02 -0.38053468492E+02 -0.11408010147E+03  0.13061203069E+03  0.00000000000E+00 0. -1.
         11    1    1    2    0    0  0.10593040085E+02 -0.29333284428E+02  0.11662865425E+02  0.33296794192E+02  0.00000000000E+00 0.  1.
</event>
<event>
 6    1  0.6597032E-006  0.1215615E+03  0.7561462E-02  0.1240543E+00
         -1   -1    0    0    0  501 -0.00000000000E+00  0.00000000000E+00  0.41126512587E+03  0.41126512587E+03  0.00000000000E+00 0.  1.
          1   -1    0    0  501    0  0.00000000000E+00 -0.00000000000E+00 -0.46939135072E+02  0.46939135072E+02  0.00000000000E+00 0. -1.
          5    1    1    2  502    0 -0.67142565867E+02  0.69712868256E+02  0.24904490748E+03  0.26722433739E+03  0.41800000000E+01 0.  1.
         -5    1    1    2    0  502  0.24887568879E+02 -0.28241521781E+02  0.54342242922E+02  0.66238405801E+02  0.41800000000E+01 0.  1.
        -11    1    1    2    0    0  0.41284604495E+02 -0.69224210971E+02  0.50274493779E+02  0.94994392875E+02  0.00000000000E+00 0.  1.
         11    1    1    2    0    0  0.97039249313E+00  0.27752864497E+02  0.10664346609E+02  0.29747124869E+02  0.00000000000E+00 0. -1.
</event>
<event>
 6    1  0.6597032E-006  0.9266790E+02  0.7561462E-02  0.1296517E+00
          1   -1    0    0  501    0  0.00000000000E+00  0.00000000000E+00  0.52535412885E+02  0.52535412885E+02  0.00000000000E+00 0. -1.
         -1   -1    0    0    0  501 -0.00000000000E+00 -0.00000000000E+00 -0.34736386425E+03  0.34736386425E+03  0.00000000000E+00 0.  1.
          5    1    1    2  502    0  0.19267871801E+02 -0.59113536650E+02 -0.74224424932E+02  0.96914388795E+02  0.41800000000E+01 0. -1.
         -5    1    1    2    0  502 -0.51151926619E+02  0.27912267988E+02 -0.19046601370E+03  0.19922446907E+03  0.41800000000E+01 0. -1.
        -11    1    1    2    0    0  0.12522512045E+02 -0.11946306702E+02 -0.49665781110E+02  0.52594841620E+02  0.00000000000E+00 0.  1.
         11    1    1    2    0    0  0.19361542773E+02  0.43147575364E+02  0.19527768380E+02  0.51165577649E+02  0.00000000000E+00 0. -1.
</event>
<event>
 6    1  0.6597032E-006  0.1961588E+03  0.7561462E-02  0.1153021E+00
          1   -1    0    0  501    0  0.00000000000E+00  0.00000000000E+00  0.46605515400E+02  0.46605515400E+02  0.00000000000E+00 0. -1.
         -1   -1    0    0    0  501 -0.00000000000E+00 -0.00000000000E+00 -0.14587521304E+04  0.14587521304E+04  0.00000000000E+00 0.  1.
          5    1    1    2  502    0  0.60553692413E+02 -0.10767553976E+02 -0.66305951589E+03  0.66591897698E+03  0.41800000000E+01 0.  1.
         -5    1    1    2    0  502  0.91730504829E+02 -0.10182505101E+03 -0.46721781398E+03  0.48692174385E+03  0.41800000000E+01 0.  1.
        -11    1    1    2    0    0 -0.64847116498E+02  0.72795046138E+02 -0.70407467965E+02  0.12025588886E+03  0.00000000000E+00 0. -1.
         11    1    1    2    0    0 -0.87437080743E+02  0.39797558850E+02 -0.21146181714E+03  0.23226103609E+03  0.00000000000E+00 0.  1.
</event>
<event>
 6    1  0.6597032E-006  0.2792458E+03  0.7561462E-02  0.1096102E+00
         -1   -1    0    0    0  501 -0.00000000000E+00  0.00000000000E+00  0.47040335902E+03  0.47040335902E+03  0.00000000000E+00 0.  1.
          1   -1    0    0  501    0  0.00000000000E+00 -0.00000000000E+00 -0.18639262972E+03  0.18639262972E+03  0.00000000000E+00 0. -1.
          5    1    1    2  502    0  0.21118404894E+03 -0.36449576302E+01  0.13425558242E+03  0.25030785456E+03  0.41800000000E+01 0. -1.
         -5    1    1    2    0  502  0.45266906918E+02 -0.58276235103E+02  0.98168857183E+02  0.12288128157E+03  0.41800000000E+01 0. -1.
        -11    1    1    2    0    0 -0.15908521472E+03  0.73554449784E+02  0.57403887690E+01  0.17536052774E+03  0.00000000000E+00 0.  1.
         11    1    1    2    0    0 -0.97365741135E+02 -0.11633257050E+02  0.45845900933E+02  0.10824632487E+03  0.00000000000E+00 0. -1.
</event>
<event>
 6    1  0.7167462E-006  0.1459586E+03  0.7561462E-02  0.1205529E+00
         -2   -1    0    0    0  501 -0.00000000000E+00  0.00000000000E+00  0.14188523500E+03  0.14188523500E+03  0.00000000000E+00 0.  1.
          2   -1    0    0  501    0  0.00000000000E+00 -0.00000000000E+00 -0.21232064909E+03  0.21232064909E+03  0.00000000000E+00 0. -1.
          5    1    1    2  502    0  0.46070776480E+02  0.10029297787E+03  0.28390319850E+02  0.11403806608E+03  0.41800000000E+01 0.  1.
         -5    1    1    2    0  502  0.16741643046E+02  0.18761195650E+02 -0.69826998846E+02  0.74334024793E+02  0.41800000000E+01 0.  1.
        -11    1    1    2    0    0  0.59266743057E+01 -0.72996843482E+02 -0.38165538087E+02  0.82584943689E+02  0.00000000000E+00 0. -1.
         11    1    1    2    0    0 -0.68739093832E+02 -0.46057330036E+02  0.91668029911E+01  0.83248849529E+02  0.00000000000E+00 0.  1.
</event>
<event>
 6    1  0.6597032E-006  0.1046890E+03  0.7561462E-02  0.1270733E+00
          1   -1    0    0  501    0  0.00000000000E+00  0.00000000000E+00  0.13498140532E+03  0.13498140532E+03  0.00000000000E+00 0. -1.
         -1   -1    0    0    0  501 -0.00000000000E+00 -0.00000000000E+00 -0.10662740722E+03  0.10662740722E+03  0.00000000000E+00 0.  1.
          5    1    1    2  502    0 -0.45820781662E+02  0.51172526927E+02 -0.43091747459E+02  0.81194474217E+02  0.41800000000E+01 0.  1.
         -5    1    1    2    0  502  0.30993003855E+02 -0.36605617911E+02  0.11467034256E+02  0.49492452205E+02  0.41800000000E+01 0.  1.
        -11    1    1    2    0    0 -0.76566091218E+01  0.36143084674E+02  0.16598869754E+02  0.40502700035E+02  0.00000000000E+00 0. -1.
         11    1    1    2    0    0  0.22484386929E+02 -0.50709993691E+02  0.43379841555E+02  0.70419186086E+02  0.00000000000E+00 0.  1.
</event>
<event>
 6    1  0.6597032E-006  0.1078055E+03  0.7561462E-02  0.1264689E+00
          1   -1    0    0  501    0  0.00000000000E+00  0.00000000000E+00  0.48196148248E+02  0.48196148248E+02  0.00000000000E+00 0. -1.
         -1   -1    0    0    0  501 -0.00000000000E+00 -0.00000000000E+00 -0.25721086727E+03  0.25721086727E+03  0.00000000000E+00 0.  1.
          5    1    1    2  502    0 -0.42521092746E+02 -0.31517713653E+02 -0.50554916855E+02  0.73312220130E+02  0.41800000000E+01 0.  1.
         -5    1    1    2    0  502  0.47093064988E+02  0.57655993898E+02 -0.83915018514E+02  0.11225494704E+03  0.41800000000E+01 0.  1.
        -11    1    1    2    0    0 -0.41039558153E+02  0.31830145037E+01 -0.56010814799E+02  0.69509627313E+02  0.00000000000E+00 0.  1.
         11    1    1    2    0    0  0.36467585910E+02 -0.29321294748E+02 -0.18533968849E+02  0.50330221032E+02  0.00000000000E+00 0. -1.
</event>
<event>
 6    1  0.6597032E-006  0.1253620E+03  0.7561462E-02  0.1234505E+00
         -2   -1    0    0    0  501 -0.00000000000E+00  0.00000000000E+00  0.35268351836E+02  0.35268351836E+02  0.00000000000E+00 0.  1.
          2   -1    0    0  501    0  0.00000000000E+00 -0.00000000000E+00 -0.63742914203E+03  0.63742914203E+03  0.00000000000E+00 0. -1.
          5    1    1    2  502    0 -0.11348891248E+02  0.99565475576E+02 -0.15099776670E+03  0.18127294119E+03  0.41800000000E+01 0. -1.
         -5    1    1    2    0  502  0.51638109940E+02 -0.17180772394E+02 -0.71557268348E+02  0.89997713258E+02  0.41800000000E+01 0. -1.
        -11    1    1    2    0    0 -0.41931818915E+02 -0.58890785180E+02 -0.36825295373E+03  0.37528208051E+03  0.00000000000E+00 0. -1.
         11    1    1    2    0    0  0.16426002226E+01 -0.23493918002E+02 -0.11352801414E+02  0.26144758911E+02  0.00000000000E+00 0.  1.
</event>
<event>
 6    1  0.6597032E-006  0.1147732E+03  0.7561462E-02  0.1251978E+00
         -2   -1    0    0    0  501 -0.00000000000E+00  0.00000000000E+00  0.59455345637E+03  0.59455345637E+03  0.00000000000E+00 0.  1.
          2   -1    0    0  501    0  0.00000000000E+00 -0.00000000000E+00 -0.28552723401E+02  0.28552723401E+02  0.00000000000E+00 0. -1.
          5    1    1    2  502    0 -0.63696150730E+02 -0.29839282686E+02  0.16289272481E+03  0.17747984281E+03  0.41800000000E+01 0. -1.
         -5    1    1    2    0  502  0.57666951395E+01  0.72903252283E+02  0.13581577485E+03  0.15430987028E+03  0.41800000000E+01 0. -1.
        -11    1    1    2    0    0  0.24645584952E+02 -0.46239911771E+02  0.24635766980E+03  0.25186829052E+03  0.00000000000E+00 0.  1.
         11    1    1    2    0    0  0.33283870639E+02  0.31759421737E+01  0.20934563503E+02  0.39448176162E+02  0.00000000000E+00 0. -1.
</event>
<event>
 6    1  0.6597032E-006  0.1004670E+03  0.7561462E-02  0.1279317E+00
          2   -1    0    0  501    0  0.00000000000E+00  0.00000000000E+00  0.57726549509E+02  0.57726549509E+02  0.00000000000E+00 0. -1.
         -2   -1    0    0    0  501 -0.00000000000E+00 -0.00000000000E+00 -0.21239483509E+03  0.21239483509E+03  0.00000000000E+00 0.  1.
          5    1    1    2  502    0 -0.53735203024E+02  0.89391458466E+01 -0.91411512889E+02  0.10649374377E+03  0.41800000000E+01 0.  1.
         -5    1    1    2    0  502  0.53260170023E+02  0.12092892970E+02 -0.94907988510E+01  0.55591648960E+02  0.41800000000E+01 0.  1.
        -11    1    1    2    0    0  0.44274978979E+02 -0.17410492018E+02 -0.16317512550E+02  0.50295727569E+02  0.00000000000E+00 0. -1.
         11    1    1    2    0    0 -0.43799945979E+02 -0.36215467986E+01 -0.37448461293E+02  0.57740264306E+02  0.00000000000E+00 0.  1.
</event>
<event>
 6    1  0.6597032E-006  0.1578183E+03  0.7561462E-02  0.1191182E+00
          1   -1    0    0  501    0  0.00000000000E+00  0.00000000000E+00  0.44774124872E+03  0.44774124872E+03  0.00000000000E+00 0. -1.
         -1   -1    0    0    0  501 -0.00000000000E+00 -0.00000000000E+00 -0.60036889311E+02  0.60036889311E+02  0.00000000000E+00 0.  1.
          5    1    1    2  502    0  0.11385977134E+02  0.71421753582E+02  0.57275224922E+02  0.92350588249E+02  0.41800000000E+01 0. -1.
         -5    1    1    2    0  502  0.95941378178E+02 -0.14268738192E+02  0.14852831919E+03  0.17744429812E+03  0.41800000000E+01 0. -1.
        -11    1    1    2    0    0  0.14174594625E+00 -0.36708990870E+02  0.17891826635E+02  0.40837330507E+02  0.00000000000E+00 0. -1.
         11    1    1    2    0    0 -0.10746910126E+03 -0.20444024520E+02  0.16400898867E+03  0.19714592116E+03  0.00000000000E+00 0.  1.
</event>
<event>
 6    1  0.6597032E-006  0.8722424E+02  0.7561462E-02  0.1309716E+00
          1   -1    0    0  501    0  0.00000000000E+00  0.00000000000E+00  0.22263120131E+03  0.22263120131E+03  0.00000000000E+00 0. -1.
         -1   -1    0    0    0  501 -0.00000000000E+00 -0.00000000000E+00 -0.77477257844E+02  0.77477257844E+02  0.00000000000E+00 0.  1.
          5    1    1    2  502    0  0.42953030582E+02  0.29552254912E+02 -0.35017801188E+02  0.62944558196E+02  0.41800000000E+01 0. -1.
         -5    1    1    2    0  502 -0.63430386845E+00  0.24745263289E+02  0.84515722185E+02  0.88165243113E+02  0.41800000000E+01 0. -1.
        -11    1    1    2    0    0  0.17981133430E+02 -0.22713330283E+02 -0.30146390885E+01  0.29125668761E+02  0.00000000000E+00 0.  1.
         11    1    1    2    0    0 -0.60299860143E+02 -0.31584187918E+02  0.98670661558E+02  0.11987298908E+03  0.00000000000E+00 0. -1.
</event>
<event>
 6    1  0.6597032E-006  0.2099390E+03  0.7561462E-02  0.1141614E+00
          2   -1    0    0  501    0  0.00000000000E+00  0.00000000000E+00  0.12127807121E+03  0.12127807121E+03  0.00000000000E+00 0.  1.
         -2   -1    0    0    0  501 -0.00000000000E+00 -0.00000000000E+00 -0.45659239202E+03  0.45659239202E+03  0.00000000000E+00 0. -1.
          5    1    1    2  502    0 -0.87150021211E+02 -0.15915897625E+03 -0.20245977102E+03  0.27190832499E+03  0.41800000000E+01 0.  1.
         -5    1    1    2    0  502  0.29533733406E+02 -0.16694070200E+02 -0.88711751388E+02  0.95069346390E+02  0.41800000000E+01 0.  1.
        -11    1    1    2    0    0  0.77327152567E+02  0.10347293850E+03 -0.42053076678E+02  0.13584770438E+03  0.00000000000E+00 0. -1.
         11    1    1    2    0    0 -0.19710864762E+02  0.72380107950E+02 -0.20897217146E+01  0.75045087470E+02  0.00000000000E+00 0.  1.
</event>
<event>
 6    1  0.6597032E-006  0.7332561E+02  0.7561462E-02  0.1349136E+00
         -1   -1    0    0    0  501 -0.00000000000E+00  0.00000000000E+00  0.39898849650E+02  0.39898849650E+02  0.00000000000E+00 0.  1.
          1   -1    0    0  501    0  0.00000000000E+00 -0.00000000000E+00 -0.37372317235E+03  0.37372317235E+03  0.00000000000E+00 0. -1.
          5    1    1    2  502    0 -0.73491146978E+01  0.22076965840E+01 -0.12308165897E+03  0.12339145265E+03  0.41800000000E+01 0. -1.
         -5    1    1    2    0  502  0.39509358106E+02  0.10679746773E+02  0.15283141867E+02  0.43887278275E+02  0.41800000000E+01 0.  1.
        -11    1    1    2    0    0 -0.72895005297E+00  0.37434354225E+02 -0.10674987426E+03  0.11312558464E+03  0.00000000000E+00 0. -1.
         11    1    1    2    0    0 -0.31431293356E+02 -0.50321797582E+02 -0.11927593133E+03  0.13321770644E+03  0.00000000000E+00 0.  1.
</event>
<event>
 6    1  0.6597032E-006  0.1159202E+03  0.7561462E-02  0.1249983E+00
         -2   -1    0    0    0  501 -0.00000000000E+00  0.00000000000E+00  0.38386973410E+02  0.38386973410E+02  0.00000000000E+00 0.  1.
          2   -1    0    0  501    0  0.00000000000E+00 -0.00000000000E+00 -0.56866433002E+03  0.56866433002E+03  0.00000000000E+00 0. -1.
          5    1    1    2  502    0 -0.90260962663E+02  0.14569583490E+02 -0.46427818680E+02  0.10262713526E+03  0.41800000000E+01 0.  1.
         -5    1    1    2    0  502  0.20111631576E+02  0.14812659345E+02 -0.10492767072E+03  0.10794063686E+03  0.41800000000E+01 0.  1.
        -11    1    1    2    0    0  0.18575616201E+01 -0.44915823541E+02 -0.11637407142E+03  0.12475498482E+03  0.00000000000E+00 0.  1.
         11    1    1    2    0    0  0.68291769467E+02  0.15533580705E+02 -0.26254779578E+03  0.27172854649E+03  0.00000000000E+00 0. -1.
</event>
<event>
 6    1  0.6597032E-006  0.7229894E+02  0.7561462E-02  0.1352445E+00
         -1   -1    0    0    0  501 -0.00000000000E+00  0.00000000000E+00  0.14959239389E+03  0.14959239389E+03  0.00000000000E+00 0.  1.
          1   -1    0    0  501    0  0.00000000000E+00 -0.00000000000E+00 -0.12164646554E+03  0.12164646554E+03  0.00000000000E+00 0. -1.
          5    1    1    2  502    0 -0.71331589565E+01 -0.29655039041E+01 -0.32591539014E+02  0.33754362464E+02  0.41800000000E+01 0. -1.
         -5    1    1    2    0  502 -0.40807728853E+01  0.50514857056E+02  0.11015638464E+03  0.12132726391E+03  0.41800000000E+01 0. -1.
        -11    1    1    2    0    0 -0.23114606994E+02  0.35679639405E+01 -0.49317035595E+02  0.54581914798E+02  0.00000000000E+00 0. -1.
         11    1    1    2    0    0  0.34328538836E+02 -0.51117317092E+02 -0.30188169116E+00  0.61575318252E+02  0.00000000000E+00 0.  1.
</event>
<event>
 6    1  0.6597032E-006  0.9227104E+02  0.7561462E-02  0.1297443E+00
          2   -1    0    0  501    0  0.00000000000E+00  0.00000000000E+00  0.31738975904E+03  0.31738975904E+03  0.00000000000E+00 0. -1.
         -2   -1    0    0    0  501 -0.00000000000E+00 -0.00000000000E+00 -0.53005139990E+02  0.53005139990E+02  0.00000000000E+00 0.  1.
          5    1    1    2  502    0 -0.48614730335E+02 -0.18650843314E+01  0.13799735476E+03  0.14638173679E+03  0.41800000000E+01 0. -1.
         -5    1    1    2    0  502  0.50659963840E+02 -0.86097376804E+01 -0.16849910133E+02  0.54239758395E+02  0.41800000000E+01 0.  1.
        -11    1    1    2    0    0  0.20076498665E+02 -0.31126161966E+02  0.31921675939E+02  0.48896801042E+02  0.00000000000E+00 0.  1.
         11    1    1    2    0    0 -0.22121732170E+02  0.41600983978E+02  0.11131549848E+03  0.12087660280E+03  0.00000000000E+00 0. -1.
</event>
<event>
 6    1  0.6597032E-006  0.1940706E+03  0.7561462E-02  0.1154840E+00
          1   -1    0    0  501    0  0.00000000000E+00  0.00000000000E+00  0.63922199860E+03  0.63922199860E+03  0.00000000000E+00 0. -1.
         -1   -1    0    0    0  501 -0.00000000000E+00 -0.00000000000E+00 -0.93830727149E+02  0.93830727149E+02  0.00000000000E+00 0.  1.
          5    1    1    2  502    0 -0.11164297364E+03  0.13662394553E+02 -0.27323051729E+01  0.11258664433E+03  0.41800000000E+01 0. -1.
         -5    1    1    2    0  502 -0.78069602540E+02 -0.82464860823E+01  0.11927533184E+03  0.14285287732E+03  0.41800000000E+01 0. -1.
        -11    1    1    2    0    0  0.18280664227E+03 -0.16884950494E+02  0.42607233067E+03  0.46394073002E+03  0.00000000000E+00 0. -1.
         11    1    1    2    0    0  0.69059339142E+01  0.11469042023E+02  0.27759141069E+01  0.13672474073E+02  0.00000000000E+00 0.  1.
</event>
<event>
 6    1  0.6597032E-006  0.2814278E+03  0.7561462E-02  0.1094912E+00
         -1   -1    0    0    0  501 -0.00000000000E+00  0.00000000000E+00  0.22456196565E+03  0.22456196565E+03  0.00000000000E+00 0.  1.
          1   -1    0    0  501    0  0.00000000000E+00 -0.00000000000E+00 -0.93085087391E+03  0.93085087391E+03  0.00000000000E+00 0. -1.
          5    1    1    2  502    0  0.16166270869E+02 -0.49608052244E+01 -0.88430243721E+01  0.19535336760E+02  0.41800000000E+01 0. -1.
         -5    1    1    2    0  502 -0.70484896520E+02 -0.26092423960E+03  0.10035585551E+03  0.28833721505E+03  0.41800000000E+01 0.  1.
        -11    1    1    2    0    0  0.19822880750E+02  0.25594420221E+02 -0.38099592041E+02  0.49995998454E+02  0.00000000000E+00 0.  1.
         11    1    1    2    0    0  0.34495744901E+02  0.24029062460E+03 -0.75970214735E+03  0.79754428929E+03  0.00000000000E+00 0. -1.
</event>
<event>
 6    1  0.6597032E-006  0.1559243E+03  0.7561462E-02  0.1193377E+00
          2   -1    0    0  501    0  0.00000000000E+00  0.00000000000E+00  0.14485976149E+03  0.14485976149E+03  0.00000000000E+00 0. -1.
         -2   -1    0    0    0  501 -0.00000000000E+00 -0.00000000000E+00 -0.19913769571E+03  0.19913769571E+03  0.00000000000E+00 0.  1.
          5    1    1    2  502    0 -0.43305391514E+02  0.26388790457E+02  0.25786885171E+02  0.57045254340E+02  0.41800000000E+01 0. -1.
         -5    1    1    2    0  502 -0.77957759331E+02 -0.67950381298E+02 -0.77694524072E+02  0.12941629739E+03  0.41800000000E+01 0. -1.
        -11    1    1    2    0    0  0.46861500740E+02 -0.28847873351E+02  0.11228564244E+01  0.55040538288E+02  0.00000000000E+00 0. -1.
         11    1    1    2    0    0  0.74401650105E+02  0.70409464192E+02 -0.34931517490E+01  0.10249536719E+03  0.00000000000E+00 0.  1.
</event>
<event>
 6    1  0.6597032E-006  0.6788156E+02  0.7561462E-02  0.1367449E+00
         -1   -1    0    0    0  501 -0.00000000000E+00  0.00000000000E+00  0.23888688770E+02  0.23888688770E+02  0.00000000000E+00 0.  1.
          1   -1    0    0  501    0  0.00000000000E+00 -0.00000000000E+00 -0.55425404679E+03  0.55425404679E+03  0.00000000000E+00 0. -1.
          5    1    1    2  502    0  0.15038432507E+02  0.60510868744E+01 -0.30684600993E+03  0.30730232071E+03  0.41800000000E+01 0.  1.
         -5    1    1    2    0  502 -0.80417356569E+01 -0.41162670300E+02 -0.24683716372E+02  0.48844582018E+02  0.41800000000E+01 0.  1.
        -11    1    1    2    0    0 -0.20968003608E+02  0.51341954393E+02 -0.19148438867E+03  0.19935376736E+03  0.00000000000E+00 0. -1.
         11    1    1    2    0    0  0.13971306758E+02 -0.16230370967E+02 -0.73512430420E+01  0.22642065465E+02  0.00000000000E+00 0.  1.
</event>
<event>
 6    1  0.6597032E-006  0.8449880E+02  0.7561462E-02  0.1316748E+00
         -2   -1    0    0    0  501 -0.00000000000E+00  0.00000000000E+00  0.10556517932E+02  0.10556517932E+02  0.00000000000E+00 0.  1.
          2   -1    0    0  501    0  0.00000000000E+00 -0.00000000000E+00 -0.10660997623E+04  0.10660997623E+04  0.00000000000E+00 0. -1.
          5    1    1    2  502    0  0.12388562656E+02  0.46652595128E+02 -0.56221130423E+03  0.56429510375E+03  0.41800000000E+01 0. -1.
         -5    1    1    2    0  502 -0.13814910616E+02 -0.21779592918E+02 -0.33664895568E+02  0.42614551700E+02  0.41800000000E+01 0.  1.
        -11    1    1    2    0    0  0.25582433162E+02  0.27001726158E+02 -0.13290710066E+03  0.13801395404E+03  0.00000000000E+00 0. -1.
         11    1    1    2    0    0 -0.24156085202E+02 -0.51874728368E+02 -0.32675994386E+03  0.33173267070E+03  0.00000000000E+00 0.  1.
</event>
<event>
 6    1  0.6597032E-006  0.1068345E+03  0.7561462E-02  0.1266547E+00
          2   -1    0    0  501    0  0.00000000000E+00  0.00000000000E+00  0.58023925117E+02  0.58023925117E+02  0.00000000000E+00 0. -1.
         -2   -1    0    0    0  501 -0.00000000000E+00 -0.00000000000E+00 -0.22889968876E+03  0.22889968876E+03  0.00000000000E+00 0.  1.
          5    1    1    2  502    0  0.48366218205E+02  0.29697608742E+01  0.96869045325E+00  0.48646904365E+02  0.41800000000E+01 0.  1.
         -5    1    1    2    0  502 -0.59153248721E+02 -0.34669564495E+02 -0.70077144370E+02  0.98129323342E+02  0.41800000000E+01 0.  1.
        -11    1    1    2    0    0 -0.24543711103E+02 -0.21398163675E+02 -0.33152039028E+02  0.46468622263E+02  0.00000000000E+00 0.  1.
         11    1    1    2    0    0  0.35330741619E+02  0.53097967295E+02 -0.68615270701E+02  0.93678763909E+02  0.00000000000E+00 0. -1.
</event>
<event>
 6    1  0.6597032E-006  0.1163174E+03  0.7561462E-02  0.1249299E+00
          2   -1    0    0  501    0  0.00000000000E+00  0.00000000000E+00  0.83525219377E+03  0.83525219377E+03  0.00000000000E+00 0. -1.
         -2   -1    0    0    0  501 -0.00000000000E+00 -0.00000000000E+00 -0.22526376030E+02  0.22526376030E+02  0.00000000000E+00 0.  1.
          5    1    1    2  502    0  0.25043456015E+02 -0.95480400387E+01  0.10746163937E+02  0.29176912056E+02  0.41800000000E+01 0. -1.
         -5    1    1    2    0  502 -0.56038172002E+02  0.71404006196E+02  0.28828864555E+03  0.30226912574E+03  0.41800000000E+01 0. -1.
        -11    1    1    2    0    0 -0.20790865849E+02  0.12330057977E+02  0.10458658009E+03  0.10734357534E+03  0.00000000000E+00 0. -1.
         11    1    1    2    0    0  0.51785581835E+02 -0.74186024134E+02  0.40910442817E+03  0.41898895667E+03  0.00000000000E+00 0.  1.
</event>
<event>
 6    1  0.6597032E-006  0.9160310E+02  0.7561462E-02  0.1299015E+00
          2   -1    0    0  501    0  0.00000000000E+00  0.00000000000E+00  0.47376792981E+03  0.47376792981E+03  0.00000000000E+00 0. -1.
         -2   -1    0    0    0  501 -0.00000000000E+00 -0.00000000000E+00 -0.32089343371E+02  0.32089343371E+02  0.00000000000E+00 0.  1.
          5    1    1    2  502    0 -0.12928665592E+02  0.80843836381E+01 -0.69111566270E+01  0.17255264087E+02  0.41800000000E+01 0.  1.
         -5    1    1    2    0  502 -0.87959309311E+00 -0.65929071577E+02  0.29625159110E+03  0.30352906581E+03  0.41800000000E+01 0.  1.
        -11    1    1    2    0    0 -0.33261561764E+02  0.11292109420E+02  0.30997351786E+02  0.46847401677E+02  0.00000000000E+00 0. -1.
         11    1    1    2    0    0  0.47069820449E+02  0.46552578519E+02  0.12134080018E+03  0.13822554160E+03  0.00000000000E+00 0.  1.
</event>
<event>
 6    1  0.6597032E-006  0.2133292E+03  0.7561462E-02  0.1138956E+00
         -1   -1    0    0    0  501 -0.00000000000E+00  0.00000000000E+00  0.21691932998E+03  0.21691932998E+03  0.00000000000E+00 0.  1.
          1   -1    0    0  501    0  0.00000000000E+00 -0.00000000000E+00 -0.43517772757E+03  0.43517772757E+03  0.00000000000E+00 0. -1.
          5    1    1    2  502    0 -0.13347548474E+03  0.97749635224E+02  0.86186362672E+02  0.18659115125E+03  0.41800000000E+01 0.  1.
         -5    1    1    2    0  502  0.22718697571E+02  0.59694265654E+02  0.29399765103E+02  0.70436944564E+02  0.41800000000E+01 0.  1.
        -11    1    1    2    0    0  0.82985971731E+02 -0.81580870210E+02 -0.12323217457E+03  0.16949418497E+03  0.00000000000E+00 0. -1.
         11    1    1    2    0    0  0.27770815437E+02 -0.75863030669E+02 -0.21061235079E+03  0.22557477678E+03  0.00000000000E+00 0.  1.
</event>
<event>
 6    1  0.6597032E-006  0.1424674E+03  0.7561462E-02  0.1210047E+00
          1   -1    0    0  501    0  0.00000000000E+00  0.00000000000E+00  0.12403876229E+04  0.12403876229E+04  0.00000000000E+00 0. -1.
         -1   -1    0    0    0  501 -0.00000000000E+00 -0.00000000000E+00 -0.18836607335E+02  0.18836607335E+02  0.00000000000E+00 0.  1.
          5    1    1    2  502    0  0.20094818587E+02 -0.70403088664E+01  0.42768133771E+02  0.47957828863E+02  0.41800000000E+01 0. -1.
         -5    1    1    2    0  502 -0.12619280303E+03  0.36433331131E+02  0.47555511833E+03  0.49337830731E+03  0.41800000000E+01 0.  1.
        -11    1    1    2    0    0  0.11451775269E+03 -0.15478868457E+02  0.67863961531E+03  0.68840804652E+03  0.00000000000E+00 0. -1.
         11    1    1    2    0    0 -0.84197682426E+01 -0.13914153808E+02  0.24588148172E+02  0.29480047557E+02  0.00000000000E+00 0.  1.
</event>
<event>
 6    1  0.6597032E-006  0.1096124E+03  0.7561462E-02  0.1261289E+00
         -3   -1    0    0    0  501 -0.00000000000E+00  0.00000000000E+00  0.21351146626E+03  0.21351146626E+03  0.00000000000E+00 0.  1.
          3   -1    0    0  501    0  0.00000000000E+00 -0.00000000000E+00 -0.69352039086E+02  0.69352039086E+02  0.00000000000E+00 0. -1.
          5    1    1    2  502    0  0.41741723866E+01  0.63118212342E+02  0.47076285767E+02  0.78961899205E+02  0.41800000000E+01 0. -1.
         -5    1    1    2    0  502  0.49258650185E+02 -0.52741243813E+02  0.35890225977E+02  0.80707088522E+02  0.41800000000E+01 0. -1.
        -11    1    1    2    0    0 -0.28835432036E+02 -0.37253648176E+02  0.71234244096E+02  0.85402774984E+02  0.00000000000E+00 0.  1.
         11    1    1    2    0    0 -0.24597390536E+02  0.26876679646E+02 -0.10041328666E+02  0.37791742635E+02  0.00000000000E+00 0. -1.
</event>
<event>
 6    1  0.6597032E-006  0.9755130E+02  0.7561462E-02  0.1285531E+00
          1   -1    0    0  501    0  0.00000000000E+00  0.00000000000E+00  0.43691409606E+03  0.43691409606E+03  0.00000000000E+00 0. -1.
         -1   -1    0    0    0  501 -0.00000000000E+00 -0.00000000000E+00 -0.43512925100E+02  0.43512925100E+02  0.00000000000E+00 0.  1.
          5    1    1    2  502    0 -0.66951173276E+00  0.42525945956E+02  0.15611529220E+03  0.16185907816E+03  0.41800000000E+01 0.  1.
         -5    1    1    2    0  502 -0.25068266416E+02  0.25939172596E+02 -0.16024943966E+02  0.39692945030E+02  0.41800000000E+01 0.  1.
        -11    1    1    2    0    0 -0.14044414934E+02 -0.74502270711E+02  0.15177681266E+03  0.16965858302E+03  0.00000000000E+00 0.  1.
         11    1    1    2    0    0  0.39782193083E+02  0.60371521591E+01  0.10153401007E+03  0.10921641494E+03  0.00000000000E+00 0. -1.
</event>
<event>
 6    1  0.6597032E-006  0.1212148E+03  0.7561462E-02  0.1241106E+00
         -2   -1    0    0    0  501 -0.00000000000E+00  0.00000000000E+00  0.34884781060E+02  0.34884781060E+02  0.00000000000E+00 0.  1.
          2   -1    0    0  501    0  0.00000000000E+00 -0.00000000000E+00 -0.65909725355E+03  0.65909725355E+03  0.00000000000E+00 0. -1.
          5    1    1    2  502    0 -0.47094466492E+01 -0.11734733528E+03 -0.21994528334E+03  0.24937116122E+03  0.41800000000E+01 0.  1.
         -5    1    1    2    0  502 -0.17095857644E+01  0.23910523855E+02 -0.55481778109E+01  0.24957774571E+02  0.41800000000E+01 0.  1.
        -11    1    1    2    0    0 -0.11677925779E+02  0.10540280257E+02 -0.44373545055E+01  0.16345077956E+02  0.00000000000E+00 0.  1.
         11    1    1    2    0    0  0.18096958193E+02  0.82896531170E+02 -0.39428165683E+03  0.40330802086E+03  0.00000000000E+00 0. -1.
</event>
<event>
 6    1  0.6597032E-006  0.1078679E+03  0.7561462E-02  0.1264570E+00
          2   -1    0    0  501    0  0.00000000000E+00  0.00000000000E+00  0.75945959612E+03  0.75945959612E+03  0.00000000000E+00 0. -1.
         -2   -1    0    0    0  501 -0.00000000000E+00 -0.00000000000E+00 -0.15997142410E+02  0.15997142410E+02  0.00000000000E+00 0.  1.
          5    1    1    2  502    0  0.63638670338E+02  0.34160201280E+02  0.27256722831E+03  0.28200561353E+03  0.41800000000E+01 0. -1.
         -5    1    1    2    0  502 -0.48748230064E+02 -0.19444482300E+02  0.14317248642E+03  0.15254609498E+03  0.41800000000E+01 0. -1.
        -11    1    1    2    0    0 -0.43394678657E+02 -0.35002413885E+02  0.24155625584E+03  0.24790661922E+03  0.00000000000E+00 0. -1.
         11    1    1    2    0    0  0.28504238383E+02  0.20286694905E+02  0.86166483144E+02  0.92998410811E+02  0.00000000000E+00 0.  1.
</event>
<event>
 6    1  0.6597032E-006  0.1114444E+03  0.7561462E-02  0.1257918E+00
         -2   -1    0    0    0  501 -0.00000000000E+00  0.00000000000E+00  0.38264376352E+03  0.38264376352E+03  0.00000000000E+00 0. -1.
          2   -1    0    0  501    0  0.00000000000E+00 -0.00000000000E+00 -0.60015019927E+02  0.60015019927E+02  0.00000000000E+00 0.  1.
          5    1    1    2  502    0 -0.63101102652E+02  0.77597381974E+02  0.95930698018E+02  0.13864802223E+03  0.41800000000E+01 0. -1.
         -5    1    1    2    0  502  0.40114001810E+01 -0.53858475369E+00  0.17551961784E+03  0.17561603017E+03  0.41800000000E+01 0. -1.
        -11    1    1    2    0    0  0.66714984134E+02 -0.37198801574E+02  0.26261774140E+02  0.80773267406E+02  0.00000000000E+00 0. -1.
         11    1    1    2    0    0 -0.76252816634E+01 -0.39859995646E+02  0.24916653594E+02  0.47621463645E+02  0.00000000000E+00 0.  1.
</event>
<event>
 6    1  0.6597032E-006  0.1463250E+03  0.7561462E-02  0.1205063E+00
         -1   -1    0    0    0  501 -0.00000000000E+00  0.00000000000E+00  0.17055773028E+03  0.17055773028E+03  0.00000000000E+00 0.  1.
          1   -1    0    0  501    0  0.00000000000E+00 -0.00000000000E+00 -0.14543963222E+03  0.14543963222E+03  0.00000000000E+00 0. -1.
          5    1    1    2  502    0 -0.22308094114E+02 -0.16257390282E+02 -0.98984764016E+00  0.27935747710E+02  0.41800000000E+01 0.  1.
         -5    1    1    2    0  502  0.10781251239E+03  0.90395339200E+02 -0.54438451527E+00  0.14075732283E+03  0.41800000000E+01 0.  1.
        -11    1    1    2    0    0 -0.32902274490E+02  0.20728887638E+00  0.43647191587E+02  0.54659674064E+02  0.00000000000E+00 0.  1.
         11    1    1    2    0    0 -0.52602143781E+02 -0.74345237795E+02 -0.16994861367E+02  0.92644617900E+02  0.00000000000E+00 0. -1.
</event>
<event>
 6    1  0.6597032E-006  0.5034508E+02  0.7561462E-02  0.1443489E+00
          1   -1    0    0  501    0  0.00000000000E+00  0.00000000000E+00  0.52908190891E+02  0.52908190891E+02  0.00000000000E+00 0. -1.
         -1   -1    0    0    0  501 -0.00000000000E+00 -0.00000000000E+00 -0.29625112083E+03  0.29625112083E+03  0.00000000000E+00 0.  1.
          5    1    1    2  502    0  0.25558046002E+02 -0.74495331838E+01  0.43778866840E+01  0.27301054044E+02  0.41800000000E+01 0. -1.
         -5    1    1    2    0  502 -0.24463766360E+02  0.10024310300E+02 -0.22277866775E+03  0.22438085896E+03  0.41800000000E+01 0. -1.
        -11    1    1    2    0    0 -0.14626981852E+02 -0.20084587644E+02 -0.54883432885E+02  0.60245584603E+02  0.00000000000E+00 0.  1.
         11    1    1    2    0    0  0.13532702210E+02  0.17509810528E+02  0.29941284015E+02  0.37231814115E+02  0.00000000000E+00 0. -1.
</event>
<event>
 6    1  0.6597032E-006  0.1165185E+03  0.7561462E-02  0.1248953E+00
         -1   -1    0    0    0  501 -0.00000000000E+00  0.00000000000E+00  0.10312151323E+03  0.10312151323E+03  0.00000000000E+00 0.  1.
          1   -1    0    0  501    0  0.00000000000E+00 -0.00000000000E+00 -0.16600223753E+03  0.16600223753E+03  0.00000000000E+00 0. -1.
          5    1    1    2  502    0 -0.56612405226E+02  0.16850127153E+02 -0.13577290060E+02  0.60751184482E+02  0.41800000000E+01 0.  1.
         -5    1    1    2    0  502  0.24141171255E+02 -0.81193700975E+02 -0.73785743039E+01  0.85130070988E+02  0.41800000000E+01 0.  1.
        -11    1    1    2    0    0 -0.11767003444E+02  0.32333494388E+02  0.20700126642E+02  0.40154856150E+02  0.00000000000E+00 0.  1.
         11    1    1    2    0    0  0.44238237415E+02  0.32010079433E+02 -0.62624986575E+02  0.83087639144E+02  0.00000000000E+00 0. -1.
</event>
<event>
 6    1  0.6597032E-006  0.1302536E+03  0.7561462E-02  0.1227080E+00
          1   -1    0    0  501    0  0.00000000000E+00  0.00000000000E+00  0.29218715311E+02  0.29218715311E+02  0.00000000000E+00 0. -1.
         -1   -1    0    0    0  501 -0.00000000000E+00 -0.00000000000E+00 -0.66382357928E+03  0.66382357928E+03  0.00000000000E+00 0.  1.
          5    1    1    2  502    0  0.38886180284E+02  0.90807605607E+02 -0.36736520441E+03  0.38043767172E+03  0.41800000000E+01 0. -1.
         -5    1    1    2    0  502  0.10261152952E+02 -0.34417041577E+02 -0.50448282565E+02  0.62067105817E+02  0.41800000000E+01 0. -1.
        -11    1    1    2    0    0 -0.75653818810E+02 -0.16254914020E+02 -0.12874181813E+03  0.15020711789E+03  0.00000000000E+00 0. -1.
         11    1    1    2    0    0  0.26506485575E+02 -0.40135650009E+02 -0.88049558871E+02  0.10033039917E+03  0.00000000000E+00 0.  1.
</event>
<event>
 6    1  0.6597032E-006  0.1089450E+03  0.7561462E-02  0.1262536E+00
          2   -1    0    0  501    0  0.00000000000E+00  0.00000000000E+00  0.29953182432E+02  0.29953182432E+02  0.00000000000E+00 0. -1.
         -2   -1    0    0    0  501 -0.00000000000E+00 -0.00000000000E+00 -0.52975945070E+03  0.52975945070E+03  0.00000000000E+00 0.  1.
          5    1    1    2  502    0 -0.35120152406E+02 -0.45176855419E+02 -0.17658313059E+03  0.18567026628E+03  0.41800000000E+01 0.  1.
         -5    1    1    2    0  502  0.34053540642E+02  0.58965464860E+02 -0.24025957063E+03  0.24975728889E+03  0.41800000000E+01 0.  1.
        -11    1    1    2    0    0 -0.19296181088E+02 -0.48418451532E+02 -0.42332658648E+02  0.67147174487E+02  0.00000000000E+00 0.  1.
         11    1    1    2    0    0  0.20362792852E+02  0.34629842091E+02 -0.40630908399E+02  0.57137903473E+02  0.00000000000E+00 0. -1.
</event>
<event>
 6    1  0.6597032E-006  0.8572466E+02  0.7561462E-02  0.1313548E+00
         -3   -1    0    0    0  501 -0.00000000000E+00  0.00000000000E+00  0.39749640383E+02  0.39749640383E+02  0.00000000000E+00 0. -1.
          3   -1    0    0  501    0  0.00000000000E+00 -0.00000000000E+00 -0.43435771035E+03  0.43435771035E+03  0.00000000000E+00 0.  1.
          5    1    1    2  502    0  0.31618439146E+02  0.39846591537E+02 -0.13238758037E+03  0.14188523668E+03  0.41800000000E+01 0. -1.
         -5    1    1    2    0  502 -0.32592827492E+01 -0.15514094901E+02  0.23132817194E+02  0.28353301324E+02  0.41800000000E+01 0. -1.
        -11    1    1    2    0    0 -0.57029454351E+01  0.37620502308E+02 -0.11803088908E+03  0.12401256613E+03  0.00000000000E+00 0.  1.
         11    1    1    2    0    0 -0.22656210961E+02 -0.61952998944E+02 -0.16732241770E+03  0.17985624660E+03  0.00000000000E+00 0. -1.
</event>
<event>
 6    1  0.6597032E-006  0.9861299E+02  0.7561462E-02  0.1283240E+00
         -2   -1    0    0    0  501 -0.00000000000E+00  0.00000000000E+00  0.17056573269E+03  0.17056573269E+03  0.00000000000E+00 0.  1.
          2   -1    0    0  501    0  0.00000000000E+00 -0.00000000000E+00 -0.73874928633E+02  0.73874928633E+02  0.00000000000E+00 0. -1.
          5    1    1    2  502    0 -0.40387184659E+02 -0.36432892224E+02  0.79375045377E+02  0.96313812868E+02  0.41800000000E+01 0. -1.
         -5    1    1    2    0  502  0.27601010002E+02  0.46568045150E+02  0.30180238946E+01  0.54378115547E+02  0.41800000000E+01 0. -1.
        -11    1    1    2    0    0 -0.35165720355E+02  0.97123678046E+01  0.19888617517E+02  0.41551354770E+02  0.00000000000E+00 0.  1.
         11    1    1    2    0    0  0.47951895012E+02 -0.19847520730E+02 -0.55908827364E+01  0.52197378135E+02  0.00000000000E+00 0. -1.
</event>
<event>
 6    1  0.6597032E-006  0.1504876E+03  0.7561462E-02  0.1199875E+00
         -2   -1    0    0    0  501 -0.00000000000E+00  0.00000000000E+00  0.10161928047E+03  0.10161928047E+03  0.00000000000E+00 0.  1.
          2   -1    0    0  501    0  0.00000000000E+00 -0.00000000000E+00 -0.24101348359E+03  0.24101348359E+03  0.00000000000E+00 0. -1.
          5    1    1    2  502    0  0.28712533981E+02  0.13061395054E+02 -0.33913317424E+01  0.31999737177E+02  0.41800000000E+01 0.  1.
         -5    1    1    2    0  502 -0.13040432775E+03  0.31490515600E+02 -0.57015996242E+02  0.14582605218E+03  0.41800000000E+01 0.  1.
        -11    1    1    2    0    0  0.11274802790E+03 -0.49109657255E+02 -0.86796391732E+02  0.15052405073E+03  0.00000000000E+00 0. -1.
         11    1    1    2    0    0 -0.11056234135E+02  0.45577466004E+01  0.78095165992E+01  0.14282923959E+02  0.00000000000E+00 0.  1.
</event>
<event>
 6    1  0.6597032E-006  0.1094383E+03  0.7561462E-02  0.1261614E+00
         -1   -1    0    0    0  501 -0.00000000000E+00  0.00000000000E+00  0.39190952397E+02  0.39190952397E+02  0.00000000000E+00 0.  1.
          1   -1    0    0  501    0  0.00000000000E+00 -0.00000000000E+00 -0.43115126978E+03  0.43115126978E+03  0.00000000000E+00 0. -1.
          5    1    1    2  502    0  0.68891529364E+02 -0.33425387671E+02 -0.80214619472E+02  0.11097367677E+03  0.41800000000E+01 0. -1.
         -5    1    1    2    0  502 -0.19485580686E+02  0.36431402878E+02 -0.13631690271E+02  0.43706182056E+02  0.41800000000E+01 0.  1.
        -11    1    1    2    0    0  0.35953029654E+01 -0.37341007371E+02 -0.76136072302E+02  0.84876254279E+02  0.00000000000E+00 0. -1.
         11    1    1    2    0    0 -0.53001251643E+02  0.34334992164E+02 -0.22197793534E+03  0.23078610907E+03  0.00000000000E+00 0.  1.
</event>
<event>
 6    1  0.6597032E-006  0.1702903E+03  0.7561462E-02  0.1177546E+00
         -3   -1    0    0    0  501 -0.00000000000E+00  0.00000000000E+00  0.55918600839E+03  0.55918600839E+03  0.00000000000E+00 0.  1.
          3   -1    0    0  501    0  0.00000000000E+00 -0.00000000000E+00 -0.74514181247E+02  0.74514181247E+02  0.00000000000E+00 0. -1.
          5    1    1    2  502    0 -0.15874255567E+02  0.17698042083E+02  0.12428996449E+03  0.12661232308E+03  0.41800000000E+01 0.  1.
         -5    1    1    2    0  502  0.14093593977E+03  0.75385763967E+02  0.22889983929E+03  0.27921060394E+03  0.41800000000E+01 0.  1.
        -11    1    1    2    0    0 -0.10881297203E+03 -0.86574961593E+02  0.14851712817E+03  0.20345226520E+03  0.00000000000E+00 0.  1.
         11    1    1    2    0    0 -0.16248712175E+02 -0.65088444563E+01 -0.17035104795E+02  0.24424997418E+02  0.00000000000E+00 0. -1.
</event>
<event>
 6    1  0.6597032E-006  0.1511644E+03  0.7561462E-02  0.1199049E+00
          2   -1    0    0  501    0  0.00000000000E+00  0.00000000000E+00  0.77521996065E+02  0.77521996065E+02  0.00000000000E+00 0. -1.
         -2   -1    0    0    0  501 -0.00000000000E+00 -0.00000000000E+00 -0.37390211054E+03  0.37390211054E+03  0.00000000000E+00 0.  1.
          5    1    1    2  502    0 -0.90019105403E+02 -0.46774829865E+02 -0.24097367985E+02  0.10435266930E+03  0.41800000000E+01 0. -1.
         -5    1    1    2    0  502  0.10263623245E+03  0.19584163547E+02 -0.20003809576E+03  0.22572205880E+03  0.41800000000E+01 0.  1.
        -11    1    1    2    0    0 -0.16177081078E+02 -0.32565840793E+02 -0.37024469939E+02  0.51894540301E+02  0.00000000000E+00 0.  1.
         11    1    1    2    0    0  0.35599540272E+01  0.59756507111E+02 -0.35220180794E+02  0.69454838204E+02  0.00000000000E+00 0. -1.
</event>
<event>
 6    1  0.6597032E-006  0.2739363E+03  0.7561462E-02  0.1099048E+00
         -2   -1    0    0    0  501 -0.00000000000E+00  0.00000000000E+00  0.45482544023E+03  0.45482544023E+03  0.00000000000E+00 0. -1.
          2   -1    0    0  501    0  0.00000000000E+00 -0.00000000000E+00 -0.63396675332E+03  0.63396675332E+03  0.00000000000E+00 0.  1.
          5    1    1    2  502    0 -0.11032166366E+03  0.10969984813E+03  0.18998058443E+03  0.24559116640E+03  0.41800000000E+01 0. -1.
         -5    1    1    2    0  502  0.13946511881E+02  0.13151740410E+03  0.18306215251E+03  0.22587730487E+03  0.41800000000E+01 0. -1.
        -11    1    1    2    0    0  0.15109136990E+02 -0.47452999972E+02 -0.20962038704E+03  0.21545482100E+03  0.00000000000E+00 0.  1.
         11    1    1    2    0    0  0.81266014785E+02 -0.19376425226E+03 -0.34256366299E+03  0.40186890128E+03  0.00000000000E+00 0. -1.
</event>
<event>
 6    1  0.6597032E-006  0.1056952E+03  0.7561462E-02  0.1268756E+00
         -1   -1    0    0    0  501 -0.00000000000E+00  0.00000000000E+00  0.48058677463E+03  0.48058677463E+03  0.00000000000E+00 0.  1.
          1   -1    0    0  501    0  0.00000000000E+00 -0.00000000000E+00 -0.29995903153E+02  0.29995903153E+02  0.00000000000E+00 0. -1.
          5    1    1    2  502    0  0.62119883460E+02 -0.66624033311E+01  0.20139303572E+03  0.21090257176E+03  0.41800000000E+01 0.  1.
         -5    1    1    2    0  502 -0.39937165066E+02 -0.21734340086E+02  0.30127437117E+02  0.54703688722E+02  0.41800000000E+01 0.  1.
        -11    1    1    2    0    0 -0.53583110415E+02  0.42790457407E+02  0.18108680888E+03  0.19363523780E+03  0.00000000000E+00 0.  1.
         11    1    1    2    0    0  0.31400392021E+02 -0.14393713990E+02  0.37983589756E+02  0.51341179498E+02  0.00000000000E+00 0. -1.
</event>
<event>
 6    1  0.6597032E-006  0.1095322E+03  0.7561462E-02  0.1261439E+00
         -1   -1    0    0    0  501 -0.00000000000E+00  0.00000000000E+00  0.18453058631E+02  0.18453058631E+02  0.00000000000E+00 0.  1.
          1   -1    0    0  501    0  0.00000000000E+00 -0.00000000000E+00 -0.10573756642E+04  0.10573756642E+04  0.00000000000E+00 0. -1.
          5    1    1    2  502    0 -0.29238176035E+02 -0.31018766031E+02 -0.53632683137E+03  0.53803436436E+03  0.41800000000E+01 0.  1.
         -5    1    1    2    0  502 -0.27299281435E+01 -0.50215429711E+02 -0.64724535410E+02  0.82071796452E+02  0.41800000000E+01 0.  1.
        -11    1    1    2    0    0  0.36302758795E+02  0.10006516607E+03 -0.35422390385E+03  0.36987227771E+03  0.00000000000E+00 0.  1.
         11    1    1    2    0    0 -0.43346546163E+01 -0.18830970329E+02 -0.83647334901E+02  0.85850284275E+02  0.00000000000E+00 0. -1.
</event>
<event>
 6    1  0.6597032E-006  0.1081216E+03  0.7561462E-02  0.1264088E+00
          1   -1    0    0  501    0  0.00000000000E+00  0.00000000000E+00  0.61647630349E+03  0.61647630349E+03  0.00000000000E+00 0. -1.
         -1   -1    0    0    0  501 -0.00000000000E+00 -0.00000000000E+00 -0.29334762666E+02  0.29334762666E+02  0.00000000000E+00 0.  1.
          5    1    1    2  502    0 -0.66141013299E+02 -0.25790109722E+02  0.27698069566E+03  0.28596423128E+03  0.41800000000E+01 0. -1.
         -5    1    1    2    0  502  0.36411936337E+02 -0.45532873310E+02  0.72103016173E+02  0.92819119803E+02  0.41800000000E+01 0. -1.
        -11    1    1    2    0    0  0.21452431795E+01  0.54134104374E+02  0.42690026994E+02  0.68974935516E+02  0.00000000000E+00 0.  1.
         11    1    1    2    0    0  0.27583833782E+02  0.17188878658E+02  0.19536780199E+03  0.19805277956E+03  0.00000000000E+00 0. -1.
</event>
<event>
 6    1  0.6597032E-006  0.1098280E+03  0.7561462E-02  0.1260889E+00
          1   -1    0    0  501    0  0.00000000000E+00  0.00000000000E+00  0.46970137468E+02  0.46970137468E+02  0.00000000000E+00 0. -1.
         -1   -1    0    0    0  501 -0.00000000000E+00 -0.00000000000E+00 -0.28105404337E+03  0.28105404337E+03  0.00000000000E+00 0.  1.
          5    1    1    2  502    0 -0.31340846027E+02  0.66329011584E+02 -0.11211063643E+03  0.13404496860E+03  0.41800000000E+01 0.  1.
         -5    1    1    2    0  502  0.28570153237E+02 -0.44654348592E+02 -0.67812237233E+02  0.86175613852E+02  0.41800000000E+01 0.  1.
        -11    1    1    2    0    0  0.43547780446E+02  0.56521560294E+01 -0.29195925969E+02  0.52732894314E+02  0.00000000000E+00 0.  1.
         11    1    1    2    0    0 -0.40777087656E+02 -0.27326819022E+02 -0.24965106271E+02  0.55070704069E+02  0.00000000000E+00 0. -1.
</event>
<event>
 6    1  0.6597032E-006  0.7613986E+02  0.7561462E-02  0.1340377E+00
         -2   -1    0    0    0  501 -0.00000000000E+00  0.00000000000E+00  0.26444141868E+03  0.26444141868E+03  0.00000000000E+00 0.  1.
          2   -1    0    0  501    0  0.00000000000E+00 -0.00000000000E+00 -0.63367934440E+02  0.63367934440E+02  0.00000000000E+00 0. -1.
          5    1    1    2  502    0 -0.66711768551E+01 -0.14515651917E+02 -0.79822777294E+01  0.18341153425E+02  0.41800000000E+01 0. -1.
         -5    1    1    2    0  502  0.28499609758E+02  0.28702365326E+02  0.21000601009E+03  0.21390663899E+03  0.41800000000E+01 0.  1.
        -11    1    1    2    0    0 -0.52267872166E+02  0.13470170681E+02 -0.51472524810E+01  0.54220569593E+02  0.00000000000E+00 0. -1.
         11    1    1    2    0    0  0.30439439263E+02 -0.27656884089E+02  0.41970043590E+01  0.41340991107E+02  0.00000000000E+00 0.  1.
</event>
<event>
 6    1  0.6597032E-006  0.1049193E+03  0.7561462E-02  0.1270279E+00
         -2   -1    0    0    0  501 -0.00000000000E+00  0.00000000000E+00  0.77208029950E+02  0.77208029950E+02  0.00000000000E+00 0.  1.
          2   -1    0    0  501    0  0.00000000000E+00 -0.00000000000E+00 -0.27105263386E+03  0.27105263386E+03  0.00000000000E+00 0. -1.
          5    1    1    2  502    0 -0.20135457951E+02 -0.24479395463E+02 -0.23220734905E+02  0.39513951950E+02  0.41800000000E+01 0. -1.
         -5    1    1    2    0  502  0.32066349641E+02  0.69107115931E+02  0.31383565335E+02  0.82501180747E+02  0.41800000000E+01 0.  1.
        -11    1    1    2    0    0 -0.63689946700E+01  0.28006621521E+02 -0.65390294647E+02  0.71420064241E+02  0.00000000000E+00 0.  1.
         11    1    1    2    0    0 -0.55618970195E+01 -0.72634341989E+02 -0.13661713969E+03  0.15482546687E+03  0.00000000000E+00 0. -1.
</event>
<event>
 6    1  0.6597032E-006  0.1285334E+03  0.7561462E-02  0.1229648E+00
          4   -1    0    0  501    0  0.00000000000E+00  0.00000000000E+00  0.34814324467E+02  0.34814324467E+02  0.00000000000E+00 0. -1.
         -4   -1    0    0    0  501 -0.00000000000E+00 -0.00000000000E+00 -0.51260383310E+03  0.51260383310E+03  0.00000000000E+00 0.  1.
          5    1    1    2  502    0 -0.53485152218E+02  0.41618161412E+02 -0.95476225419E+02  0.11715764972E+03  0.41800000000E+01 0. -1.
         -5    1    1    2    0  502  0.65808936223E+02  0.34385882094E+02 -0.18660041090E+03  0.20087406682E+03  0.41800000000E+01 0. -1.
        -11    1    1    2    0    0 -0.48884435253E+02 -0.50060131948E+02 -0.14916864755E+03  0.16476343718E+03  0.00000000000E+00 0.  1.
         11    1    1    2    0    0  0.36560651249E+02 -0.25943911558E+02 -0.46544224760E+02  0.64623003839E+02  0.00000000000E+00 0. -1.
</event>
<event>
 6    1  0.6597032E-006  0.1249099E+03  0.7561462E-02  0.1235210E+00
          1   -1    0    0  501    0  0.00000000000E+00  0.00000000000E+00  0.38526145743E+02  0.38526145743E+02  0.00000000000E+00 0. -1.
         -1   -1    0    0    0  501 -0.00000000000E+00 -0.00000000000E+00 -0.48972045215E+03  0.48972045215E+03  0.00000000000E+00 0.  1.
          5    1    1    2  502    0 -0.34894415169E+02  0.94149422796E+02 -0.10466422997E+03  0.14509930206E+03  0.41800000000E+01 0. -1.
         -5    1    1    2    0  502  0.27234711359E+02 -0.10733093497E+02 -0.13289380323E+03  0.13614390966E+03  0.41800000000E+01 0. -1.
        -11    1    1    2    0    0 -0.18715733100E+02  0.11009889461E+02 -0.18113025861E+02  0.28276810946E+02  0.00000000000E+00 0.  1.
         11    1    1    2    0    0  0.26375436910E+02 -0.94426218760E+02 -0.19552324734E+03  0.21872657523E+03  0.00000000000E+00 0. -1.
</event>
<event>
 6    1  0.6597032E-006  0.2237513E+03  0.7561462E-02  0.1131117E+00
          2   -1    0    0  501    0  0.00000000000E+00  0.00000000000E+00  0.13626343448E+03  0.13626343448E+03  0.00000000000E+00 0. -1.
         -2   -1    0    0    0  501 -0.00000000000E+00 -0.00000000000E+00 -0.43941658554E+03  0.43941658554E+03  0.00000000000E+00 0.  1.
          5    1    1    2  502    0 -0.83468202123E+02 -0.90549739780E+02 -0.16238435053E+03  0.20384392519E+03  0.41800000000E+01 0. -1.
         -5    1    1    2    0  502 -0.89007268519E+02 -0.44018283936E+02 -0.66615637983E+01  0.99607991658E+02  0.41800000000E+01 0. -1.
        -11    1    1    2    0    0  0.10353782219E+03  0.11160056042E+03 -0.12873354523E+03  0.19936672585E+03  0.00000000000E+00 0.  1.
         11    1    1    2    0    0  0.68937648456E+02  0.22967463295E+02 -0.53736915064E+01  0.72861377322E+02  0.00000000000E+00 0. -1.
</event>
<event>
 6    1  0.6597032E-006  0.1397239E+03  0.7561462E-02  0.1213701E+00
         -2   -1    0    0    0  501 -0.00000000000E+00  0.00000000000E+00  0.17724599631E+03  0.17724599631E+03  0.00000000000E+00 0.  1.
          2   -1    0    0  501    0  0.00000000000E+00 -0.00000000000E+00 -0.20566177804E+03  0.20566177804E+03  0.00000000000E+00 0. -1.
          5    1    1    2  502    0  0.55248387089E+02  0.19034806805E+02  0.95329044209E+02  0.11189194437E+03  0.41800000000E+01 0.  1.
         -5    1    1    2    0  502  0.42395356094E+02 -0.68503425587E+02  0.19299713517E+01  0.80692519634E+02  0.41800000000E+01 0.  1.
        -11    1    1    2    0    0 -0.11301233187E+03  0.52364345673E+02 -0.12180356099E+03  0.17421228235E+03  0.00000000000E+00 0.  1.
         11    1    1    2    0    0  0.15368588689E+02 -0.28957268910E+01 -0.38712363086E+01  0.16111027995E+02  0.00000000000E+00 0. -1.
</event>
<event>
 6    1  0.6597032E-006  0.1344250E+03  0.7561462E-02  0.1221034E+00
          4   -1    0    0  501    0  0.00000000000E+00  0.00000000000E+00  0.95963267091E+02  0.95963267091E+02  0.00000000000E+00 0. -1.
         -4   -1    0    0    0  501 -0.00000000000E+00 -0.00000000000E+00 -0.20212147649E+03  0.20212147649E+03  0.00000000000E+00 0.  1.
          5    1    1    2  502    0  0.67558932107E+02  0.30794314889E+02 -0.55287753924E+02  0.92664487647E+02  0.41800000000E+01 0. -1.
         -5    1    1    2    0  502  0.14715439537E+02 -0.69138741729E+02  0.19490607786E+01  0.70837708931E+02  0.41800000000E+01 0. -1.
        -11    1    1    2    0    0 -0.70587718128E+02  0.64127369502E+02 -0.43077551266E+02  0.10464521438E+03  0.00000000000E+00 0.  1.
         11    1    1    2    0    0 -0.11686653515E+02 -0.25782942661E+02 -0.97419649868E+01  0.29937332621E+02  0.00000000000E+00 0. -1.
</event>
<event>
 6    1  0.6597032E-006  0.1409901E+03  0.7561462E-02  0.1212003E+00
         -2   -1    0    0    0  501 -0.00000000000E+00  0.00000000000E+00  0.47994708717E+02  0.47994708717E+02  0.00000000000E+00 0.  1.
          2   -1    0    0  501    0  0.00000000000E+00 -0.00000000000E+00 -0.44670889015E+03  0.44670889015E+03  0.00000000000E+00 0. -1.
          5    1    1    2  502    0  0.83639851282E+02  0.45071955660E+02 -0.11910031843E+03  0.15241215227E+03  0.41800000000E+01 0.  1.
         -5    1    1    2    0  502  0.14541812036E+02 -0.63125249683E+02 -0.84988749198E+02  0.10694307521E+03  0.41800000000E+01 0.  1.
        -11    1    1    2    0    0 -0.18875402731E+02 -0.25312549884E+02 -0.16557660671E+02  0.35653360806E+02  0.00000000000E+00 0.  1.
         11    1    1    2    0    0 -0.79306260587E+02  0.43365843907E+02 -0.17806745314E+03  0.19969501059E+03  0.00000000000E+00 0. -1.
</event>
<event>
 6    1  0.6597032E-006  0.1056127E+03  0.7561462E-02  0.1268917E+00
         -2   -1    0    0    0  501 -0.00000000000E+00  0.00000000000E+00  0.28030930312E+02  0.28030930312E+02  0.00000000000E+00 0.  1.
          2   -1    0    0  501    0  0.00000000000E+00 -0.00000000000E+00 -0.55304886378E+03  0.55304886378E+03  0.00000000000E+00 0. -1.
          5    1    1    2  502    0  0.48275975072E+02 -0.65554379341E+02 -0.94611570371E+02  0.12488702122E+03  0.41800000000E+01 0.  1.
         -5    1    1    2    0  502 -0.26940780924E+02  0.37576053419E+02 -0.84235104511E+02  0.96181030870E+02  0.41800000000E+01 0.  1.
        -11    1    1    2    0    0  0.53384716074E+01 -0.24145772591E+02 -0.32056095061E+02  0.40485933899E+02  0.00000000000E+00 0.  1.
         11    1    1    2    0    0 -0.26673665755E+02  0.52124098514E+02 -0.31411516353E+03  0.31952580811E+03  0.00000000000E+00 0. -1.
</event>
<event>
 6    1  0.6597032E-006  0.9416353E+02  0.7561462E-02  0.1293071E+00
          2   -1    0    0  501    0  0.00000000000E+00  0.00000000000E+00  0.71019214645E+02  0.71019214645E+02  0.00000000000E+00 0. -1.
         -2   -1    0    0    0  501 -0.00000000000E+00 -0.00000000000E+00 -0.27885129607E+03  0.27885129607E+03  0.00000000000E+00 0.  1.
          5    1    1    2  502    0  0.20242113185E+02  0.48111031644E+02 -0.15990626281E+02  0.54750224117E+02  0.41800000000E+01 0. -1.
         -5    1    1    2    0  502  0.29976353242E+02 -0.22816600197E+02 -0.18325837850E+03  0.18713707460E+03  0.41800000000E+01 0. -1.
        -11    1    1    2    0    0 -0.53808800031E+02 -0.49785826555E+02 -0.25928178027E+02  0.77757867141E+02  0.00000000000E+00 0.  1.
         11    1    1    2    0    0  0.35903336045E+01  0.24491395108E+02  0.17345101386E+02  0.30225344858E+02  0.00000000000E+00 0. -1.
</event>
<event>
 6    1  0.6597032E-006  0.1064442E+03  0.7561462E-02  0.1267300E+00
          2   -1    0    0  501    0  0.00000000000E+00  0.00000000000E+00  0.26320946286E+03  0.26320946286E+03  0.00000000000E+00 0.  1.
         -2   -1    0    0    0  501 -0.00000000000E+00 -0.00000000000E+00 -0.57586598137E+02  0.57586598137E+02  0.00000000000E+00 0. -1.
          5    1    1    2  502    0  0.47968859362E+02  0.59420500640E+02  0.14371589457E+03  0.16279907284E+03  0.41800000000E+01 0. -1.
         -5    1    1    2    0  502 -0.36276516368E+02  0.14801093137E+01 -0.13896438687E+01  0.36572939087E+02  0.41800000000E+01 0. -1.
        -11    1    1    2    0    0  0.33103640040E+02 -0.34736283076E+02  0.46696957801E+02  0.66955703369E+02  0.00000000000E+00 0.  1.
         11    1    1    2    0    0 -0.44795983034E+02 -0.26164326878E+02  0.16599656221E+02  0.54468345703E+02  0.00000000000E+00 0. -1.
</event>
<event>
 6    1  0.6597032E-006  0.1069204E+03  0.7561462E-02  0.1266382E+00
          2   -1    0    0  501    0  0.00000000000E+00  0.00000000000E+00  0.47716855161E+03  0.47716855161E+03  0.00000000000E+00 0.  1.
         -2   -1    0    0    0  501 -0.00000000000E+00 -0.00000000000E+00 -0.83005817801E+02  0.83005817801E+02  0.00000000000E+00 0. -1.
          5    1    1    2  502    0 -0.58765125419E+02 -0.11072312259E+02  0.33054633364E+02  0.68454490365E+02  0.41800000000E+01 0.  1.
         -5    1    1    2    0  502  0.17311211498E+02  0.44865102639E+02 -0.48564928484E+02  0.68473207585E+02  0.41800000000E+01 0.  1.
        -11    1    1    2    0    0  0.13575642158E+02 -0.63471160807E+02  0.22746486424E+03  0.23654418357E+03  0.00000000000E+00 0. -1.
         11    1    1    2    0    0  0.27878271763E+02  0.29678370426E+02  0.18220816468E+03  0.18670248789E+03  0.00000000000E+00 0.  1.
</event>
<event>
 6    1  0.6597032E-006  0.9160972E+02  0.7561462E-02  0.1299000E+00
         -2   -1    0    0    0  501 -0.00000000000E+00  0.00000000000E+00  0.12560917313E+03  0.12560917313E+03  0.00000000000E+00 0.  1.
          2   -1    0    0  501    0  0.00000000000E+00 -0.00000000000E+00 -0.10034523016E+03  0.10034523016E+03  0.00000000000E+00 0. -1.
          5    1    1    2  502    0 -0.39487651309E+02  0.16304391401E+02 -0.28883301756E+02  0.51738045046E+02  0.41800000000E+01 0. -1.
         -5    1    1    2    0  502  0.48266933500E+02 -0.44225190419E+02  0.40883573429E+02  0.77294911304E+02  0.41800000000E+01 0. -1.
        -11    1    1    2    0    0 -0.22204022956E+02 -0.16902935587E+02 -0.24233692005E+02  0.36959433100E+02  0.00000000000E+00 0. -1.
         11    1    1    2    0    0  0.13424740766E+02  0.44823734605E+02  0.37497363309E+02  0.59962013840E+02  0.00000000000E+00 0.  1.
</event>
<event>
 6    1  0.6597032E-006  0.8990865E+02  0.7561462E-02  0.1303073E+00
          2   -1    0    0  501    0  0.00000000000E+00  0.00000000000E+00  0.85014546645E+02  0.85014546645E+02  0.00000000000E+00 0. -1.
         -2   -1    0    0    0  501 -0.00000000000E+00 -0.00000000000E+00 -0.15863192176E+03  0.15863192176E+03  0.00000000000E+00 0.  1.
          5    1    1    2  502    0  0.37863210202E+02  0.42267486628E+02 -0.43693789008E+01  0.57067740314E+02  0.41800000000E+01 0. -1.
         -5    1    1    2    0  502 -0.13574652598E+02 -0.56740645564E+02 -0.69862645116E+02  0.91115496129E+02  0.41800000000E+01 0. -1.
        -11    1    1    2    0    0  0.15298730079E+01 -0.20720691067E+02 -0.33938616665E+02  0.39793432258E+02  0.00000000000E+00 0.  1.
         11    1    1    2    0    0 -0.25818430612E+02  0.35193850004E+02  0.34553265569E+02  0.55669799701E+02  0.00000000000E+00 0. -1.
</event>
<event>
 6    1  0.7498409E-006  0.2209795E+03  0.7561462E-02  0.1133155E+00
         -2   -1    0    0    0  501 -0.00000000000E+00  0.00000000000E+00  0.40638164340E+02  0.40638164340E+02  0.00000000000E+00 0.  1.
          2   -1    0    0  501    0  0.00000000000E+00 -0.00000000000E+00 -0.13043925537E+04  0.13043925537E+04  0.00000000000E+00 0. -1.
          5    1    1    2  502    0  0.87734242284E+02 -0.19567305227E+02 -0.14763162401E+03  0.17289518648E+03  0.41800000000E+01 0. -1.
         -5    1    1    2    0  502  0.92563966920E+02  0.10288474020E+03 -0.38592171456E+03  0.41000780470E+03  0.41800000000E+01 0. -1.
        -11    1    1    2    0    0 -0.66414219870E+02 -0.73721720771E+02 -0.26146412680E+03  0.27965913237E+03  0.00000000000E+00 0.  1.
         11    1    1    2    0    0 -0.11388398933E+03 -0.95957142060E+01 -0.46873692400E+03  0.48246859450E+03  0.00000000000E+00 0. -1.
</event>
<event>
 6    1  0.6597032E-006  0.1478684E+03  0.7561462E-02  0.1203117E+00
         -2   -1    0    0    0  501 -0.00000000000E+00  0.00000000000E+00  0.10133129716E+03  0.10133129716E+03  0.00000000000E+00 0.  1.
          2   -1    0    0  501    0  0.00000000000E+00 -0.00000000000E+00 -0.22118598235E+03  0.22118598235E+03  0.00000000000E+00 0. -1.
          5    1    1    2  502    0 -0.55814465564E+02 -0.19828192831E+02 -0.48821787850E+01  0.59579525567E+02  0.41800000000E+01 0.  1.
         -5    1    1    2    0  502  0.56332547177E+02 -0.82216054110E+02 -0.44558847179E+02  0.10925108094E+03  0.41800000000E+01 0.  1.
        -11    1    1    2    0    0 -0.33739571305E+02  0.97379679675E+02 -0.53342022047E+02  0.11604538768E+03  0.00000000000E+00 0.  1.
         11    1    1    2    0    0  0.33221489692E+02  0.46645672659E+01 -0.17071637182E+02  0.37641285329E+02  0.00000000000E+00 0. -1.
</event>
<event>
 6    1  0.6597032E-006  0.1143732E+03  0.7561462E-02  0.1252679E+00
          2   -1    0    0  501    0  0.00000000000E+00  0.00000000000E+00  0.23911615689E+03  0.23911615689E+03  0.00000000000E+00 0.  1.
         -2   -1    0    0    0  501 -0.00000000000E+00 -0.00000000000E+00 -0.76890626358E+02  0.76890626358E+02  0.00000000000E+00 0. -1.
          5    1    1    2  502    0 -0.94750969298E+01  0.64450163815E+02  0.44423549621E+01  0.65427883927E+02  0.41800000000E+01 0. -1.
         -5    1    1    2    0  502 -0.49380519869E+02 -0.53787564154E+02  0.13730211341E+02  0.74414574538E+02  0.41800000000E+01 0. -1.
        -11    1    1    2    0    0  0.65747353223E+02 -0.28162043075E+02  0.13956994581E+03  0.15682979595E+03  0.00000000000E+00 0.  1.
         11    1    1    2    0    0 -0.68917364245E+01  0.17499443414E+02  0.44830184161E+01  0.19334528824E+02  0.00000000000E+00 0. -1.
</event>
<event>
 6    1  0.6597032E-006  0.6668429E+02  0.7561462E-02  0.1371746E+00
          2   -1    0    0  501    0  0.00000000000E+00  0.00000000000E+00  0.21493767049E+03  0.21493767049E+03  0.00000000000E+00 0. -1.
         -2   -1    0    0    0  501 -0.00000000000E+00 -0.00000000000E+00 -0.81636286552E+02  0.81636286552E+02  0.00000000000E+00 0.  1.
          5    1    1    2  502    0 -0.89081459869E+01 -0.10139176523E+02 -0.62116637956E+02  0.63703273672E+02  0.41800000000E+01 0.  1.
         -5    1    1    2    0  502  0.17591649856E+02 -0.19782977590E+02  0.59476326106E+02  0.65236018533E+02  0.41800000000E+01 0.  1.
        -11    1    1    2    0    0 -0.15811069511E+02 -0.29030199685E+02  0.77786075849E+02  0.84518731704E+02  0.00000000000E+00 0. -1.
         11    1    1    2    0    0  0.71275656421E+01  0.58952353797E+02  0.58155619942E+02  0.83115933136E+02  0.00000000000E+00 0.  1.
</event>
<event>
 6    1  0.6597032E-006  0.1161905E+03  0.7561462E-02  0.1249517E+00
         -1   -1    0    0    0  501 -0.00000000000E+00  0.00000000000E+00  0.89166250548E+02  0.89166250548E+02  0.00000000000E+00 0.  1.
          1   -1    0    0  501    0  0.00000000000E+00 -0.00000000000E+00 -0.24178051419E+03  0.24178051419E+03  0.00000000000E+00 0. -1.
          5    1    1    2  502    0  0.23377146761E+02 -0.12009089029E+02  0.38893919016E+02  0.47126622480E+02  0.41800000000E+01 0.  1.
         -5    1    1    2    0  502  0.18223588742E+02 -0.75102330818E+02 -0.90532948573E+02  0.11910561052E+03  0.41800000000E+01 0.  1.
        -11    1    1    2    0    0 -0.66459159636E+02  0.76526677528E+02 -0.90016437693E+02  0.13555851625E+03  0.00000000000E+00 0.  1.
         11    1    1    2    0    0  0.24858424134E+02  0.10584742320E+02 -0.10958796389E+02  0.29156015480E+02  0.00000000000E+00 0. -1.
</event>
<event>
 6    1  0.6597032E-006  0.1431552E+03  0.7561462E-02  0.1209145E+00
          1   -1    0    0  501    0  0.00000000000E+00  0.00000000000E+00  0.21780360676E+03  0.21780360676E+03  0.00000000000E+00 0. -1.
         -1   -1    0    0    0  501 -0.00000000000E+00 -0.00000000000E+00 -0.43054447310E+03  0.43054447310E+03  0.00000000000E+00 0.  1.
          5    1    1    2  502    0 -0.60651831476E+02 -0.54743221357E+02 -0.12608393159E+03  0.15030001713E+03  0.41800000000E+01 0.  1.
         -5    1    1    2    0  502  0.47766950548E+02 -0.52726420885E+02 -0.26306951506E+03  0.27255237878E+03  0.41800000000E+01 0.  1.
        -11    1    1    2    0    0  0.38866823953E+02  0.23695028671E+02  0.97110616188E+02  0.10724997046E+03  0.00000000000E+00 0. -1.
         11    1    1    2    0    0 -0.25981943026E+02  0.83774613570E+02  0.79301964120E+02  0.11824571348E+03  0.00000000000E+00 0.  1.
</event>
<event>
 6    1  0.6597032E-006  0.1723690E+03  0.7561462E-02  0.1175400E+00
          1   -1    0    0  501    0  0.00000000000E+00  0.00000000000E+00  0.67111793584E+02  0.67111793584E+02  0.00000000000E+00 0. -1.
         -1   -1    0    0    0  501 -0.00000000000E+00 -0.00000000000E+00 -0.55327436090E+03  0.55327436090E+03  0.00000000000E+00 0.  1.
          5    1    1    2  502    0 -0.11078855312E+03  0.10503040478E+03 -0.32699741484E+03  0.36090202429E+03  0.41800000000E+01 0.  1.
         -5    1    1    2    0  502 -0.33580462990E+01 -0.31351742332E+02 -0.60411103929E+02  0.68272850388E+02  0.41800000000E+01 0.  1.
        -11    1    1    2    0    0  0.55479384279E+02  0.11622885213E+02 -0.54455997856E+02  0.78603493835E+02  0.00000000000E+00 0. -1.
         11    1    1    2    0    0  0.58667215138E+02 -0.85301547660E+02 -0.44298050697E+02  0.11260778597E+03  0.00000000000E+00 0.  1.
</event>
<event>
 6    1  0.6597032E-006  0.1267034E+03  0.7561462E-02  0.1232431E+00
         -2   -1    0    0    0  501 -0.00000000000E+00  0.00000000000E+00  0.58441797724E+02  0.58441797724E+02  0.00000000000E+00 0.  1.
          2   -1    0    0  501    0  0.00000000000E+00 -0.00000000000E+00 -0.43111276509E+03  0.43111276509E+03  0.00000000000E+00 0. -1.
          5    1    1    2  502    0  0.78781043744E+02 -0.38732282038E+02 -0.22263038947E+02  0.90662880102E+02  0.41800000000E+01 0. -1.
         -5    1    1    2    0  502  0.19585797389E+02  0.50533996898E+02 -0.87509465055E+02  0.10301780029E+03  0.41800000000E+01 0. -1.
        -11    1    1    2    0    0 -0.77187285732E+02 -0.30417307129E+02 -0.25256491951E+03  0.26584229953E+03  0.00000000000E+00 0. -1.
         11    1    1    2    0    0 -0.21179555401E+02  0.18615592269E+02 -0.10333543849E+02  0.30031582892E+02  0.00000000000E+00 0.  1.
</event>
<event>
 6    1  0.6597032E-006  0.1255935E+03  0.7561462E-02  0.1234145E+00
         -2   -1    0    0    0  501 -0.00000000000E+00  0.00000000000E+00  0.10138566337E+03  0.10138566337E+03  0.00000000000E+00 0. -1.
          2   -1    0    0  501    0  0.00000000000E+00 -0.00000000000E+00 -0.35940223538E+03  0.35940223538E+03  0.00000000000E+00 0.  1.
          5    1    1    2  502    0 -0.31939530125E+02  0.74041649208E+02  0.73368453501E+01  0.81077747267E+02  0.41800000000E+01 0.  1.
         -5    1    1    2    0  502  0.60992913224E+02 -0.82989247852E+01  0.26260876417E+02  0.67053065898E+02  0.41800000000E+01 0.  1.
        -11    1    1    2    0    0  0.27635139629E+02 -0.10416882100E+02 -0.12098890439E+03  0.12454126770E+03  0.00000000000E+00 0.  1.
         11    1    1    2    0    0 -0.56688522727E+02 -0.55325842324E+02 -0.17062538938E+03  0.18811581788E+03  0.00000000000E+00 0. -1.
</event>
<event>
 6    1  0.6597032E-006  0.1645043E+03  0.7561462E-02  0.1183703E+00
          2   -1    0    0  501    0  0.00000000000E+00  0.00000000000E+00  0.10189138654E+04  0.10189138654E+04  0.00000000000E+00 0. -1.
         -2   -1    0    0    0  501 -0.00000000000E+00 -0.00000000000E+00 -0.33593923693E+02  0.33593923693E+02  0.00000000000E+00 0.  1.
          5    1    1    2  502    0 -0.33658773687E+02 -0.58092627248E+02  0.13733365588E+03  0.15292374513E+03  0.41800000000E+01 0.  1.
         -5    1    1    2    0  502  0.83649463158E+02 -0.78233785002E+02  0.47934305801E+03  0.49285393116E+03  0.41800000000E+01 0.  1.
        -11    1    1    2    0    0 -0.37645843879E+02  0.68253353559E+02  0.87427902199E+02  0.11712970552E+03  0.00000000000E+00 0.  1.
         11    1    1    2    0    0 -0.12344845593E+02  0.68073058691E+02  0.28121532564E+03  0.28960040730E+03  0.00000000000E+00 0. -1.
</event>
<event>
 6    1  0.6597032E-006  0.1394680E+03  0.7561462E-02  0.1214047E+00
          1   -1    0    0  501    0  0.00000000000E+00  0.00000000000E+00  0.12639539213E+04  0.12639539213E+04  0.00000000000E+00 0. -1.
         -1   -1    0    0    0  501 -0.00000000000E+00 -0.00000000000E+00 -0.15969345566E+02  0.15969345566E+02  0.00000000000E+00 0.  1.
          5    1    1    2  502    0  0.89376075841E+02  0.20751087305E+02  0.31996822397E+03  0.33289011296E+03  0.41800000000E+01 0.  1.
         -5    1    1    2    0  502 -0.31638955643E+02  0.49643201083E+02  0.33021183687E+03  0.33544418394E+03  0.41800000000E+01 0.  1.
        -11    1    1    2    0    0 -0.39670236342E+02  0.13767853582E+02  0.16117739213E+03  0.16655759718E+03  0.00000000000E+00 0. -1.
         11    1    1    2    0    0 -0.18066883855E+02 -0.84162141970E+02  0.43662712272E+03  0.44503137275E+03  0.00000000000E+00 0.  1.
</event>
<event>
 6    1  0.6597032E-006  0.7162183E+02  0.7561462E-02  0.1354663E+00
          3   -1    0    0  501    0  0.00000000000E+00  0.00000000000E+00  0.39888412865E+02  0.39888412865E+02  0.00000000000E+00 0. -1.
         -3   -1    0    0    0  501 -0.00000000000E+00 -0.00000000000E+00 -0.51110575403E+03  0.51110575403E+03  0.00000000000E+00 0.  1.
          5    1    1    2  502    0  0.23027359520E+02 -0.92776353979E+01 -0.35367173819E+03  0.35456664339E+03  0.41800000000E+01 0.  1.
         -5    1    1    2    0  502  0.26498156772E+01 -0.44909352872E+02 -0.32193804565E+02  0.55477787905E+02  0.41800000000E+01 0.  1.
        -11    1    1    2    0    0 -0.71365957804E+01  0.53873043547E+02 -0.75961616285E+00  0.54348991132E+02  0.00000000000E+00 0. -1.
         11    1    1    2    0    0 -0.18540579416E+02  0.31394472364E+00 -0.84592182240E+02  0.86600744468E+02  0.00000000000E+00 0.  1.
</event>
<event>
 6    1  0.6597032E-006  0.6518691E+02  0.7561462E-02  0.1377270E+00
          1   -1    0    0  501    0  0.00000000000E+00  0.00000000000E+00  0.61124729328E+03  0.61124729328E+03  0.00000000000E+00 0. -1.
         -1   -1    0    0    0  501 -0.00000000000E+00 -0.00000000000E+00 -0.19754071444E+02  0.19754071444E+02  0.00000000000E+00 0.  1.
          5    1    1    2  502    0  0.19281320166E+02  0.12469089616E+02  0.31688202625E+03  0.31774036329E+03  0.41800000000E+01 0.  1.
         -5    1    1    2    0  502 -0.17662795694E+02  0.20185102055E+01 -0.47239568517E+01  0.18863639721E+02  0.41800000000E+01 0.  1.
        -11    1    1    2    0    0  0.37540099351E+02 -0.28551920441E+02  0.10403054951E+03  0.11422270550E+03  0.00000000000E+00 0.  1.
         11    1    1    2    0    0 -0.39158623823E+02  0.14064320620E+02  0.17530460293E+03  0.18017465622E+03  0.00000000000E+00 0. -1.
</event>
<event>
 6    1  0.6597032E-006  0.1445404E+03  0.7561462E-02  0.1207347E+00
         -2   -1    0    0    0  501 -0.00000000000E+00  0.00000000000E+00  0.14139579446E+03  0.14139579446E+03  0.00000000000E+00 0.  1.
          2   -1    0    0  501    0  0.00000000000E+00 -0.00000000000E+00 -0.17145898504E+03  0.17145898504E+03  0.00000000000E+00 0. -1.
          5    1    1    2  502    0  0.56606951559E+02 -0.39459806121E+02  0.31173844008E+02  0.75833397749E+02  0.41800000000E+01 0.  1.
         -5    1    1    2    0  502  0.37007838733E+02  0.79491430980E+02 -0.33255186401E+01  0.87846452410E+02  0.41800000000E+01 0.  1.
        -11    1    1    2    0    0 -0.44346232037E+01 -0.42717607935E+02 -0.38912685814E+02  0.57953921592E+02  0.00000000000E+00 0. -1.
         11    1    1    2    0    0 -0.89180167089E+02  0.26859830759E+01 -0.18998830137E+02  0.91221007743E+02  0.00000000000E+00 0.  1.
</event>
<event>
 6    1  0.6597032E-006  0.1145037E+03  0.7561462E-02  0.1252450E+00
         -3   -1    0    0    0  501 -0.00000000000E+00  0.00000000000E+00  0.90207677561E+03  0.90207677561E+03  0.00000000000E+00 0.  1.
          3   -1    0    0  501    0  0.00000000000E+00 -0.00000000000E+00 -0.16694950695E+02  0.16694950695E+02  0.00000000000E+00 0. -1.
          5    1    1    2  502    0 -0.52070516154E+02  0.69045405826E+02  0.46217374747E+03  0.47021341109E+03  0.41800000000E+01 0. -1.
         -5    1    1    2    0  502  0.40782050866E+02 -0.17116394314E+02  0.13081296826E+03  0.13815082950E+03  0.41800000000E+01 0. -1.
        -11    1    1    2    0    0  0.46048321842E+02 -0.18039325845E+02  0.20012912711E+03  0.20614929721E+03  0.00000000000E+00 0.  1.
         11    1    1    2    0    0 -0.34759856554E+02 -0.33889685667E+02  0.92265982078E+02  0.10425818851E+03  0.00000000000E+00 0. -1.
</event>
<event>
 6    1  0.6597032E-006  0.2613718E+03  0.7561462E-02  0.1106322E+00
          1   -1    0    0  501    0  0.00000000000E+00  0.00000000000E+00  0.98607723549E+03  0.98607723549E+03  0.00000000000E+00 0. -1.
         -1   -1    0    0    0  501 -0.00000000000E+00 -0.00000000000E+00 -0.86290197614E+02  0.86290197614E+02  0.00000000000E+00 0.  1.
          5    1    1    2  502    0 -0.12792271959E+01 -0.96613920541E+02  0.99575963899E+02  0.13881185486E+03  0.41800000000E+01 0. -1.
         -5    1    1    2    0  502 -0.26777829190E+02 -0.16056978744E+03  0.50454180779E+03  0.53016942291E+03  0.41800000000E+01 0. -1.
        -11    1    1    2    0    0  0.36138203665E+02  0.10999291677E+03  0.74787681088E+02  0.13783181326E+03  0.00000000000E+00 0.  1.
         11    1    1    2    0    0 -0.80811472784E+01  0.14719079122E+03  0.22088158510E+03  0.26555434208E+03  0.00000000000E+00 0. -1.
</event>
<event>
 6    1  0.6597032E-006  0.1141966E+03  0.7561462E-02  0.1252990E+00
          2   -1    0    0  501    0  0.00000000000E+00  0.00000000000E+00  0.23362164534E+03  0.23362164534E+03  0.00000000000E+00 0.  1.
         -2   -1    0    0    0  501 -0.00000000000E+00 -0.00000000000E+00 -0.83381308911E+02  0.83381308911E+02  0.00000000000E+00 0. -1.
          5    1    1    2  502    0 -0.34069642228E+02 -0.73209608993E+02  0.54765019719E+02  0.97657908821E+02  0.41800000000E+01 0.  1.
         -5    1    1    2    0  502 -0.16094951198E+02  0.28004181861E+02 -0.32751940421E+02  0.46189215810E+02  0.41800000000E+01 0.  1.
        -11    1    1    2    0    0 -0.23407400748E+02 -0.73697365463E+01  0.39275566107E+02  0.46311872339E+02  0.00000000000E+00 0.  1.
         11    1    1    2    0    0  0.73571994174E+02  0.52575163679E+02  0.88951691025E+02  0.12684395728E+03  0.00000000000E+00 0. -1.
</event>
<event>
 6    1  0.6597032E-006  0.1983469E+03  0.7561462E-02  0.1151141E+00
         -1   -1    0    0    0  501 -0.00000000000E+00  0.00000000000E+00  0.21370045093E+02  0.21370045093E+02  0.00000000000E+00 0.  1.
          1   -1    0    0  501    0  0.00000000000E+00 -0.00000000000E+00 -0.18997973063E+04  0.18997973063E+04  0.00000000000E+00 0. -1.
          5    1    1    2  502    0 -0.13709275147E+03 -0.79415601236E+02 -0.81865946522E+03  0.83385973198E+03  0.41800000000E+01 0. -1.
         -5    1    1    2    0  502  0.18223900355E+02 -0.41864794532E+02 -0.13006950055E+03  0.13791417236E+03  0.41800000000E+01 0. -1.
        -11    1    1    2    0    0  0.64308656865E+02  0.12186415173E+03 -0.65938923915E+03  0.67363242465E+03  0.00000000000E+00 0.  1.
         11    1    1    2    0    0  0.54560194252E+02 -0.58375595756E+00 -0.27030905633E+03  0.27576102245E+03  0.00000000000E+00 0. -1.
</event>
<event>
 6    1  0.6597032E-006  0.1660818E+03  0.7561462E-02  0.1181997E+00
         -2   -1    0    0    0  501 -0.00000000000E+00  0.00000000000E+00  0.44194470607E+02  0.44194470607E+02  0.00000000000E+00 0.  1.
          2   -1    0    0  501    0  0.00000000000E+00 -0.00000000000E+00 -0.65995191203E+03  0.65995191203E+03  0.00000000000E+00 0. -1.
          5    1    1    2  502    0 -0.96410479813E+02 -0.74637369031E+02 -0.17427521310E+03  0.21273231954E+03  0.41800000000E+01 0.  1.
         -5    1    1    2    0  502  0.40145757298E+02 -0.36783359684E+02 -0.71055207317E+02  0.89615915247E+02  0.41800000000E+01 0.  1.
        -11    1    1    2    0    0 -0.78422266551E+01  0.86377587981E+02 -0.19980304142E+03  0.21781607742E+03  0.00000000000E+00 0. -1.
         11    1    1    2    0    0  0.64106949170E+02  0.25043140734E+02 -0.17062397959E+03  0.18398207043E+03  0.00000000000E+00 0.  1.
</event>
<event>
 6    1  0.6597032E-006  0.9132326E+02  0.7561462E-02  0.1299679E+00
          1   -1    0    0  501    0  0.00000000000E+00  0.00000000000E+00  0.33182207928E+03  0.33182207928E+03  0.00000000000E+00 0. -1.
         -1   -1    0    0    0  501 -0.00000000000E+00 -0.00000000000E+00 -0.46432027380E+02  0.46432027380E+02  0.00000000000E+00 0.  1.
          5    1    1    2  502    0 -0.35887228759E-01 -0.24760979516E+02  0.13367696125E+03  0.13601510859E+03  0.41800000000E+01 0.  1.
         -5    1    1    2    0  502 -0.53979939327E+02  0.69576743960E+01 -0.15560996926E+01  0.54608945503E+02  0.41800000000E+01 0.  1.
        -11    1    1    2    0    0  0.75910202739E+02  0.19823790456E+01  0.83765113247E+02  0.11306141209E+03  0.00000000000E+00 0.  1.
         11    1    1    2    0    0 -0.21894376183E+02  0.15820926075E+02  0.69504077092E+02  0.74568640478E+02  0.00000000000E+00 0. -1.
</event>
<event>
 6    1  0.6597032E-006  0.1007854E+03  0.7561462E-02  0.1278653E+00
          3   -1    0    0  501    0  0.00000000000E+00  0.00000000000E+00  0.55589693923E+03  0.55589693923E+03  0.00000000000E+00 0. -1.
         -3   -1    0    0    0  501 -0.00000000000E+00 -0.00000000000E+00 -0.32630214297E+02  0.32630214297E+02  0.00000000000E+00 0.  1.
          5    1    1    2  502    0  0.42502304679E+02 -0.72326891563E+01  0.19673684044E+03  0.20144878873E+03  0.41800000000E+01 0.  1.
         -5    1    1    2    0  502 -0.11541668017E+02 -0.59914648288E+02  0.30677096427E+02  0.68421720421E+02  0.41800000000E+01 0.  1.
        -11    1    1    2    0    0 -0.45484610002E+02  0.23706746750E+02  0.62506995413E+02  0.80857801504E+02  0.00000000000E+00 0.  1.
         11    1    1    2    0    0  0.14523973340E+02  0.43440590695E+02  0.23334579266E+03  0.23779884288E+03  0.00000000000E+00 0. -1.
</event>
<event>
 6    1  0.6597032E-006  0.9482431E+02  0.7561462E-02  0.1291572E+00
         -1   -1    0    0    0  501 -0.00000000000E+00  0.00000000000E+00  0.41818101848E+02  0.41818101848E+02  0.00000000000E+00 0.  1.
          1   -1    0    0  501    0  0.00000000000E+00 -0.00000000000E+00 -0.37886912416E+03  0.37886912416E+03  0.00000000000E+00 0. -1.
          5    1    1    2  502    0 -0.65059463300E+02 -0.47908106853E+01 -0.11917891669E+02  0.66446927496E+02  0.41800000000E+01 0. -1.
         -5    1    1    2    0  502  0.21278275683E+02  0.25943596496E+02 -0.10916965822E+03  0.11428614041E+03  0.41800000000E+01 0. -1.
        -11    1    1    2    0    0 -0.21410729489E+02  0.14690867352E+01 -0.11913743568E+03  0.12105497154E+03  0.00000000000E+00 0. -1.
         11    1    1    2    0    0  0.65191917106E+02 -0.22621872546E+02 -0.96826036747E+02  0.11889918656E+03  0.00000000000E+00 0.  1.
</event>
<event>
 6    1  0.6597032E-006  0.1804996E+03  0.7561462E-02  0.1167320E+00
         -1   -1    0    0    0  501 -0.00000000000E+00  0.00000000000E+00  0.42913347067E+03  0.42913347067E+03  0.00000000000E+00 0.  1.
          1   -1    0    0  501    0  0.00000000000E+00 -0.00000000000E+00 -0.97072768474E+02  0.97072768474E+02  0.00000000000E+00 0. -1.
          5    1    1    2  502    0 -0.81900333100E+00  0.15976014822E+02 -0.22258255728E+01  0.16683240558E+02  0.41800000000E+01 0. -1.
         -5    1    1    2    0  502  0.12569195774E+03 -0.10887149641E+03  0.27439789884E+03  0.32087871581E+03  0.41800000000E+01 0. -1.
        -11    1    1    2    0    0 -0.11165726687E+03  0.32486062829E+02  0.47294703766E+02  0.12553676166E+03  0.00000000000E+00 0.  1.
         11    1    1    2    0    0 -0.13215687538E+02  0.60409418758E+02  0.12593925168E+02  0.63107521127E+02  0.00000000000E+00 0. -1.
</event>
<event>
 6    1  0.6597032E-006  0.1106775E+03  0.7561462E-02  0.1259320E+00
         -3   -1    0    0    0  501 -0.00000000000E+00  0.00000000000E+00  0.46548188008E+03  0.46548188008E+03  0.00000000000E+00 0.  1.
          3   -1    0    0  501    0  0.00000000000E+00 -0.00000000000E+00 -0.43823074781E+02  0.43823074781E+02  0.00000000000E+00 0. -1.
          5    1    1    2  502    0 -0.51542603180E+02 -0.37120226774E+02  0.67710443202E+02  0.92933996454E+02  0.41800000000E+01 0. -1.
         -5    1    1    2    0  502 -0.18639128143E+02  0.42558228218E+02  0.27022896524E+03  0.27422579372E+03  0.41800000000E+01 0. -1.
        -11    1    1    2    0    0 -0.38050669673E+01  0.29136762110E+02  0.72493786793E+01  0.30265209930E+02  0.00000000000E+00 0.  1.
         11    1    1    2    0    0  0.73986798291E+02 -0.34574763554E+02  0.76470018178E+02  0.11187995476E+03  0.00000000000E+00 0. -1.
</event>
<event>
 6    1  0.6597032E-006  0.1282268E+03  0.7561462E-02  0.1230111E+00
         -1   -1    0    0    0  501 -0.00000000000E+00  0.00000000000E+00  0.42500876910E+02  0.42500876910E+02  0.00000000000E+00 0.  1.
          1   -1    0    0  501    0  0.00000000000E+00 -0.00000000000E+00 -0.55653387293E+03  0.55653387293E+03  0.00000000000E+00 0. -1.
          5    1    1    2  502    0  0.88982658138E+02 -0.37707075684E+01 -0.19955808005E+03  0.21857042663E+03  0.41800000000E+01 0.  1.
         -5    1    1    2    0  502  0.60424491662E+01  0.35684567006E+02  0.12104443981E+01  0.36453217827E+02  0.41800000000E+01 0.  1.
        -11    1    1    2    0    0 -0.11095946252E+03 -0.27239046067E+02 -0.23097698449E+03  0.25769038655E+03  0.00000000000E+00 0.  1.
         11    1    1    2    0    0  0.15934355219E+02 -0.46748133699E+01 -0.84708375881E+02  0.86320718838E+02  0.00000000000E+00 0. -1.
</event>
<event>
 6    1  0.6597032E-006  0.1571871E+03  0.7561462E-02  0.1191910E+00
          1   -1    0    0  501    0  0.00000000000E+00  0.00000000000E+00  0.52399279942E+03  0.52399279942E+03  0.00000000000E+00 0. -1.
         -1   -1    0    0    0  501 -0.00000000000E+00 -0.00000000000E+00 -0.61166032310E+02  0.61166032310E+02  0.00000000000E+00 0.  1.
          5    1    1    2  502    0 -0.95385808764E+01  0.44291737583E+01 -0.85287077800E+01  0.14170863125E+02  0.41800000000E+01 0.  1.
         -5    1    1    2    0  502  0.82017691598E+02  0.11507145004E+03  0.31286797696E+03  0.34332518660E+03  0.41800000000E+01 0.  1.
        -11    1    1    2    0    0 -0.65693787586E+02 -0.30502765529E+02  0.54637807691E+02  0.90726966562E+02  0.00000000000E+00 0.  1.
         11    1    1    2    0    0 -0.67853231360E+01 -0.88997858272E+02  0.10384969024E+03  0.13693581544E+03  0.00000000000E+00 0. -1.
</event>
<event>
 6    1  0.1230586E-005  0.1927262E+03  0.7561462E-02  0.1156025E+00
          2   -1    0    0  501    0  0.00000000000E+00  0.00000000000E+00  0.88246390184E+03  0.88246390184E+03  0.00000000000E+00 0. -1.
         -2   -1    0    0    0  501 -0.00000000000E+00 -0.00000000000E+00 -0.47589741256E+02  0.47589741256E+02  0.00000000000E+00 0.  1.
          5    1    1    2  502    0 -0.16284417260E+01 -0.12124129373E+03  0.14833050198E+03  0.19162858176E+03  0.41800000000E+01 0.  1.
         -5    1    1    2    0  502  0.52133158048E+02 -0.44607649544E+02  0.26432686625E+03  0.27311878952E+03  0.41800000000E+01 0.  1.
        -11    1    1    2    0    0 -0.76544725823E+02  0.11318375564E+03  0.28622399436E+03  0.31716530791E+03  0.00000000000E+00 0. -1.
         11    1    1    2    0    0  0.26040009501E+02  0.52665187636E+02  0.13599279799E+03  0.14814096391E+03  0.00000000000E+00 0.  1.
</event>
<event>
 6    1  0.6597032E-006  0.1191557E+03  0.7561462E-02  0.1244496E+00
         -1   -1    0    0    0  501 -0.00000000000E+00  0.00000000000E+00  0.19446218992E+03  0.19446218992E+03  0.00000000000E+00 0.  1.
          1   -1    0    0  501    0  0.00000000000E+00 -0.00000000000E+00 -0.99901064900E+02  0.99901064900E+02  0.00000000000E+00 0. -1.
          5    1    1    2  502    0 -0.57529680010E+02 -0.10937008551E+01 -0.15662401603E+02  0.59779958912E+02  0.41800000000E+01 0. -1.
         -5    1    1    2    0  502 -0.57807613576E+01  0.70557301857E+02  0.86582114284E+02  0.11191820657E+03  0.41800000000E+01 0. -1.
        -11    1    1    2    0    0  0.73789893221E+02 -0.64910880657E+02  0.37067775875E+02  0.10503518828E+03  0.00000000000E+00 0.  1.
         11    1    1    2    0    0 -0.10479451853E+02 -0.45527203444E+01 -0.13426363533E+02  0.17629901061E+02  0.00000000000E+00 0. -1.
</event>
<event>
 6    1  0.6597032E-006  0.1505746E+03  0.7561462E-02  0.1199769E+00
         -2   -1    0    0    0  501 -0.00000000000E+00  0.00000000000E+00  0.21203733823E+03  0.21203733823E+03  0.00000000000E+00 0. -1.
          2   -1    0    0  501    0  0.00000000000E+00 -0.00000000000E+00 -0.15579210589E+03  0.15579210589E+03  0.00000000000E+00 0.  1.
          5    1    1    2  502    0 -0.49947453049E+02 -0.20085470937E+02 -0.17288544809E+02  0.56696916940E+02  0.41800000000E+01 0. -1.
         -5    1    1    2    0  502 -0.53704636157E+01 -0.10133157497E+03  0.10520257472E+03  0.14622579831E+03  0.41800000000E+01 0. -1.
        -11    1    1    2    0    0  0.67080739829E+02  0.11188114113E+03 -0.51247635586E+02  0.14015539786E+03  0.00000000000E+00 0. -1.
         11    1    1    2    0    0 -0.11762823164E+02  0.95359047756E+01  0.19578838016E+02  0.24751331010E+02  0.00000000000E+00 0.  1.
</event>
<event>
 6    1  0.6597032E-006  0.8362718E+02  0.7561462E-02  0.1319062E+00
         -2   -1    0    0    0  501 -0.00000000000E+00  0.00000000000E+00  0.37753267508E+02  0.37753267508E+02  0.00000000000E+00 0.  1.
          2   -1    0    0  501    0  0.00000000000E+00 -0.00000000000E+00 -0.38366219129E+03  0.38366219129E+03  0.00000000000E+00 0. -1.
          5    1    1    2  502    0 -0.37398351204E+01 -0.29475208263E+02 -0.11903804719E+03  0.12276116384E+03  0.41800000000E+01 0. -1.
         -5    1    1    2    0  502 -0.20139700213E+02  0.50872887664E+02 -0.30317760489E+01  0.54957458911E+02  0.41800000000E+01 0. -1.
        -11    1    1    2    0    0 -0.26283067270E+02  0.32541127621E+01 -0.22523557373E+02  0.34766356031E+02  0.00000000000E+00 0.  1.
         11    1    1    2    0    0  0.50162602603E+02 -0.24651792164E+02 -0.20131554318E+03  0.20893048002E+03  0.00000000000E+00 0. -1.
</event>
<event>
 6    1  0.6597032E-006  0.9083725E+02  0.7561462E-02  0.1300837E+00
          2   -1    0    0  501    0  0.00000000000E+00  0.00000000000E+00  0.59973557119E+02  0.59973557119E+02  0.00000000000E+00 0. -1.
         -2   -1    0    0    0  501 -0.00000000000E+00 -0.00000000000E+00 -0.40240236467E+03  0.40240236467E+03  0.00000000000E+00 0.  1.
          5    1    1    2  502    0 -0.52332179294E+01 -0.20886249482E+02 -0.26419175651E+03  0.26510069520E+03  0.41800000000E+01 0. -1.
         -5    1    1    2    0  502  0.61499130214E+02 -0.11095048317E+02 -0.53347175312E+02  0.82271724353E+02  0.41800000000E+01 0. -1.
        -11    1    1    2    0    0 -0.50341599772E+02 -0.12795297560E+02 -0.41904540350E+02  0.66738196029E+02  0.00000000000E+00 0.  1.
         11    1    1    2    0    0 -0.59243125124E+01  0.44776595359E+02  0.17014664624E+02  0.48265306204E+02  0.00000000000E+00 0. -1.
</event>
<event>
 6    1  0.6597032E-006  0.1141435E+03  0.7561462E-02  0.1253084E+00
          3   -1    0    0  501    0  0.00000000000E+00  0.00000000000E+00  0.21540741571E+02  0.21540741571E+02  0.00000000000E+00 0. -1.
         -3   -1    0    0    0  501 -0.00000000000E+00 -0.00000000000E+00 -0.75915232775E+03  0.75915232775E+03  0.00000000000E+00 0.  1.
          5    1    1    2  502    0 -0.23651058153E+02 -0.37647599055E+02 -0.14851056948E+03  0.15507925688E+03  0.41800000000E+01 0.  1.
         -5    1    1    2    0  502  0.82129346496E+01  0.91221338844E+02 -0.37549537056E+03  0.38652688220E+03  0.41800000000E+01 0.  1.
        -11    1    1    2    0    0 -0.12718993510E+02 -0.61413660929E+02 -0.19401627632E+03  0.20390126537E+03  0.00000000000E+00 0.  1.
         11    1    1    2    0    0  0.28157117013E+02  0.78399211401E+01 -0.19589369825E+02  0.35185664867E+02  0.00000000000E+00 0. -1.
</event>
<event>
 6    1  0.6597032E-006  0.1390865E+03  0.7561462E-02  0.1214563E+00
          2   -1    0    0  501    0  0.00000000000E+00  0.00000000000E+00  0.37810603771E+03  0.37810603771E+03  0.00000000000E+00 0.  1.
         -2   -1    0    0    0  501 -0.00000000000E+00 -0.00000000000E+00 -0.66589469623E+02  0.66589469623E+02  0.00000000000E+00 0. -1.
          5    1    1    2  502    0 -0.67870708238E+02 -0.84350276487E+02  0.63263459428E+02  0.12546369945E+03  0.41800000000E+01 0. -1.
         -5    1    1    2    0  502 -0.26897122070E+02  0.45781686841E+02  0.31246162457E+02  0.61751219373E+02  0.41800000000E+01 0. -1.
        -11    1    1    2    0    0  0.74108182932E+02  0.14953254052E+01  0.61587510033E+02  0.96370535786E+02  0.00000000000E+00 0. -1.
         11    1    1    2    0    0  0.20659647376E+02  0.37073264240E+02  0.15541943617E+03  0.16111005273E+03  0.00000000000E+00 0.  1.
</event>
<event>
 6    1  0.6597032E-006  0.1048997E+03  0.7561462E-02  0.1270317E+00
          3   -1    0    0  501    0  0.00000000000E+00  0.00000000000E+00  0.11061587773E+04  0.11061587773E+04  0.00000000000E+00 0. -1.
         -3   -1    0    0    0  501 -0.00000000000E+00 -0.00000000000E+00 -0.15837956331E+02  0.15837956331E+02  0.00000000000E+00 0.  1.
          5    1    1    2  502    0 -0.57466670088E+02 -0.10629125385E+02  0.54155267077E+03  0.54471291897E+03  0.41800000000E+01 0.  1.
         -5    1    1    2    0  502  0.14259263365E+02 -0.48367625100E+02  0.89991489468E+02  0.10324095276E+03  0.41800000000E+01 0.  1.
        -11    1    1    2    0    0 -0.18990269262E+02  0.10207310508E+02  0.24522529033E+02  0.32652319131E+02  0.00000000000E+00 0.  1.
         11    1    1    2    0    0  0.62197675986E+02  0.48789439978E+02  0.43425413172E+03  0.44139054279E+03  0.00000000000E+00 0. -1.
</event>
<event>
 6    1  0.6597032E-006  0.1079268E+03  0.7561462E-02  0.1264458E+00
         -2   -1    0    0    0  501 -0.00000000000E+00  0.00000000000E+00  0.15507707541E+02  0.15507707541E+02  0.00000000000E+00 0.  1.
          2   -1    0    0  501    0  0.00000000000E+00 -0.00000000000E+00 -0.79170679074E+03  0.79170679074E+03  0.00000000000E+00 0. -1.
          5    1    1    2  502    0  0.52448239289E+02  0.40972954155E+02 -0.23052667097E+03  0.23997837237E+03  0.41800000000E+01 0.  1.
         -5    1    1    2    0  502 -0.33626569313E+02 -0.48896290170E+02 -0.16839848776E+03  0.17859763838E+03  0.41800000000E+01 0.  1.
        -11    1    1    2    0    0 -0.24462757651E+02 -0.37024811599E+02 -0.24043827369E+03  0.24449913423E+03  0.00000000000E+00 0.  1.
         11    1    1    2    0    0  0.56410876756E+01  0.44948147613E+02 -0.13683565079E+03  0.14413935331E+03  0.00000000000E+00 0. -1.
</event>
<event>
 6    1  0.6597032E-006  0.1085977E+03  0.7561462E-02  0.1263189E+00
         -2   -1    0    0    0  501 -0.00000000000E+00  0.00000000000E+00  0.56708796722E+02  0.56708796722E+02  0.00000000000E+00 0.  1.
          2   -1    0    0  501    0  0.00000000000E+00 -0.00000000000E+00 -0.43924533463E+03  0.43924533463E+03  0.00000000000E+00 0. -1.
          5    1    1    2  502    0  0.74927949157E+02  0.47299215649E+02 -0.11413767715E+03  0.14455550875E+03  0.41800000000E+01 0. -1.
         -5    1    1    2    0  502 -0.14223135297E+02  0.14859547080E+02  0.24424402511E+02  0.32204464832E+02  0.41800000000E+01 0. -1.
        -11    1    1    2    0    0  0.58310823670E+01 -0.35247549018E+02 -0.29704923800E+02  0.46462605731E+02  0.00000000000E+00 0.  1.
         11    1    1    2    0    0 -0.66535896226E+02 -0.26911213711E+02 -0.26311833947E+03  0.27273155204E+03  0.00000000000E+00 0. -1.
</event>
<event>
 6    1  0.6597032E-006  0.1348980E+03  0.7561462E-02  0.1220364E+00
          2   -1    0    0  501    0  0.00000000000E+00  0.00000000000E+00  0.48735542797E+03  0.48735542797E+03  0.00000000000E+00 0. -1.
         -2   -1    0    0    0  501 -0.00000000000E+00 -0.00000000000E+00 -0.47344213630E+02  0.47344213630E+02  0.00000000000E+00 0.  1.
          5    1    1    2  502    0  0.33242111834E+02  0.44988207618E+02  0.16256180970E+02  0.58401306866E+02  0.41800000000E+01 0. -1.
         -5    1    1    2    0  502  0.70894619758E+02 -0.27393586612E+02  0.19173509695E+03  0.20629172427E+03  0.41800000000E+01 0. -1.
        -11    1    1    2    0    0 -0.85923273950E+01  0.29741162345E+02  0.62377448853E+02  0.69636994142E+02  0.00000000000E+00 0. -1.
         11    1    1    2    0    0 -0.95544404198E+02 -0.47335783352E+02  0.16964248756E+03  0.20036961632E+03  0.00000000000E+00 0.  1.
</event>
<event>
 6    1  0.6597032E-006  0.1217811E+03  0.7561462E-02  0.1240187E+00
         -2   -1    0    0    0  501 -0.00000000000E+00  0.00000000000E+00  0.43929734862E+02  0.43929734862E+02  0.00000000000E+00 0.  1.
          2   -1    0    0  501    0  0.00000000000E+00 -0.00000000000E+00 -0.42805908473E+03  0.42805908473E+03  0.00000000000E+00 0. -1.
          5    1    1    2  502    0  0.32776896285E+02 -0.32674403790E+02 -0.15554723375E+03  0.16234024739E+03  0.41800000000E+01 0. -1.
         -5    1    1    2    0  502 -0.74079421068E+02 -0.38421168805E+02 -0.73486585304E+02  0.11127307607E+03  0.41800000000E+01 0. -1.
        -11    1    1    2    0    0  0.64859950405E+02  0.54561812313E+02 -0.74677556193E+02  0.11296256870E+03  0.00000000000E+00 0.  1.
         11    1    1    2    0    0 -0.23557425622E+02  0.16533760281E+02 -0.80417974618E+02  0.85412927432E+02  0.00000000000E+00 0. -1.
</event>
<event>
 6    1  0.6597032E-006  0.1071685E+03  0.7561462E-02  0.1265905E+00
         -1   -1    0    0    0  501 -0.00000000000E+00  0.00000000000E+00  0.18172863250E+03  0.18172863250E+03  0.00000000000E+00 0.  1.
          1   -1    0    0  501    0  0.00000000000E+00 -0.00000000000E+00 -0.77174453046E+02  0.77174453046E+02  0.00000000000E+00 0. -1.
          5    1    1    2  502    0 -0.13469843602E+02 -0.76635079023E+02  0.12162014527E+02  0.78865448841E+02  0.41800000000E+01 0.  1.
         -5    1    1    2    0  502  0.15964635249E+02  0.31647071692E+02  0.66970606675E+02  0.75887688617E+02  0.41800000000E+01 0.  1.
        -11    1    1    2    0    0 -0.26619629896E+02 -0.18758239608E+02  0.46416084887E+01  0.32894084245E+02  0.00000000000E+00 0.  1.
         11    1    1    2    0    0  0.24124838249E+02  0.63746246939E+02  0.20779949758E+02  0.71255863838E+02  0.00000000000E+00 0. -1.
</event>
<event>
 6    1  0.6597032E-006  0.1587222E+03  0.7561462E-02  0.1190147E+00
         -2   -1    0    0    0  501 -0.00000000000E+00  0.00000000000E+00  0.88418351840E+02  0.88418351840E+02  0.00000000000E+00 0.  1.
          2   -1    0    0  501    0  0.00000000000E+00 -0.00000000000E+00 -0.34112352982E+03  0.34112352982E+03  0.00000000000E+00 0. -1.
          5    1    1    2  502    0  0.35199522190E+02  0.55248871229E+02 -0.76294283759E+02  0.10064658101E+03  0.41800000000E+01 0.  1.
         -5    1    1    2    0  502  0.99743593621E+02 -0.49034061556E+02 -0.45839501712E+02  0.12029902734E+03  0.41800000000E+01 0.  1.
        -11    1    1    2    0    0 -0.37743074457E+02 -0.19487033510E+02 -0.95314681186E+02  0.10435119834E+03  0.00000000000E+00 0. -1.
         11    1    1    2    0    0 -0.97200041354E+02  0.13272223838E+02 -0.35256711327E+02  0.10424507498E+03  0.00000000000E+00 0.  1.
</event>
<event>
 6    1  0.6597032E-006  0.6405354E+02  0.7561462E-02  0.1381567E+00
         -3   -1    0    0    0  501 -0.00000000000E+00  0.00000000000E+00  0.20227430085E+03  0.20227430085E+03  0.00000000000E+00 0.  1.
          3   -1    0    0  501    0  0.00000000000E+00 -0.00000000000E+00 -0.87599376123E+02  0.87599376123E+02  0.00000000000E+00 0. -1.
          5    1    1    2  502    0  0.38519775954E+02 -0.27626415347E+02 -0.43429174260E+01  0.47784153192E+02  0.41800000000E+01 0.  1.
         -5    1    1    2    0  502 -0.24120926749E+02 -0.10862600345E+02  0.13529537751E+03  0.13792072640E+03  0.41800000000E+01 0.  1.
        -11    1    1    2    0    0  0.55280054993E+01  0.32448732600E+02 -0.52746281093E+02  0.62174345685E+02  0.00000000000E+00 0. -1.
         11    1    1    2    0    0 -0.19926854705E+02  0.60402830922E+01  0.36468745733E+02  0.41994451700E+02  0.00000000000E+00 0.  1.
</event>
<event>
 6    1  0.6597032E-006  0.1191398E+03  0.7561462E-02  0.1244523E+00
          3   -1    0    0  501    0  0.00000000000E+00  0.00000000000E+00  0.24981165865E+02  0.24981165865E+02  0.00000000000E+00 0. -1.
         -3   -1    0    0    0  501 -0.00000000000E+00 -0.00000000000E+00 -0.12346621927E+04  0.12346621927E+04  0.00000000000E+00 0.  1.
          5    1    1    2  502    0  0.25281448245E+02  0.52848091322E+02 -0.10432139804E+03  0.11971841492E+03  0.41800000000E+01 0.  1.
         -5    1    1    2    0  502  0.26548324962E+02  0.51460825390E+02 -0.70877567398E+03  0.71114939256E+03  0.41800000000E+01 0.  1.
        -11    1    1    2    0    0 -0.42852604796E+01 -0.46252207627E+02 -0.31654390554E+02  0.56210591610E+02  0.00000000000E+00 0. -1.
         11    1    1    2    0    0 -0.47544512728E+02 -0.58056709085E+02 -0.36492956429E+03  0.37256495951E+03  0.00000000000E+00 0.  1.
</event>
<event>
 6    1  0.6597032E-006  0.8454494E+02  0.7561462E-02  0.1316627E+00
          2   -1    0    0  501    0  0.00000000000E+00  0.00000000000E+00  0.11444649987E+03  0.11444649987E+03  0.00000000000E+00 0. -1.
         -2   -1    0    0    0  501 -0.00000000000E+00 -0.00000000000E+00 -0.10947597788E+03  0.10947597788E+03  0.00000000000E+00 0.  1.
          5    1    1    2  502    0 -0.44442765705E+02 -0.39228047662E+02 -0.46289215892E+02  0.75327040662E+02  0.41800000000E+01 0.  1.
         -5    1    1    2    0  502  0.41659634891E+02  0.20476143029E+02  0.25109573181E+02  0.52941105749E+02  0.41800000000E+01 0.  1.
        -11    1    1    2    0    0  0.21345586167E+02  0.33243664362E+02  0.48931299861E+02  0.62889167391E+02  0.00000000000E+00 0. -1.
         11    1    1    2    0    0 -0.18562455352E+02 -0.14491759729E+02 -0.22781135160E+02  0.32765163939E+02  0.00000000000E+00 0.  1.
</event>
<event>
 6    1  0.6597032E-006  0.2529548E+03  0.7561462E-02  0.1111452E+00
          2   -1    0    0  501    0  0.00000000000E+00  0.00000000000E+00  0.25929926019E+04  0.25929926019E+04  0.00000000000E+00 0. -1.
         -2   -1    0    0    0  501 -0.00000000000E+00 -0.00000000000E+00 -0.40106110521E+02  0.40106110521E+02  0.00000000000E+00 0.  1.
          5    1    1    2  502    0 -0.89317791001E+02 -0.57420755371E+02  0.12353447770E+04  0.12399068519E+04  0.41800000000E+01 0. -1.
         -5    1    1    2    0  502  0.27652148438E+02  0.21332889217E+03  0.38371865636E+03  0.43992196716E+03  0.41800000000E+01 0.  1.
        -11    1    1    2    0    0  0.45304264455E+02 -0.23427659898E+02  0.15745059362E+03  0.16550535054E+03  0.00000000000E+00 0.  1.
         11    1    1    2    0    0  0.16361378109E+02 -0.13248047690E+03  0.77637246444E+03  0.78776454286E+03  0.00000000000E+00 0. -1.
</event>
<event>
 6    1  0.6597032E-006  0.2462145E+03  0.7561462E-02  0.1115721E+00
         -2   -1    0    0    0  501 -0.00000000000E+00  0.00000000000E+00  0.13396311918E+03  0.13396311918E+03  0.00000000000E+00 0.  1.
          2   -1    0    0  501    0  0.00000000000E+00 -0.00000000000E+00 -0.47420680925E+03  0.47420680925E+03  0.00000000000E+00 0. -1.
          5    1    1    2  502    0  0.76343573287E+02  0.12084684714E+03 -0.66507604767E+02  0.15771187507E+03  0.41800000000E+01 0.  1.
         -5    1    1    2    0  502 -0.42393186957E+02  0.10410212085E+03 -0.10165795143E+03  0.15161215438E+03  0.41800000000E+01 0.  1.
        -11    1    1    2    0    0  0.53026241839E+01 -0.16623171769E+03 -0.85166099729E+02  0.18685386357E+03  0.00000000000E+00 0.  1.
         11    1    1    2    0    0 -0.39253010514E+02 -0.58717250302E+02 -0.86912034145E+02  0.11199203542E+03  0.00000000000E+00 0. -1.
</event>
<event>
 6    1  0.6597032E-006  0.1923977E+03  0.7561462E-02  0.1156316E+00
         -1   -1    0    0    0  501 -0.00000000000E+00  0.00000000000E+00  0.75653350979E+02  0.75653350979E+02  0.00000000000E+00 0.  1.
          1   -1    0    0  501    0  0.00000000000E+00 -0.00000000000E+00 -0.55191134126E+03  0.55191134126E+03  0.00000000000E+00 0. -1.
          5    1    1    2  502    0 -0.17343074979E+02  0.23272417183E+02 -0.59613700536E+02  0.66435332037E+02  0.41800000000E+01 0. -1.
         -5    1    1    2    0  502 -0.10282252932E+03 -0.14243200616E+03 -0.15836311011E+03  0.23654956343E+03  0.41800000000E+01 0. -1.
        -11    1    1    2    0    0  0.42446825266E+02  0.65805431748E+01 -0.15043472062E+02  0.45512004738E+02  0.00000000000E+00 0.  1.
         11    1    1    2    0    0  0.77718779032E+02  0.11257904580E+03 -0.24323770757E+03  0.27906779204E+03  0.00000000000E+00 0. -1.
</event>
<event>
 6    1  0.6597032E-006  0.5567163E+02  0.7561462E-02  0.1416949E+00
          2   -1    0    0  501    0  0.00000000000E+00  0.00000000000E+00  0.11100581296E+03  0.11100581296E+03  0.00000000000E+00 0. -1.
         -2   -1    0    0    0  501 -0.00000000000E+00 -0.00000000000E+00 -0.11317989361E+03  0.11317989361E+03  0.00000000000E+00 0.  1.
          5    1    1    2  502    0  0.10499937857E+02  0.26107328938E+02  0.43811603269E+02  0.52237632989E+02  0.41800000000E+01 0. -1.
         -5    1    1    2    0  502 -0.35382951582E+01 -0.53209610384E+02 -0.54549912742E+02  0.76399918521E+02  0.41800000000E+01 0. -1.
        -11    1    1    2    0    0 -0.70012851832E+01  0.94968959097E+01 -0.41150298918E+02  0.42808365154E+02  0.00000000000E+00 0.  1.
         11    1    1    2    0    0  0.39642484629E-01  0.17605385536E+02  0.49714527739E+02  0.52739789910E+02  0.00000000000E+00 0. -1.
</event>
<event>
 6    1  0.6597032E-006  0.1114434E+03  0.7561462E-02  0.1257920E+00
          2   -1    0    0  501    0  0.00000000000E+00  0.00000000000E+00  0.17889512172E+03  0.17889512172E+03  0.00000000000E+00 0. -1.
         -2   -1    0    0    0  501 -0.00000000000E+00 -0.00000000000E+00 -0.11373670717E+03  0.11373670717E+03  0.00000000000E+00 0.  1.
          5    1    1    2  502    0  0.14426286037E+02  0.38793942521E+02 -0.55056705252E+02  0.69005803367E+02  0.41800000000E+01 0. -1.
         -5    1    1    2    0  502  0.61192831168E+02 -0.65036982745E+01  0.52077647976E+02  0.80724311681E+02  0.41800000000E+01 0. -1.
        -11    1    1    2    0    0 -0.46320145300E+02  0.26898680619E+02  0.91281597131E+01  0.54336159041E+02  0.00000000000E+00 0.  1.
         11    1    1    2    0    0 -0.29298971906E+02 -0.59188924866E+02  0.59009312109E+02  0.88565554800E+02  0.00000000000E+00 0. -1.
</event>
<event>
 6    1  0.6597032E-006  0.1086755E+03  0.7561462E-02  0.1263042E+00
         -1   -1    0    0    0  501 -0.00000000000E+00  0.00000000000E+00  0.33428622863E+03  0.33428622863E+03  0.00000000000E+00 0. -1.
          1   -1    0    0  501    0  0.00000000000E+00 -0.00000000000E+00 -0.48668996693E+02  0.48668996693E+02  0.00000000000E+00 0.  1.
          5    1    1    2  502    0 -0.25704869741E+02  0.17073937935E+02 -0.64941850522E+01  0.31810478218E+02  0.41800000000E+01 0.  1.
         -5    1    1    2    0  502  0.61368784574E+02  0.41688938553E+02  0.16830901709E+03  0.18398231696E+03  0.41800000000E+01 0.  1.
        -11    1    1    2    0    0 -0.64396133291E+02 -0.50987339682E+02  0.84276809937E+02  0.11768241790E+03  0.00000000000E+00 0.  1.
         11    1    1    2    0    0  0.28732218458E+02 -0.77755368059E+01  0.39525589960E+02  0.49480012245E+02  0.00000000000E+00 0. -1.
</event>
<event>
 6    1  0.6597032E-006  0.2823724E+03  0.7561462E-02  0.1094400E+00
          2   -1    0    0  501    0  0.00000000000E+00  0.00000000000E+00  0.63829810016E+03  0.63829810016E+03  0.00000000000E+00 0. -1.
         -2   -1    0    0    0  501 -0.00000000000E+00 -0.00000000000E+00 -0.13608226398E+03  0.13608226398E+03  0.00000000000E+00 0.  1.
          5    1    1    2  502    0 -0.69989999350E+02 -0.14747598701E+03  0.24750383825E+03  0.29651878372E+03  0.41800000000E+01 0.  1.
         -5    1    1    2    0  502 -0.10740542017E+03 -0.52938551435E+02  0.77496215736E+02  0.14269390444E+03  0.41800000000E+01 0.  1.
        -11    1    1    2    0    0  0.13399303643E+03  0.85882393098E+02  0.12338667504E+03  0.20138071117E+03  0.00000000000E+00 0. -1.
         11    1    1    2    0    0  0.43402383099E+02  0.11453214534E+03  0.53829107155E+02  0.13378696481E+03  0.00000000000E+00 0.  1.
</event>
<event>
 6    1  0.6597032E-006  0.1144263E+03  0.7561462E-02  0.1252586E+00
          2   -1    0    0  501    0  0.00000000000E+00  0.00000000000E+00  0.14576983716E+03  0.14576983716E+03  0.00000000000E+00 0. -1.
         -2   -1    0    0    0  501 -0.00000000000E+00 -0.00000000000E+00 -0.21598779468E+03  0.21598779468E+03  0.00000000000E+00 0.  1.
          5    1    1    2  502    0 -0.18391369649E+02 -0.85550950087E+01  0.22263584186E+02  0.30406770775E+02  0.41800000000E+01 0. -1.
         -5    1    1    2    0  502 -0.76345449841E+02  0.41472507741E+01 -0.16441355347E+03  0.18137010880E+03  0.41800000000E+01 0. -1.
        -11    1    1    2    0    0  0.11190200314E+03 -0.49665307616E+01  0.62459438174E+02  0.12824939045E+03  0.00000000000E+00 0.  1.
         11    1    1    2    0    0 -0.17165183647E+02  0.93743749962E+01  0.94725735943E+01  0.21731361823E+02  0.00000000000E+00 0. -1.
</event>
<event>
 6    1  0.6597032E-006  0.2714402E+03  0.7561462E-02  0.1100458E+00
         -2   -1    0    0    0  501 -0.00000000000E+00  0.00000000000E+00  0.18536655006E+03  0.18536655006E+03  0.00000000000E+00 0.  1.
          2   -1    0    0  501    0  0.00000000000E+00 -0.00000000000E+00 -0.40197728574E+03  0.40197728574E+03  0.00000000000E+00 0. -1.
          5    1    1    2  502    0 -0.21339533600E+03 -0.14609652881E+03 -0.98063841688E+02  0.27661481269E+03  0.41800000000E+01 0.  1.
         -5    1    1    2    0  502 -0.19445180776E+00  0.17275937238E+02 -0.18901156613E+02  0.25946520774E+02  0.41800000000E+01 0.  1.
        -11    1    1    2    0    0  0.54368863765E+02  0.85714196188E+02 -0.31169888218E+02  0.10618125403E+03  0.00000000000E+00 0. -1.
         11    1    1    2    0    0  0.15922092404E+03  0.43106395381E+02 -0.68475849161E+02  0.17860124830E+03  0.00000000000E+00 0.  1.
</event>
<event>
 6    1  0.6597032E-006  0.2147794E+03  0.7561462E-02  0.1137836E+00
          3   -1    0    0  501    0  0.00000000000E+00  0.00000000000E+00  0.50366486734E+02  0.50366486734E+02  0.00000000000E+00 0.  1.
         -3   -1    0    0    0  501 -0.00000000000E+00 -0.00000000000E+00 -0.10564429103E+04  0.10564429103E+04  0.00000000000E+00 0. -1.
          5    1    1    2  502    0 -0.10519265712E+03 -0.51147270579E+02 -0.44135922208E+03  0.45661468846E+03  0.41800000000E+01 0. -1.
         -5    1    1    2    0  502 -0.91140368632E+02  0.52679416790E+02 -0.20688249566E+03  0.23216271699E+03  0.41800000000E+01 0. -1.
        -11    1    1    2    0    0  0.16273425113E+03  0.24620237291E+02 -0.32487793271E+03  0.36418987320E+03  0.00000000000E+00 0. -1.
         11    1    1    2    0    0  0.33598774623E+02 -0.26152383501E+02 -0.32956773111E+02  0.53842118392E+02  0.00000000000E+00 0.  1.
</event>
<event>
 6    1  0.6597032E-006  0.1409912E+03  0.7561462E-02  0.1212001E+00
          2   -1    0    0  501    0  0.00000000000E+00  0.00000000000E+00  0.46285532890E+02  0.46285532890E+02  0.00000000000E+00 0. -1.
         -2   -1    0    0    0  501 -0.00000000000E+00 -0.00000000000E+00 -0.58167975557E+03  0.58167975557E+03  0.00000000000E+00 0.  1.
          5    1    1    2  502    0 -0.13476940885E+02  0.29788322197E+01  0.12272273634E+01  0.14473419224E+02  0.41800000000E+01 0.  1.
         -5    1    1    2    0  502  0.12871031696E+03  0.45398022655E+01 -0.36732524448E+03  0.38927145173E+03  0.41800000000E+01 0.  1.
        -11    1    1    2    0    0 -0.53154593436E+02  0.34835050594E+02 -0.11539591937E+03  0.13173879368E+03  0.00000000000E+00 0.  1.
         11    1    1    2    0    0 -0.62078782641E+02 -0.42353685080E+02 -0.53900286190E+02  0.92481623825E+02  0.00000000000E+00 0. -1.
</event>
<event>
 6    1  0.6597032E-006  0.9647998E+02  0.7561462E-02  0.1287877E+00
          1   -1    0    0  501    0  0.00000000000E+00  0.00000000000E+00  0.30688650908E+03  0.30688650908E+03  0.00000000000E+00 0. -1.
         -1   -1    0    0    0  501 -0.00000000000E+00 -0.00000000000E+00 -0.65395787347E+02  0.65395787347E+02  0.00000000000E+00 0.  1.
          5    1    1    2  502    0 -0.33318677099E+02  0.29340313230E+02  0.91404836066E+02  0.10170203872E+03  0.41800000000E+01 0. -1.
         -5    1    1    2    0  502 -0.33686955814E+02 -0.11153964362E+02 -0.36930627366E+02  0.51386433527E+02  0.41800000000E+01 0. -1.
        -11    1    1    2    0    0  0.80012068912E+02 -0.38282673763E+02  0.13021867815E+03  0.15755760350E+03  0.00000000000E+00 0.  1.
         11    1    1    2    0    0 -0.13006436000E+02  0.20096324895E+02  0.56797834886E+02  0.61636220677E+02  0.00000000000E+00 0. -1.
</event>
<event>
 6    1  0.6597032E-006  0.1003524E+03  0.7561462E-02  0.1279557E+00
         -2   -1    0    0    0  501 -0.00000000000E+00  0.00000000000E+00  0.90014237757E+02  0.90014237757E+02  0.00000000000E+00 0.  1.
          2   -1    0    0  501    0  0.00000000000E+00 -0.00000000000E+00 -0.50558599479E+03  0.50558599479E+03  0.00000000000E+00 0. -1.
          5    1    1    2  502    0  0.75268783248E+02 -0.17536674884E+02 -0.34446877675E+02  0.84717084931E+02  0.41800000000E+01 0. -1.
         -5    1    1    2    0  502 -0.12447558873E+02 -0.66370032413E+01  0.57302174877E+02  0.59160824704E+02  0.41800000000E+01 0. -1.
        -11    1    1    2    0    0 -0.57991323992E+02 -0.22107215892E+02 -0.23713247513E+03  0.24511942683E+03  0.00000000000E+00 0.  1.
         11    1    1    2    0    0 -0.48299003822E+01  0.46280894017E+02 -0.20129457911E+03  0.20660289608E+03  0.00000000000E+00 0. -1.
</event>
<event>
 6    1  0.6597032E-006  0.1001375E+03  0.7561462E-02  0.1280007E+00
         -1   -1    0    0    0  501 -0.00000000000E+00  0.00000000000E+00  0.25897707475E+02  0.25897707475E+02  0.00000000000E+00 0.  1.
          1   -1    0    0  501    0  0.00000000000E+00 -0.00000000000E+00 -0.75051292965E+03  0.75051292965E+03  0.00000000000E+00 0. -1.
          5    1    1    2  502    0 -0.62840733351E+02  0.42356784777E-01 -0.29374806804E+03  0.30042363329E+03  0.41800000000E+01 0. -1.
         -5    1    1    2    0  502 -0.33846431344E+02  0.98449406567E+01 -0.25828491243E+01  0.35589988492E+02  0.41800000000E+01 0. -1.
        -11    1    1    2    0    0  0.33036890825E+02 -0.18019328504E+02 -0.13301715796E+03  0.13823782647E+03  0.00000000000E+00 0. -1.
         11    1    1    2    0    0  0.63650273870E+02  0.81320310630E+01 -0.29526714705E+03  0.30215918887E+03  0.00000000000E+00 0.  1.
</event>
<event>
 6    1  0.6597032E-006  0.1399932E+03  0.7561462E-02  0.1213338E+00
         -2   -1    0    0    0  501 -0.00000000000E+00  0.00000000000E+00  0.13327562243E+02  0.13327562243E+02  0.00000000000E+00 0. -1.
          2   -1    0    0  501    0  0.00000000000E+00 -0.00000000000E+00 -0.20541495380E+04  0.20541495380E+04  0.00000000000E+00 0.  1.
          5    1    1    2  502    0  0.38294649335E+02  0.18503197186E+02 -0.87430875748E+03  0.87535257141E+03  0.41800000000E+01 0.  1.
         -5    1    1    2    0  502 -0.53089490732E+01  0.88878904526E+02 -0.38820732617E+03  0.39830898195E+03  0.41800000000E+01 0.  1.
        -11    1    1    2    0    0 -0.40118195557E+02 -0.12384128190E+03 -0.74185518760E+03  0.75319005044E+03  0.00000000000E+00 0.  1.
         11    1    1    2    0    0  0.71324952952E+01  0.16459180185E+02 -0.36450704477E+02  0.40625496408E+02  0.00000000000E+00 0. -1.
</event>
<event>
 6    1  0.6597032E-006  0.3475204E+03  0.7561462E-02  0.1063637E+00
          2   -1    0    0  501    0  0.00000000000E+00  0.00000000000E+00  0.17514987835E+04  0.17514987835E+04  0.00000000000E+00 0. -1.
         -2   -1    0    0    0  501 -0.00000000000E+00 -0.00000000000E+00 -0.74996189481E+02  0.74996189481E+02  0.00000000000E+00 0.  1.
          5    1    1    2  502    0 -0.16101716841E+03  0.32572349148E+02  0.47411579366E+03  0.50178754931E+03  0.41800000000E+01 0.  1.
         -5    1    1    2    0  502 -0.16409358416E+03  0.71056589668E+02  0.23812683045E+03  0.29782142817E+03  0.41800000000E+01 0.  1.
        -11    1    1    2    0    0  0.19762083910E+03 -0.10615494948E+03  0.65588106128E+03  0.69318311859E+03  0.00000000000E+00 0. -1.
         11    1    1    2    0    0  0.12748991348E+03  0.25260106649E+01  0.30837890864E+03  0.33370287691E+03  0.00000000000E+00 0.  1.
</event>
<event>
 6    1  0.6597032E-006  0.1233389E+03  0.7561462E-02  0.1237688E+00
          2   -1    0    0  501    0  0.00000000000E+00  0.00000000000E+00  0.75385879751E+03  0.75385879751E+03  0.00000000000E+00 0.  1.
         -2   -1    0    0    0  501 -0.00000000000E+00 -0.00000000000E+00 -0.22273309911E+02  0.22273309911E+02  0.00000000000E+00 0. -1.
          5    1    1    2  502    0  0.45225484746E+02 -0.76988606700E+01  0.19909222280E+03  0.20435215317E+03  0.41800000000E+01 0.  1.
         -5    1    1    2    0  502 -0.43354094624E+02  0.77261402794E+02  0.17502486289E+03  0.19621436469E+03  0.41800000000E+01 0.  1.
        -11    1    1    2    0    0  0.41728457317E+02 -0.46916614476E+02  0.24336738518E+03  0.25133666074E+03  0.00000000000E+00 0. -1.
         11    1    1    2    0    0 -0.43599847439E+02 -0.22645927648E+02  0.11410101673E+03  0.12422892882E+03  0.00000000000E+00 0.  1.
</event>
<event>
 6    1  0.6597032E-006  0.9831475E+02  0.7561462E-02  0.1283880E+00
          2   -1    0    0  501    0  0.00000000000E+00  0.00000000000E+00  0.17172450016E+03  0.17172450016E+03  0.00000000000E+00 0. -1.
         -2   -1    0    0    0  501 -0.00000000000E+00 -0.00000000000E+00 -0.91964822750E+02  0.91964822750E+02  0.00000000000E+00 0.  1.
          5    1    1    2  502    0 -0.27063651695E+02  0.78441379935E+02  0.59791850343E+02  0.10236224449E+03  0.41800000000E+01 0. -1.
         -5    1    1    2    0  502 -0.21330590770E+02 -0.41243020046E+02 -0.57071413337E+01  0.46968336859E+02  0.41800000000E+01 0. -1.
        -11    1    1    2    0    0  0.11888759752E+02 -0.26244337252E+02 -0.33366287225E+02  0.44084203173E+02  0.00000000000E+00 0.  1.
         11    1    1    2    0    0  0.36505482713E+02 -0.10954022637E+02  0.59041255625E+02  0.70274538390E+02  0.00000000000E+00 0. -1.
</event>
<event>
 6    1  0.6597032E-006  0.1140661E+03  0.7561462E-02  0.1253220E+00
          1   -1    0    0  501    0  0.00000000000E+00  0.00000000000E+00  0.43190755887E+02  0.43190755887E+02  0.00000000000E+00 0. -1.
         -1   -1    0    0    0  501 -0.00000000000E+00 -0.00000000000E+00 -0.39002342522E+03  0.39002342522E+03  0.00000000000E+00 0.  1.
          5    1    1    2  502    0 -0.19516664162E+02 -0.53822533601E+02 -0.12133863484E+03  0.13423226888E+03  0.41800000000E+01 0.  1.
         -5    1    1    2    0  502 -0.36823690991E+02  0.69951253049E+02 -0.11764825467E+03  0.14180178507E+03  0.41800000000E+01 0.  1.
        -11    1    1    2    0    0  0.48379988253E+02  0.21617193074E+02 -0.10606223478E+03  0.11856274266E+03  0.00000000000E+00 0.  1.
         11    1    1    2    0    0  0.79603668994E+01 -0.37745912522E+02 -0.17835450451E+01  0.38617384508E+02  0.00000000000E+00 0. -1.
</event>
<event>
 6    1  0.6597032E-006  0.6729038E+02  0.7561462E-02  0.1369557E+00
         -1   -1    0    0    0  501 -0.00000000000E+00  0.00000000000E+00  0.44343872958E+02  0.44343872958E+02  0.00000000000E+00 0.  1.
          1   -1    0    0  501    0  0.00000000000E+00 -0.00000000000E+00 -0.35567391186E+03  0.35567391186E+03  0.00000000000E+00 0. -1.
          5    1    1    2  502    0  0.63313558163E+01  0.18329909703E+02  0.17436197103E+02  0.26411456333E+02  0.41800000000E+01 0. -1.
         -5    1    1    2    0  502 -0.24051133506E+02  0.41535881869E+02 -0.18827126642E+03  0.19433792390E+03  0.41800000000E+01 0. -1.
        -11    1    1    2    0    0  0.58938755844E+01 -0.52064663942E+02 -0.15215228509E+03  0.16092167305E+03  0.00000000000E+00 0. -1.
         11    1    1    2    0    0  0.11825902106E+02 -0.78011276298E+01  0.11657315508E+02  0.18346731528E+02  0.00000000000E+00 0.  1.
</event>
<event>
 6    1  0.6597032E-006  0.1101297E+03  0.7561462E-02  0.1260330E+00
         -1   -1    0    0    0  501 -0.00000000000E+00  0.00000000000E+00  0.95401307259E+03  0.95401307259E+03  0.00000000000E+00 0.  1.
          1   -1    0    0  501    0  0.00000000000E+00 -0.00000000000E+00 -0.21754291151E+02  0.21754291151E+02  0.00000000000E+00 0. -1.
          5    1    1    2  502    0  0.87189712381E+02  0.86177679303E+01  0.65083925583E+03  0.65672332165E+03  0.41800000000E+01 0. -1.
         -5    1    1    2    0  502 -0.79520146348E+01 -0.22162708169E+02  0.22487088968E+02  0.32826235550E+02  0.41800000000E+01 0. -1.
        -11    1    1    2    0    0 -0.19756192421E+02 -0.29290676666E+02  0.31742063385E+02  0.47495362578E+02  0.00000000000E+00 0.  1.
         11    1    1    2    0    0 -0.59481505325E+02  0.42835616904E+02  0.22719037326E+03  0.23872244397E+03  0.00000000000E+00 0. -1.
</event>
<event>
 6    1  0.6597032E-006  0.2832626E+03  0.7561462E-02  0.1093920E+00
         -2   -1    0    0    0  501 -0.00000000000E+00  0.00000000000E+00  0.14176238178E+03  0.14176238178E+03  0.00000000000E+00 0.  1.
          2   -1    0    0  501    0  0.00000000000E+00 -0.00000000000E+00 -0.11397449444E+04  0.11397449444E+04  0.00000000000E+00 0. -1.
          5    1    1    2  502    0  0.23723306447E+03  0.76426723641E+02 -0.77723827414E+03  0.81623365414E+03  0.41800000000E+01 0. -1.
         -5    1    1    2    0  502 -0.19636990027E+03 -0.23157497063E+02  0.17659958008E+02  0.19856171312E+03  0.41800000000E+01 0.  1.
        -11    1    1    2    0    0 -0.15153815979E+02 -0.80565294130E+02 -0.16861126694E+03  0.18748377022E+03  0.00000000000E+00 0.  1.
         11    1    1    2    0    0 -0.25709348228E+02  0.27296067553E+02 -0.69792979552E+02  0.79228188701E+02  0.00000000000E+00 0. -1.
</event>
<event>
 6    1  0.6597032E-006  0.4173672E+03  0.7561462E-02  0.1037927E+00
         -2   -1    0    0    0  501 -0.00000000000E+00  0.00000000000E+00  0.18132955556E+03  0.18132955556E+03  0.00000000000E+00 0.  1.
          2   -1    0    0  501    0  0.00000000000E+00 -0.00000000000E+00 -0.11348766920E+04  0.11348766920E+04  0.00000000000E+00 0. -1.
          5    1    1    2  502    0 -0.13582828630E+03 -0.15751560450E+03 -0.16684368833E+03  0.26667354154E+03  0.41800000000E+01 0. -1.
         -5    1    1    2    0  502  0.14628572352E+03 -0.20757626446E+03 -0.11412646388E+03  0.27844162877E+03  0.41800000000E+01 0.  1.
        -11    1    1    2    0    0  0.25796017866E+02  0.26527242257E+03 -0.53073782307E+03  0.59390026902E+03  0.00000000000E+00 0. -1.
         11    1    1    2    0    0 -0.36253455087E+02  0.99819446390E+02 -0.14183916120E+03  0.17719080826E+03  0.00000000000E+00 0.  1.
</event>
<event>
 6    1  0.6597032E-006  0.1124067E+03  0.7561462E-02  0.1256177E+00
          3   -1    0    0  501    0  0.00000000000E+00  0.00000000000E+00  0.20888426926E+02  0.20888426926E+02  0.00000000000E+00 0. -1.
         -3   -1    0    0    0  501 -0.00000000000E+00 -0.00000000000E+00 -0.67338956953E+03  0.67338956953E+03  0.00000000000E+00 0.  1.
          5    1    1    2  502    0 -0.54438443853E+02 -0.39232845318E+02 -0.26133699637E+03  0.26984673130E+03  0.41800000000E+01 0.  1.
         -5    1    1    2    0  502  0.64108375849E+02 -0.12306330030E+02 -0.16275131215E+03  0.17540465107E+03  0.41800000000E+01 0.  1.
        -11    1    1    2    0    0 -0.35025295488E+02  0.56361663777E+02 -0.19961290121E+03  0.21035379434E+03  0.00000000000E+00 0.  1.
         11    1    1    2    0    0  0.25355363492E+02 -0.48224884286E+01 -0.28799932878E+02  0.38672819735E+02  0.00000000000E+00 0. -1.
</event>
<event>
 6    1  0.6597032E-006  0.7632262E+02  0.7561462E-02  0.1339824E+00
          1   -1    0    0  501    0  0.00000000000E+00  0.00000000000E+00  0.11622024110E+03  0.11622024110E+03  0.00000000000E+00 0. -1.
         -1   -1    0    0    0  501 -0.00000000000E+00 -0.00000000000E+00 -0.12065893441E+03  0.12065893441E+03  0.00000000000E+00 0.  1.
          5    1    1    2  502    0 -0.31759913985E+02 -0.16450944292E+02  0.32989356339E+02  0.48837441949E+02  0.41800000000E+01 0.  1.
         -5    1    1    2    0  502  0.19732259298E+02  0.19289628685E+02 -0.81077391085E+02  0.85746530991E+02  0.41800000000E+01 0.  1.
        -11    1    1    2    0    0 -0.34146174542E+02  0.17384212331E+02  0.47234056586E+01  0.38606769293E+02  0.00000000000E+00 0.  1.
         11    1    1    2    0    0  0.46173829228E+02 -0.20222896723E+02  0.38925935781E+02  0.63688433282E+02  0.00000000000E+00 0. -1.
</event>
<event>
 6    1  0.6597032E-006  0.9995769E+02  0.7561462E-02  0.1280385E+00
          1   -1    0    0  501    0  0.00000000000E+00  0.00000000000E+00  0.92461994637E+02  0.92461994637E+02  0.00000000000E+00 0. -1.
         -1   -1    0    0    0  501 -0.00000000000E+00 -0.00000000000E+00 -0.14809436456E+03  0.14809436456E+03  0.00000000000E+00 0.  1.
          5    1    1    2  502    0 -0.74113925607E+02  0.36529909360E+02 -0.90981607541E+01  0.83231948048E+02  0.41800000000E+01 0.  1.
         -5    1    1    2    0  502  0.39924220780E+02 -0.10692456919E+02 -0.40412495019E+02  0.57956140257E+02  0.41800000000E+01 0.  1.
        -11    1    1    2    0    0  0.41302970207E+02 -0.41430344054E+02  0.25173291758E+02  0.63687544891E+02  0.00000000000E+00 0. -1.
         11    1    1    2    0    0 -0.71132653802E+01  0.15592891612E+02 -0.31295005909E+02  0.35680726002E+02  0.00000000000E+00 0.  1.
</event>
<event>
 6    1  0.6597032E-006  0.1025499E+03  0.7561462E-02  0.1275023E+00
          1   -1    0    0  501    0  0.00000000000E+00  0.00000000000E+00  0.23141664296E+02  0.23141664296E+02  0.00000000000E+00 0. -1.
         -1   -1    0    0    0  501 -0.00000000000E+00 -0.00000000000E+00 -0.84165168781E+03  0.84165168781E+03  0.00000000000E+00 0.  1.
          5    1    1    2  502    0 -0.29133484159E+02  0.68308058815E+00 -0.45837935363E+02  0.54477657958E+02  0.41800000000E+01 0.  1.
         -5    1    1    2    0  502  0.70421645580E+02 -0.28456735845E+02 -0.63516475582E+03  0.63970362936E+03  0.41800000000E+01 0.  1.
        -11    1    1    2    0    0 -0.28972257844E+02  0.59160877403E+02 -0.10378153050E+03  0.12292276930E+03  0.00000000000E+00 0.  1.
         11    1    1    2    0    0 -0.12315903576E+02 -0.31387222147E+02 -0.33725801836E+02  0.47689295491E+02  0.00000000000E+00 0. -1.
</event>
<event>
 6    1  0.6597032E-006  0.5561010E+02  0.7561462E-02  0.1417236E+00
          2   -1    0    0  501    0  0.00000000000E+00  0.00000000000E+00  0.14293612715E+03  0.14293612715E+03  0.00000000000E+00 0. -1.
         -2   -1    0    0    0  501 -0.00000000000E+00 -0.00000000000E+00 -0.79288266324E+02  0.79288266324E+02  0.00000000000E+00 0.  1.
          5    1    1    2  502    0  0.11271958752E+02  0.22455635846E+02 -0.37342145250E+02  0.45202000478E+02  0.41800000000E+01 0. -1.
         -5    1    1    2    0  502 -0.23637571974E+01 -0.60594810363E+01  0.92423807237E+02  0.92746629063E+02  0.41800000000E+01 0. -1.
        -11    1    1    2    0    0  0.29843095403E+02  0.96056928425E+01 -0.11613846214E+02  0.33432934393E+02  0.00000000000E+00 0.  1.
         11    1    1    2    0    0 -0.38751296958E+02 -0.26001847652E+02  0.20180045055E+02  0.50842829541E+02  0.00000000000E+00 0. -1.
</event>
<event>
 6    1  0.6597032E-006  0.1621441E+03  0.7561462E-02  0.1186297E+00
          1   -1    0    0  501    0  0.00000000000E+00  0.00000000000E+00  0.29844723916E+03  0.29844723916E+03  0.00000000000E+00 0. -1.
         -1   -1    0    0    0  501 -0.00000000000E+00 -0.00000000000E+00 -0.14462560761E+03  0.14462560761E+03  0.00000000000E+00 0.  1.
          5    1    1    2  502    0 -0.26089779742E+02 -0.11745357610E+03  0.25855396752E+02  0.12313404520E+03  0.41800000000E+01 0.  1.
         -5    1    1    2    0  502  0.45581506426E+02 -0.30220374142E+02 -0.47536817586E+02  0.72582133941E+02  0.41800000000E+01 0.  1.
        -11    1    1    2    0    0 -0.15883115403E+01  0.27940520799E+02  0.10190155325E+03  0.10567460429E+03  0.00000000000E+00 0. -1.
         11    1    1    2    0    0 -0.17903415143E+02  0.11973342944E+03  0.73601499131E+02  0.14168206335E+03  0.00000000000E+00 0.  1.
</event>
<event>
 6    1  0.6597032E-006  0.1131911E+03  0.7561462E-02  0.1254772E+00
          2   -1    0    0  501    0  0.00000000000E+00  0.00000000000E+00  0.24142318648E+03  0.24142318648E+03  0.00000000000E+00 0. -1.
         -2   -1    0    0    0  501 -0.00000000000E+00 -0.00000000000E+00 -0.14587994269E+03  0.14587994269E+03  0.00000000000E+00 0.  1.
          5    1    1    2  502    0  0.23429158505E+02 -0.85389367349E+02 -0.81443356833E+02  0.12037758220E+03  0.41800000000E+01 0.  1.
         -5    1    1    2    0  502 -0.16600983209E+02  0.38907636703E+02 -0.17877448429E+02  0.46113689938E+02  0.41800000000E+01 0.  1.
        -11    1    1    2    0    0  0.22700468493E+02  0.58956187648E+02  0.82177455007E+02  0.10365460647E+03  0.00000000000E+00 0.  1.
         11    1    1    2    0    0 -0.29528643789E+02 -0.12474457002E+02  0.11268659404E+03  0.11715725056E+03  0.00000000000E+00 0. -1.
</event>
<event>
 6    1  0.6597032E-006  0.1233837E+03  0.7561462E-02  0.1237617E+00
          2   -1    0    0  501    0  0.00000000000E+00  0.00000000000E+00  0.87914868286E+03  0.87914868286E+03  0.00000000000E+00 0. -1.
         -2   -1    0    0    0  501 -0.00000000000E+00 -0.00000000000E+00 -0.21478354616E+02  0.21478354616E+02  0.00000000000E+00 0.  1.
          5    1    1    2  502    0 -0.55812113759E+02  0.73892016823E+02  0.30961244594E+03  0.32319090531E+03  0.41800000000E+01 0. -1.
         -5    1    1    2    0  502  0.40852125157E+02 -0.40572469507E+02  0.74941796213E+02  0.94597920862E+02  0.41800000000E+01 0.  1.
        -11    1    1    2    0    0 -0.37695725634E+02 -0.12364530712E+02  0.20331799410E+03  0.20715225337E+03  0.00000000000E+00 0. -1.
         11    1    1    2    0    0  0.52655714236E+02 -0.20955016604E+02  0.26979809198E+03  0.27568595793E+03  0.00000000000E+00 0.  1.
</event>
<event>
 6    1  0.6597032E-006  0.1230173E+03  0.7561462E-02  0.1238201E+00
         -2   -1    0    0    0  501 -0.00000000000E+00  0.00000000000E+00  0.13499778537E+03  0.13499778537E+03  0.00000000000E+00 0.  1.
          2   -1    0    0  501    0  0.00000000000E+00 -0.00000000000E+00 -0.12327913826E+03  0.12327913826E+03  0.00000000000E+00 0. -1.
          5    1    1    2  502    0  0.48424759697E+02  0.65899146555E+02  0.36534667752E+01  0.81966304588E+02  0.41800000000E+01 0.  1.
         -5    1    1    2    0  502 -0.59194102249E+02  0.13071412741E+01  0.18388332650E+02  0.62138985646E+02  0.41800000000E+01 0.  1.
        -11    1    1    2    0    0  0.58791543399E+00  0.18487767215E+02  0.15458248281E+02  0.24106028729E+02  0.00000000000E+00 0.  1.
         11    1    1    2    0    0  0.10181427118E+02 -0.85694055043E+02 -0.25781400593E+02  0.90065604670E+02  0.00000000000E+00 0. -1.
</event>
<event>
 6    1  0.6597032E-006  0.8967994E+02  0.7561462E-02  0.1303629E+00
          1   -1    0    0  501    0  0.00000000000E+00  0.00000000000E+00  0.39686028971E+02  0.39686028971E+02  0.00000000000E+00 0. -1.
         -1   -1    0    0    0  501 -0.00000000000E+00 -0.00000000000E+00 -0.48770264756E+03  0.48770264756E+03  0.00000000000E+00 0.  1.
          5    1    1    2  502    0  0.56626105693E+01  0.53907510443E+02 -0.36124609229E+03  0.36531396966E+03  0.41800000000E+01 0. -1.
         -5    1    1    2    0  502  0.23434405492E+01  0.12911265176E+02  0.76452950842E+01  0.15751679878E+02  0.41800000000E+01 0. -1.
        -11    1    1    2    0    0 -0.46167984203E+02 -0.18707330513E+02 -0.49629452454E+02  0.70317348722E+02  0.00000000000E+00 0. -1.
         11    1    1    2    0    0  0.38161933085E+02 -0.48111445105E+02 -0.44786368938E+02  0.76005678271E+02  0.00000000000E+00 0.  1.
</event>
<event>
 6    1  0.6597032E-006  0.1191503E+03  0.7561462E-02  0.1244505E+00
          2   -1    0    0  501    0  0.00000000000E+00  0.00000000000E+00  0.31934355124E+03  0.31934355124E+03  0.00000000000E+00 0. -1.
         -2   -1    0    0    0  501 -0.00000000000E+00 -0.00000000000E+00 -0.48671993189E+02  0.48671993189E+02  0.00000000000E+00 0.  1.
          5    1    1    2  502    0  0.71082683328E+02 -0.57454568316E+02  0.78976925239E+02  0.12086605152E+03  0.41800000000E+01 0.  1.
         -5    1    1    2    0  502 -0.46365425139E+02  0.39635305618E+01  0.44288920852E+02  0.64377349535E+02  0.41800000000E+01 0.  1.
        -11    1    1    2    0    0  0.80793885212E+00 -0.21167468714E+02  0.81097850765E+01  0.22682220150E+02  0.00000000000E+00 0.  1.
         11    1    1    2    0    0 -0.25525197041E+02  0.74658506469E+02  0.13929592688E+03  0.16008992322E+03  0.00000000000E+00 0. -1.
</event>
<event>
 6    1  0.6597032E-006  0.1563395E+03  0.7561462E-02  0.1192892E+00
         -2   -1    0    0    0  501 -0.00000000000E+00  0.00000000000E+00  0.69149194595E+02  0.69149194595E+02  0.00000000000E+00 0.  1.
          2   -1    0    0  501    0  0.00000000000E+00 -0.00000000000E+00 -0.46928538392E+03  0.46928538392E+03  0.00000000000E+00 0. -1.
          5    1    1    2  502    0 -0.91370753650E+02  0.62619370420E+02 -0.11804550455E+03  0.16193212689E+03  0.41800000000E+01 0.  1.
         -5    1    1    2    0  502  0.30929193528E+02  0.58344381313E+02 -0.22918512095E+02  0.70024370327E+02  0.41800000000E+01 0.  1.
        -11    1    1    2    0    0  0.20793989849E+02 -0.30738183034E+02 -0.98668871466E+01  0.38400278281E+02  0.00000000000E+00 0.  1.
         11    1    1    2    0    0  0.39647570274E+02 -0.90225568699E+02 -0.24930528553E+03  0.26807780302E+03  0.00000000000E+00 0. -1.
</event>
<event>
 6    1  0.6597032E-006  0.1603969E+03  0.7561462E-02  0.1188249E+00
         -1   -1    0    0    0  501 -0.00000000000E+00  0.00000000000E+00  0.66056593319E+02  0.66056593319E+02  0.00000000000E+00 0.  1.
          1   -1    0    0  501    0  0.00000000000E+00 -0.00000000000E+00 -0.54786512086E+03  0.54786512086E+03  0.00000000000E+00 0. -1.
          5    1    1    2  502    0  0.72240151681E+02  0.75847630279E+02 -0.56627941231E+02  0.11914570350E+03  0.41800000000E+01 0.  1.
         -5    1    1    2    0  502 -0.53144795924E+02  0.39220898673E+02 -0.38277561275E+02  0.76454511467E+02  0.41800000000E+01 0.  1.
        -11    1    1    2    0    0  0.33814133934E+02 -0.78479695816E+02 -0.28739879822E+03  0.29983416671E+03  0.00000000000E+00 0. -1.
         11    1    1    2    0    0 -0.52909489691E+02 -0.36588833137E+02 -0.99504226820E+02  0.11848733251E+03  0.00000000000E+00 0.  1.
</event>
<event>
 6    1  0.6597032E-006  0.1246302E+03  0.7561462E-02  0.1235648E+00
          2   -1    0    0  501    0  0.00000000000E+00  0.00000000000E+00  0.26590449186E+03  0.26590449186E+03  0.00000000000E+00 0. -1.
         -2   -1    0    0    0  501 -0.00000000000E+00 -0.00000000000E+00 -0.86782204288E+02  0.86782204288E+02  0.00000000000E+00 0.  1.
          5    1    1    2  502    0 -0.44737366589E+02  0.19071953260E+02 -0.85373474563E+01  0.49553305360E+02  0.41800000000E+01 0.  1.
         -5    1    1    2    0  502 -0.29882116847E+02 -0.90814946193E+02  0.93108174721E+02  0.13351741444E+03  0.41800000000E+01 0.  1.
        -11    1    1    2    0    0  0.36023798922E+02  0.45702187996E+02  0.10666531987E+03  0.12150676747E+03  0.00000000000E+00 0. -1.
         11    1    1    2    0    0  0.38595684514E+02  0.26040804937E+02 -0.12113859572E+02  0.48109208875E+02  0.00000000000E+00 0.  1.
</event>
<event>
 6    1  0.6597032E-006  0.3713462E+03  0.7561462E-02  0.1054179E+00
          2   -1    0    0  501    0  0.00000000000E+00  0.00000000000E+00  0.88666264699E+03  0.88666264699E+03  0.00000000000E+00 0.  1.
         -2   -1    0    0    0  501 -0.00000000000E+00 -0.00000000000E+00 -0.21539248716E+03  0.21539248716E+03  0.00000000000E+00 0. -1.
          5    1    1    2  502    0  0.73906970211E+02  0.76460522083E+02 -0.25751054274E+02  0.10949447876E+03  0.41800000000E+01 0. -1.
         -5    1    1    2    0  502  0.25074942820E+03  0.84895631624E+02  0.88234437873E+02  0.27907943751E+03  0.41800000000E+01 0. -1.
        -11    1    1    2    0    0 -0.98662909987E+02 -0.92530253071E+02  0.20303710708E+03  0.24396779376E+03  0.00000000000E+00 0.  1.
         11    1    1    2    0    0 -0.22599348843E+03 -0.68825900635E+02  0.40574966916E+03  0.46951342412E+03  0.00000000000E+00 0. -1.
</event>
<event>
 6    1  0.6597032E-006  0.1459640E+03  0.7561462E-02  0.1205522E+00
          2   -1    0    0  501    0  0.00000000000E+00  0.00000000000E+00  0.63608870517E+03  0.63608870517E+03  0.00000000000E+00 0.  1.
         -2   -1    0    0    0  501 -0.00000000000E+00 -0.00000000000E+00 -0.45365427177E+02  0.45365427177E+02  0.00000000000E+00 0. -1.
          5    1    1    2  502    0  0.74154192789E+02 -0.91307196776E+02  0.20260359975E+03  0.23431077551E+03  0.41800000000E+01 0.  1.
         -5    1    1    2    0  502  0.24896183633E+02  0.25547439023E+02  0.59788696931E+01  0.36410312864E+02  0.41800000000E+01 0.  1.
        -11    1    1    2    0    0 -0.81603947830E+02  0.12862028400E+02  0.30228618521E+03  0.31337130348E+03  0.00000000000E+00 0.  1.
         11    1    1    2    0    0 -0.17446428592E+02  0.52897729354E+02  0.79854623336E+02  0.97361740481E+02  0.00000000000E+00 0. -1.
</event>
<event>
 6    1  0.6597032E-006  0.1340557E+03  0.7561462E-02  0.1221559E+00
          1   -1    0    0  501    0  0.00000000000E+00  0.00000000000E+00  0.17300230288E+03  0.17300230288E+03  0.00000000000E+00 0. -1.
         -1   -1    0    0    0  501 -0.00000000000E+00 -0.00000000000E+00 -0.22099608772E+03  0.22099608772E+03  0.00000000000E+00 0.  1.
          5    1    1    2  502    0 -0.57365812581E+01  0.47896288665E+02 -0.42148756875E+02  0.64194648831E+02  0.41800000000E+01 0. -1.
         -5    1    1    2    0  502 -0.80728853779E+02 -0.65469180369E+02 -0.11962101642E+03  0.15852451350E+03  0.41800000000E+01 0. -1.
        -11    1    1    2    0    0  0.95114042951E+02  0.30702533437E+02  0.63048605600E+02  0.11817128837E+03  0.00000000000E+00 0.  1.
         11    1    1    2    0    0 -0.86486079131E+01 -0.13129641733E+02  0.50727382849E+02  0.53107939911E+02  0.00000000000E+00 0. -1.
</event>
<event>
 6    1  0.6597032E-006  0.1365527E+03  0.7561462E-02  0.1218044E+00
         -1   -1    0    0    0  501 -0.00000000000E+00  0.00000000000E+00  0.20134971057E+03  0.20134971057E+03  0.00000000000E+00 0.  1.
          1   -1    0    0  501    0  0.00000000000E+00 -0.00000000000E+00 -0.11185867239E+03  0.11185867239E+03  0.00000000000E+00 0. -1.
          5    1    1    2  502    0 -0.66563641554E+01 -0.25056305326E+02  0.53786767879E+02  0.59854944819E+02  0.41800000000E+01 0. -1.
         -5    1    1    2    0  502  0.85459345508E+02  0.78512700918E+02  0.37980260966E+02  0.12217821640E+03  0.41800000000E+01 0. -1.
        -11    1    1    2    0    0  0.27637008429E+01 -0.48951267018E+02 -0.60262550411E+01  0.49398181493E+02  0.00000000000E+00 0. -1.
         11    1    1    2    0    0 -0.81566682196E+02 -0.45051285746E+01  0.37502643793E+01  0.81777040242E+02  0.00000000000E+00 0.  1.
</event>
<event>
 6    1  0.6597032E-006  0.1079717E+03  0.7561462E-02  0.1264373E+00
         -1   -1    0    0    0  501 -0.00000000000E+00  0.00000000000E+00  0.14743817593E+03  0.14743817593E+03  0.00000000000E+00 0.  1.
          1   -1    0    0  501    0  0.00000000000E+00 -0.00000000000E+00 -0.22353255178E+03  0.22353255178E+03  0.00000000000E+00 0. -1.
          5    1    1    2  502    0 -0.61077622828E+02  0.34765651737E+02  0.10570809039E+03  0.12700708376E+03  0.41800000000E+01 0.  1.
         -5    1    1    2    0  502  0.30404218232E+01  0.27518708266E+02 -0.30979394296E+02  0.41757858427E+02  0.41800000000E+01 0.  1.
        -11    1    1    2    0    0  0.15499334086E+02  0.19766366038E+02  0.23234037631E+00  0.25119565393E+02  0.00000000000E+00 0.  1.
         11    1    1    2    0    0  0.42537866919E+02 -0.82050726041E+02 -0.15105541232E+03  0.17708622012E+03  0.00000000000E+00 0. -1.
</event>
<event>
 6    1  0.6597032E-006  0.1089561E+03  0.7561462E-02  0.1262515E+00
         -1   -1    0    0    0  501 -0.00000000000E+00  0.00000000000E+00  0.87976117950E+02  0.87976117950E+02  0.00000000000E+00 0.  1.
          1   -1    0    0  501    0  0.00000000000E+00 -0.00000000000E+00 -0.31059937444E+03  0.31059937444E+03  0.00000000000E+00 0. -1.
          5    1    1    2  502    0  0.48946469901E+02 -0.27192029044E+02 -0.43890531854E+02  0.71267205260E+02  0.41800000000E+01 0. -1.
         -5    1    1    2    0  502 -0.40768680930E+02 -0.52251930957E+02  0.39390563615E+02  0.77210352515E+02  0.41800000000E+01 0. -1.
        -11    1    1    2    0    0  0.21788601676E+02  0.42745977605E+02 -0.18783388218E+03  0.19386471844E+03  0.00000000000E+00 0. -1.
         11    1    1    2    0    0 -0.29966390646E+02  0.36697982396E+02 -0.30289406072E+02  0.56233216167E+02  0.00000000000E+00 0.  1.
</event>
<event>
 6    1  0.6597032E-006  0.8714543E+02  0.7561462E-02  0.1309915E+00
         -1   -1    0    0    0  501 -0.00000000000E+00  0.00000000000E+00  0.16607276458E+02  0.16607276458E+02  0.00000000000E+00 0.  1.
          1   -1    0    0  501    0  0.00000000000E+00 -0.00000000000E+00 -0.72119651387E+03  0.72119651387E+03  0.00000000000E+00 0. -1.
          5    1    1    2  502    0 -0.23296095693E+02 -0.37655485065E+02 -0.31738835185E+03  0.32048944120E+03  0.41800000000E+01 0. -1.
         -5    1    1    2    0  502  0.37088320734E+02  0.22931756803E+02 -0.42429993966E+02  0.60985127637E+02  0.41800000000E+01 0. -1.
        -11    1    1    2    0    0  0.31125184332E+02  0.25011454032E+02 -0.10867092700E+03  0.11577443719E+03  0.00000000000E+00 0.  1.
         11    1    1    2    0    0 -0.44917409373E+02 -0.10287725770E+02 -0.23609996459E+03  0.24055478429E+03  0.00000000000E+00 0. -1.
</event>
<event>
 6    1  0.6597032E-006  0.1070063E+03  0.7561462E-02  0.1266216E+00
         -1   -1    0    0    0  501 -0.00000000000E+00  0.00000000000E+00  0.10750818234E+04  0.10750818234E+04  0.00000000000E+00 0.  1.
          1   -1    0    0  501    0  0.00000000000E+00 -0.00000000000E+00 -0.17902213078E+02  0.17902213078E+02  0.00000000000E+00 0. -1.
          5    1    1    2  502    0  0.62558270140E+01 -0.77927963556E+02  0.70354050692E+03  0.70788319669E+03  0.41800000000E+01 0.  1.
         -5    1    1    2    0  502  0.37876929354E+02  0.14598340177E+02  0.85593991845E+02  0.94823927114E+02  0.41800000000E+01 0.  1.
        -11    1    1    2    0    0 -0.18604900652E+02  0.66626190021E+02  0.24852476260E+03  0.25797238060E+03  0.00000000000E+00 0.  1.
         11    1    1    2    0    0 -0.25527855716E+02 -0.32965666415E+01  0.19520348937E+02  0.32304532061E+02  0.00000000000E+00 0. -1.
</event>
<event>
 6    1  0.6597032E-006  0.1508785E+03  0.7561462E-02  0.1199398E+00
          1   -1    0    0  501    0  0.00000000000E+00  0.00000000000E+00  0.12753967631E+03  0.12753967631E+03  0.00000000000E+00 0. -1.
         -1   -1    0    0    0  501 -0.00000000000E+00 -0.00000000000E+00 -0.26604055831E+03  0.26604055831E+03  0.00000000000E+00 0.  1.
          5    1    1    2  502    0 -0.24798417695E+02 -0.64168095722E+02 -0.12975406670E+03  0.14692207545E+03  0.41800000000E+01 0.  1.
         -5    1    1    2    0  502 -0.64065462259E+02 -0.47026448864E+02  0.53495026012E+01  0.79761895196E+02  0.41800000000E+01 0.  1.
        -11    1    1    2    0    0  0.43150853296E+02  0.95714501250E+02  0.21191205410E+02  0.10710895890E+03  0.00000000000E+00 0. -1.
         11    1    1    2    0    0  0.45713026659E+02  0.15480043336E+02 -0.35287523313E+02  0.59787305087E+02  0.00000000000E+00 0.  1.
</event>
<event>
 6    1  0.6597032E-006  0.1359636E+03  0.7561462E-02  0.1218866E+00
          1   -1    0    0  501    0  0.00000000000E+00  0.00000000000E+00  0.77628202825E+03  0.77628202825E+03  0.00000000000E+00 0. -1.
         -1   -1    0    0    0  501 -0.00000000000E+00 -0.00000000000E+00 -0.29989658362E+02  0.29989658362E+02  0.00000000000E+00 0.  1.
          5    1    1    2  502    0  0.53497033309E+02 -0.24925331693E+02  0.10228832724E+03  0.11816758872E+03  0.41800000000E+01 0.  1.
         -5    1    1    2    0  502 -0.43986948840E+02  0.50384793630E+02  0.76166123272E+02  0.10145062756E+03  0.41800000000E+01 0.  1.
        -11    1    1    2    0    0 -0.54636291865E+01  0.59971288588E+02  0.27868599759E+03  0.28511803162E+03  0.00000000000E+00 0.  1.
         11    1    1    2    0    0 -0.40464552825E+01 -0.85430750525E+02  0.28915192178E+03  0.30153543872E+03  0.00000000000E+00 0. -1.
</event>
<event>
 6    1  0.6597032E-006  0.1208322E+03  0.7561462E-02  0.1241730E+00
         -2   -1    0    0    0  501 -0.00000000000E+00  0.00000000000E+00  0.15991185369E+03  0.15991185369E+03  0.00000000000E+00 0.  1.
          2   -1    0    0  501    0  0.00000000000E+00 -0.00000000000E+00 -0.13752928654E+03  0.13752928654E+03  0.00000000000E+00 0. -1.
          5    1    1    2  502    0  0.37865014888E+02 -0.35407447963E+02  0.17542174880E+02  0.54887585329E+02  0.41800000000E+01 0.  1.
         -5    1    1    2    0  502  0.43510340869E+02  0.83393826781E+02 -0.44615171249E+02  0.10419052746E+03  0.41800000000E+01 0.  1.
        -11    1    1    2    0    0 -0.59232703975E+02 -0.27386685259E+02 -0.15181897228E+02  0.67000251888E+02  0.00000000000E+00 0. -1.
         11    1    1    2    0    0 -0.22142651782E+02 -0.20599693559E+02  0.64637460748E+02  0.71362775553E+02  0.00000000000E+00 0.  1.
</event>
<event>
 6    1  0.6597032E-006  0.1315903E+03  0.7561462E-02  0.1225115E+00
          2   -1    0    0  501    0  0.00000000000E+00  0.00000000000E+00  0.63553803522E+03  0.63553803522E+03  0.00000000000E+00 0. -1.
         -2   -1    0    0    0  501 -0.00000000000E+00 -0.00000000000E+00 -0.40308458979E+02  0.40308458979E+02  0.00000000000E+00 0.  1.
          5    1    1    2  502    0 -0.36152013052E+02  0.74335309477E+02  0.29824341624E+03  0.30951464265E+03  0.41800000000E+01 0.  1.
         -5    1    1    2    0  502 -0.59178588267E+02 -0.65660924421E+01  0.47367924538E+02  0.76199813348E+02  0.41800000000E+01 0.  1.
        -11    1    1    2    0    0  0.27398490114E+02 -0.42540153367E+01  0.15500282941E+03  0.15746317357E+03  0.00000000000E+00 0. -1.
         11    1    1    2    0    0  0.67932111205E+02 -0.63515201698E+02  0.94615406055E+02  0.13266886463E+03  0.00000000000E+00 0.  1.
</event>
<event>
 6    1  0.6597032E-006  0.1330254E+03  0.7561462E-02  0.1223034E+00
          1   -1    0    0  501    0  0.00000000000E+00  0.00000000000E+00  0.20603204407E+03  0.20603204407E+03  0.00000000000E+00 0. -1.
         -1   -1    0    0    0  501 -0.00000000000E+00 -0.00000000000E+00 -0.19693227505E+03  0.19693227505E+03  0.00000000000E+00 0.  1.
          5    1    1    2  502    0  0.58625826424E+02  0.52707605386E+02 -0.14069514871E+03  0.16133095320E+03  0.41800000000E+01 0.  1.
         -5    1    1    2    0  502  0.40628154989E+02  0.59951384509E+01  0.21361711630E+02  0.46479928857E+02  0.41800000000E+01 0.  1.
        -11    1    1    2    0    0 -0.29304984573E+02 -0.69146175743E+02  0.78083121877E+02  0.10833720350E+03  0.00000000000E+00 0.  1.
         11    1    1    2    0    0 -0.69948996839E+02  0.10443431906E+02  0.50350084227E+02  0.86816233565E+02  0.00000000000E+00 0. -1.
</event>
<event>
 6    1  0.6597032E-006  0.8498316E+02  0.7561462E-02  0.1315477E+00
         -1   -1    0    0    0  501 -0.00000000000E+00  0.00000000000E+00  0.60143721086E+02  0.60143721086E+02  0.00000000000E+00 0.  1.
          1   -1    0    0  501    0  0.00000000000E+00 -0.00000000000E+00 -0.24705059694E+03  0.24705059694E+03  0.00000000000E+00 0. -1.
          5    1    1    2  502    0 -0.44813892344E+02  0.14339512680E+02  0.15062947726E+02  0.49580957686E+02  0.41800000000E+01 0.  1.
         -5    1    1    2    0  502  0.49662037887E+02 -0.23886926408E+02 -0.65548084086E+02  0.85737547129E+02  0.41800000000E+01 0.  1.
        -11    1    1    2    0    0 -0.11986161180E+02  0.37106282913E+02 -0.73234232722E+01  0.39675897216E+02  0.00000000000E+00 0.  1.
         11    1    1    2    0    0  0.71380156368E+01 -0.27558869185E+02 -0.12909831622E+03  0.13219991600E+03  0.00000000000E+00 0. -1.
</event>
<event>
 6    1  0.6597032E-006  0.1284378E+03  0.7561462E-02  0.1229792E+00
         -1   -1    0    0    0  501 -0.00000000000E+00  0.00000000000E+00  0.43676840848E+02  0.43676840848E+02  0.00000000000E+00 0.  1.
          1   -1    0    0  501    0  0.00000000000E+00 -0.00000000000E+00 -0.89555431085E+03  0.89555431085E+03  0.00000000000E+00 0. -1.
          5    1    1    2  502    0  0.32362558930E+02 -0.59009573152E+02 -0.16066030431E+03  0.17423739761E+03  0.41800000000E+01 0. -1.
         -5    1    1    2    0  502 -0.97245243725E+01 -0.46125176123E+02  0.10903657679E+02  0.48563982512E+02  0.41800000000E+01 0. -1.
        -11    1    1    2    0    0  0.19327582626E+02 -0.84031330353E+01 -0.12321915951E+03  0.12500851717E+03  0.00000000000E+00 0. -1.
         11    1    1    2    0    0 -0.41965617183E+02  0.11353788231E+03 -0.57890166386E+03  0.59142125441E+03  0.00000000000E+00 0.  1.
</event>
<event>
 6    1  0.6597032E-006  0.1636586E+03  0.7561462E-02  0.1184627E+00
          2   -1    0    0  501    0  0.00000000000E+00  0.00000000000E+00  0.58920705606E+03  0.58920705606E+03  0.00000000000E+00 0. -1.
         -2   -1    0    0    0  501 -0.00000000000E+00 -0.00000000000E+00 -0.85098538937E+02  0.85098538937E+02  0.00000000000E+00 0.  1.
          5    1    1    2  502    0 -0.10686744950E+03 -0.34088009028E+02  0.11492833962E+02  0.11283705842E+03  0.41800000000E+01 0.  1.
         -5    1    1    2    0  502  0.10165334307E+02 -0.70262889951E+02  0.47722038143E+02  0.85645041014E+02  0.41800000000E+01 0.  1.
        -11    1    1    2    0    0  0.38912349647E+02  0.26858856242E+02  0.28564111419E+03  0.28952791788E+03  0.00000000000E+00 0. -1.
         11    1    1    2    0    0  0.57789765541E+02  0.77492042737E+02  0.15925253082E+03  0.18629557768E+03  0.00000000000E+00 0.  1.
</event>
<event>
 6    1  0.6597032E-006  0.1042265E+03  0.7561462E-02  0.1271651E+00
          2   -1    0    0  501    0  0.00000000000E+00  0.00000000000E+00  0.46977118684E+03  0.46977118684E+03  0.00000000000E+00 0. -1.
         -2   -1    0    0    0  501 -0.00000000000E+00 -0.00000000000E+00 -0.27554283037E+02  0.27554283037E+02  0.00000000000E+00 0.  1.
          5    1    1    2  502    0  0.23458713510E+02 -0.59016564991E+02  0.11185523244E+03  0.12869472253E+03  0.41800000000E+01 0. -1.
         -5    1    1    2    0  502 -0.44738757589E+01  0.60395539191E+02  0.82545448293E+02  0.10246394562E+03  0.41800000000E+01 0.  1.
        -11    1    1    2    0    0 -0.49999299972E+02 -0.11820415741E+02  0.79204349114E+02  0.94408586181E+02  0.00000000000E+00 0.  1.
         11    1    1    2    0    0  0.31014462221E+02  0.10441441541E+02  0.16861187395E+03  0.17175821554E+03  0.00000000000E+00 0. -1.
</event>
<event>
 6    1  0.6597032E-006  0.1054314E+03  0.7561462E-02  0.1269272E+00
         -2   -1    0    0    0  501 -0.00000000000E+00  0.00000000000E+00  0.14823171504E+03  0.14823171504E+03  0.00000000000E+00 0.  1.
          2   -1    0    0  501    0  0.00000000000E+00 -0.00000000000E+00 -0.14026167299E+03  0.14026167299E+03  0.00000000000E+00 0. -1.
          5    1    1    2  502    0  0.19709331680E+02 -0.45313534784E+02  0.69587383585E+02  0.85449695986E+02  0.41800000000E+01 0. -1.
         -5    1    1    2    0  502  0.24246004422E+02  0.67608429894E+02  0.15298049757E+02  0.73554546083E+02  0.41800000000E+01 0. -1.
        -11    1    1    2    0    0 -0.60235369498E+02  0.17817596791E+01 -0.80115308101E+02  0.10024937405E+03  0.00000000000E+00 0. -1.
         11    1    1    2    0    0  0.16280033397E+02 -0.24076654789E+02  0.31999168106E+01  0.29239771901E+02  0.00000000000E+00 0.  1.
</event>
<event>
 6    1  0.6597032E-006  0.1256894E+03  0.7561462E-02  0.1233996E+00
         -2   -1    0    0    0  501 -0.00000000000E+00  0.00000000000E+00  0.37624223297E+02  0.37624223297E+02  0.00000000000E+00 0.  1.
          2   -1    0    0  501    0  0.00000000000E+00 -0.00000000000E+00 -0.61180142946E+03  0.61180142946E+03  0.00000000000E+00 0. -1.
          5    1    1    2  502    0 -0.66836333937E+02 -0.63835138425E+02 -0.77038046284E+02  0.12039249730E+03  0.41800000000E+01 0.  1.
         -5    1    1    2    0  502 -0.22916932919E+02  0.48309658549E+01 -0.20443434735E+03  0.20581399083E+03  0.41800000000E+01 0.  1.
        -11    1    1    2    0    0  0.59277996448E+02  0.78891760204E+02 -0.18723064389E+03  0.21164381565E+03  0.00000000000E+00 0.  1.
         11    1    1    2    0    0  0.30475270407E+02 -0.19887587634E+02 -0.10547416863E+03  0.11157534897E+03  0.00000000000E+00 0. -1.
</event>
<event>
 6    1  0.6597032E-006  0.9871995E+02  0.7561462E-02  0.1283011E+00
         -2   -1    0    0    0  501 -0.00000000000E+00  0.00000000000E+00  0.41409277148E+03  0.41409277148E+03  0.00000000000E+00 0. -1.
          2   -1    0    0  501    0  0.00000000000E+00 -0.00000000000E+00 -0.47584275191E+02  0.47584275191E+02  0.00000000000E+00 0.  1.
          5    1    1    2  502    0  0.86236957314E+02 -0.44656407475E+01  0.21445416249E+03  0.23122459853E+03  0.41800000000E+01 0.  1.
         -5    1    1    2    0  502 -0.44936163858E+02 -0.91374091885E+01  0.11577335183E+03  0.12459411087E+03  0.41800000000E+01 0.  1.
        -11    1    1    2    0    0  0.10203621991E+02  0.83200301296E+01 -0.23399837629E+02  0.26849379958E+02  0.00000000000E+00 0.  1.
         11    1    1    2    0    0 -0.51504415447E+02  0.52830198064E+01  0.59680819594E+02  0.79008957317E+02  0.00000000000E+00 0. -1.
</event>
<event>
 6    1  0.6597032E-006  0.1077158E+03  0.7561462E-02  0.1264859E+00
         -3   -1    0    0    0  501 -0.00000000000E+00  0.00000000000E+00  0.10471788586E+03  0.10471788586E+03  0.00000000000E+00 0.  1.
          3   -1    0    0  501    0  0.00000000000E+00 -0.00000000000E+00 -0.13157117014E+03  0.13157117014E+03  0.00000000000E+00 0. -1.
          5    1    1    2  502    0 -0.32880785288E+02 -0.51165662912E+02  0.45751504200E+01  0.61134895958E+02  0.41800000000E+01 0.  1.
         -5    1    1    2    0  502  0.40933631794E+02  0.47994436273E+02  0.22846057348E+02  0.67219363738E+02  0.41800000000E+01 0.  1.
        -11    1    1    2    0    0  0.32525392512E+02 -0.25696508561E+02 -0.35957456569E+02  0.54873950042E+02  0.00000000000E+00 0. -1.
         11    1    1    2    0    0 -0.40578239018E+02  0.28867735200E+02 -0.18317035482E+02  0.53060846264E+02  0.00000000000E+00 0.  1.
</event>
<event>
 6    1  0.6597032E-006  0.1694185E+03  0.7561462E-02  0.1178456E+00
         -3   -1    0    0    0  501 -0.00000000000E+00  0.00000000000E+00  0.21989017963E+03  0.21989017963E+03  0.00000000000E+00 0.  1.
          3   -1    0    0  501    0  0.00000000000E+00 -0.00000000000E+00 -0.20047264093E+03  0.20047264093E+03  0.00000000000E+00 0. -1.
          5    1    1    2  502    0 -0.14224618212E+03 -0.77506211045E+02  0.84725813230E+02  0.18285820984E+03  0.41800000000E+01 0. -1.
         -5    1    1    2    0  502  0.67923504155E+01  0.25942602279E+02  0.29473441443E+02  0.40066329850E+02  0.41800000000E+01 0. -1.
        -11    1    1    2    0    0  0.11736162000E+03  0.29301598163E+02 -0.11126431161E+03  0.16435352306E+03  0.00000000000E+00 0. -1.
         11    1    1    2    0    0  0.18092211704E+02  0.22262010604E+02  0.16482595637E+02  0.33084757811E+02  0.00000000000E+00 0.  1.
</event>
<event>
 6    1  0.6597032E-006  0.2266557E+03  0.7561462E-02  0.1129016E+00
         -2   -1    0    0    0  501 -0.00000000000E+00  0.00000000000E+00  0.26591323719E+03  0.26591323719E+03  0.00000000000E+00 0. -1.
          2   -1    0    0  501    0  0.00000000000E+00 -0.00000000000E+00 -0.32028798337E+03  0.32028798337E+03  0.00000000000E+00 0.  1.
          5    1    1    2  502    0  0.16229656903E+02  0.21130218899E+02 -0.20016538808E+02  0.33586040847E+02  0.41800000000E+01 0. -1.
         -5    1    1    2    0  502  0.19260548492E+03  0.29191317068E+02  0.15705521880E+03  0.25026549896E+03  0.41800000000E+01 0. -1.
        -11    1    1    2    0    0 -0.12916463722E+03  0.12868786331E+02 -0.12917855442E+03  0.18312893843E+03  0.00000000000E+00 0.  1.
         11    1    1    2    0    0 -0.79670504607E+02 -0.63190322298E+02 -0.62234871764E+02  0.11922074232E+03  0.00000000000E+00 0. -1.
</event>
<event>
 6    1  0.6597032E-006  0.1001511E+03  0.7561462E-02  0.1279979E+00
         -2   -1    0    0    0  501 -0.00000000000E+00  0.00000000000E+00  0.12886877603E+02  0.12886877603E+02  0.00000000000E+00 0. -1.
          2   -1    0    0  501    0  0.00000000000E+00 -0.00000000000E+00 -0.98189365439E+03  0.98189365439E+03  0.00000000000E+00 0.  1.
          5    1    1    2  502    0 -0.35471242190E+02 -0.18986948633E+02 -0.40116905239E+03  0.40320316744E+03  0.41800000000E+01 0.  1.
         -5    1    1    2    0  502  0.41868896614E+02  0.48304109829E+02 -0.15640270050E+03  0.16901351619E+03  0.41800000000E+01 0.  1.
        -11    1    1    2    0    0 -0.36677929598E+02  0.17022828008E+02 -0.19627941746E+03  0.20040123980E+03  0.00000000000E+00 0.  1.
         11    1    1    2    0    0  0.30280275175E+02 -0.46339989205E+02 -0.21515560644E+03  0.22216260857E+03  0.00000000000E+00 0. -1.
</event>
<event>
 6    1  0.6597032E-006  0.1260215E+03  0.7561462E-02  0.1233481E+00
          2   -1    0    0  501    0  0.00000000000E+00  0.00000000000E+00  0.62300135398E+03  0.62300135398E+03  0.00000000000E+00 0. -1.
         -2   -1    0    0    0  501 -0.00000000000E+00 -0.00000000000E+00 -0.49700136734E+02  0.49700136734E+02  0.00000000000E+00 0.  1.
          5    1    1    2  502    0 -0.44733609508E+01  0.77453444224E+02  0.59988287979E+01  0.77926281364E+02  0.41800000000E+01 0. -1.
         -5    1    1    2    0  502  0.14014486491E+02  0.31566061877E+02  0.13693672283E+03  0.14128680247E+03  0.41800000000E+01 0. -1.
        -11    1    1    2    0    0 -0.48269857340E+02 -0.64255795064E+02  0.19768315725E+03  0.21339497882E+03  0.00000000000E+00 0.  1.
         11    1    1    2    0    0  0.38728731800E+02 -0.44763711037E+02  0.23268250838E+03  0.24009342806E+03  0.00000000000E+00 0. -1.
</event>
<event>
 6    1  0.6597032E-006  0.9960000E+02  0.7561462E-02  0.1281139E+00
         -2   -1    0    0    0  501 -0.00000000000E+00  0.00000000000E+00  0.69749671979E+02  0.69749671979E+02  0.00000000000E+00 0.  1.
          2   -1    0    0  501    0  0.00000000000E+00 -0.00000000000E+00 -0.22579715292E+03  0.22579715292E+03  0.00000000000E+00 0. -1.
          5    1    1    2  502    0  0.29410589704E+02 -0.42950056561E+02 -0.39930143695E+02  0.65738717060E+02  0.41800000000E+01 0.  1.
         -5    1    1    2    0  502  0.13784198653E+02  0.78610541409E+02 -0.11990688497E+02  0.80813800577E+02  0.41800000000E+01 0.  1.
        -11    1    1    2    0    0 -0.33899519338E+02 -0.40868239039E+01 -0.11033747061E+03  0.11549994356E+03  0.00000000000E+00 0. -1.
         11    1    1    2    0    0 -0.92952690190E+01 -0.31573660944E+02  0.62108218638E+01  0.33494363702E+02  0.00000000000E+00 0.  1.
</event>
<event>
 6    1  0.6597032E-006  0.9777441E+02  0.7561462E-02  0.1285047E+00
         -1   -1    0    0    0  501 -0.00000000000E+00  0.00000000000E+00  0.37121200483E+02  0.37121200483E+02  0.00000000000E+00 0.  1.
          1   -1    0    0  501    0  0.00000000000E+00 -0.00000000000E+00 -0.34802233141E+03  0.34802233141E+03  0.00000000000E+00 0. -1.
          5    1    1    2  502    0  0.30002661846E+01  0.39601098152E+02 -0.12678983291E+03  0.13292999173E+03  0.41800000000E+01 0. -1.
         -5    1    1    2    0  502  0.10438257877E+01 -0.59188502985E+02 -0.24015130679E+02  0.64020054354E+02  0.41800000000E+01 0. -1.
        -11    1    1    2    0    0 -0.42816441470E+02 -0.13922561984E+02 -0.96756281719E+02  0.10671861808E+03  0.00000000000E+00 0.  1.
         11    1    1    2    0    0  0.38772349498E+02  0.33509966817E+02 -0.63339885625E+02  0.81474867736E+02  0.00000000000E+00 0. -1.
</event>
<event>
 6    1  0.6597032E-006  0.2444409E+03  0.7561462E-02  0.1116869E+00
          1   -1    0    0  501    0  0.00000000000E+00  0.00000000000E+00  0.18301090485E+03  0.18301090485E+03  0.00000000000E+00 0. -1.
         -1   -1    0    0    0  501 -0.00000000000E+00 -0.00000000000E+00 -0.41840635615E+03  0.41840635615E+03  0.00000000000E+00 0.  1.
          5    1    1    2  502    0  0.12174651082E+03  0.54002076016E+02 -0.18250377037E+03  0.22597242246E+03  0.41800000000E+01 0. -1.
         -5    1    1    2    0  502  0.11344187170E+03 -0.38917707119E+01 -0.27372638036E+02  0.11683722801E+03  0.41800000000E+01 0. -1.
        -11    1    1    2    0    0 -0.17822280910E+03 -0.25686223114E+02  0.20757663012E+02  0.18125681315E+03  0.00000000000E+00 0. -1.
         11    1    1    2    0    0 -0.56965573428E+02 -0.24424082190E+02 -0.46276705904E+02  0.77350797385E+02  0.00000000000E+00 0.  1.
</event>
<event>
 6    1  0.6597032E-006  0.1015845E+03  0.7561462E-02  0.1276999E+00
          2   -1    0    0  501    0  0.00000000000E+00  0.00000000000E+00  0.72731667004E+02  0.72731667004E+02  0.00000000000E+00 0.  1.
         -2   -1    0    0    0  501 -0.00000000000E+00 -0.00000000000E+00 -0.19198608726E+03  0.19198608726E+03  0.00000000000E+00 0. -1.
          5    1    1    2  502    0 -0.57691139334E+01  0.64456476010E+02 -0.66325214315E+02  0.92760047591E+02  0.41800000000E+01 0.  1.
         -5    1    1    2    0  502  0.35375953413E+02 -0.51551605608E+02 -0.37955271813E+02  0.73260502176E+02  0.41800000000E+01 0.  1.
        -11    1    1    2    0    0  0.69530777316E+01 -0.33147129961E+02 -0.38065934743E+02  0.50951868488E+02  0.00000000000E+00 0. -1.
         11    1    1    2    0    0 -0.36559917212E+02  0.20242259560E+02  0.23092000612E+02  0.47745336012E+02  0.00000000000E+00 0.  1.
</event>
<event>
 6    1  0.6597032E-006  0.1102077E+03  0.7561462E-02  0.1260186E+00
         -1   -1    0    0    0  501 -0.00000000000E+00  0.00000000000E+00  0.39015003512E+03  0.39015003512E+03  0.00000000000E+00 0.  1.
          1   -1    0    0  501    0  0.00000000000E+00 -0.00000000000E+00 -0.28465289305E+03  0.28465289305E+03  0.00000000000E+00 0. -1.
          5    1    1    2  502    0 -0.63539788369E+02 -0.11118281423E+02  0.21028465218E+03  0.21999551866E+03  0.41800000000E+01 0. -1.
         -5    1    1    2    0  502  0.36535439211E+02  0.44840225138E+02  0.16062401495E+03  0.17077186737E+03  0.41800000000E+01 0.  1.
        -11    1    1    2    0    0  0.19670779854E+02  0.28776172701E+02 -0.13205440693E+03  0.13657735569E+03  0.00000000000E+00 0.  1.
         11    1    1    2    0    0  0.73335693041E+01 -0.62498116415E+02 -0.13335711813E+03  0.14745818645E+03  0.00000000000E+00 0. -1.
</event>
<event>
 6    1  0.6597032E-006  0.2114763E+03  0.7561462E-02  0.1140402E+00
         -2   -1    0    0    0  501 -0.00000000000E+00  0.00000000000E+00  0.45048902601E+02  0.45048902601E+02  0.00000000000E+00 0.  1.
          2   -1    0    0  501    0  0.00000000000E+00 -0.00000000000E+00 -0.12512509193E+04  0.12512509193E+04  0.00000000000E+00 0. -1.
          5    1    1    2  502    0 -0.50205090933E+02  0.61163947503E+02 -0.91421782454E+02  0.12098344654E+03  0.41800000000E+01 0.  1.
         -5    1    1    2    0  502 -0.10495089026E+03  0.81492554513E+02 -0.54557171113E+03  0.56153511929E+03  0.41800000000E+01 0.  1.
        -11    1    1    2    0    0  0.12575462441E+03 -0.11595185967E+03 -0.33411042580E+03  0.37535161642E+03  0.00000000000E+00 0.  1.
         11    1    1    2    0    0  0.29401356783E+02 -0.26704642348E+02 -0.23509809731E+03  0.23842963965E+03  0.00000000000E+00 0. -1.
</event>
<event>
 6    1  0.6597032E-006  0.1090343E+03  0.7561462E-02  0.1262369E+00
         -1   -1    0    0    0  501 -0.00000000000E+00  0.00000000000E+00  0.15925513299E+02  0.15925513299E+02  0.00000000000E+00 0.  1.
          1   -1    0    0  501    0  0.00000000000E+00 -0.00000000000E+00 -0.83300691056E+03  0.83300691056E+03  0.00000000000E+00 0. -1.
          5    1    1    2  502    0 -0.55462142010E+02  0.40131899496E+02 -0.19327572775E+03  0.20508436774E+03  0.41800000000E+01 0.  1.
         -5    1    1    2    0  502  0.53994275240E+02 -0.20377037003E+02 -0.14435272934E+03  0.15551780690E+03  0.41800000000E+01 0.  1.
        -11    1    1    2    0    0  0.15926925294E+02 -0.53013279383E+02 -0.32472182509E+03  0.32940603885E+03  0.00000000000E+00 0.  1.
         11    1    1    2    0    0 -0.14459058524E+02  0.33258416889E+02 -0.15473111508E+03  0.15892421037E+03  0.00000000000E+00 0. -1.
</event>
<event>
 6    1  0.6597032E-006  0.2601697E+03  0.7561462E-02  0.1107041E+00
         -2   -1    0    0    0  501 -0.00000000000E+00  0.00000000000E+00  0.40783957328E+03  0.40783957328E+03  0.00000000000E+00 0.  1.
          2   -1    0    0  501    0  0.00000000000E+00 -0.00000000000E+00 -0.17116086724E+03  0.17116086724E+03  0.00000000000E+00 0. -1.
          5    1    1    2  502    0 -0.13200585173E+03  0.84703670971E+02  0.62605223979E+02  0.16892940312E+03  0.41800000000E+01 0. -1.
         -5    1    1    2    0  502 -0.10270281719E+03 -0.38130692910E+02  0.85520951989E+02  0.13904360478E+03  0.41800000000E+01 0. -1.
        -11    1    1    2    0    0  0.35235576119E+02  0.23533902017E+02  0.15729339638E+01  0.42401232174E+02  0.00000000000E+00 0. -1.
         11    1    1    2    0    0  0.19947309281E+03 -0.70106880078E+02  0.86979596110E+02  0.22862620044E+03  0.00000000000E+00 0.  1.
</event>
<event>
 6    1  0.6597032E-006  0.9824634E+02  0.7561462E-02  0.1284027E+00
         -2   -1    0    0    0  501 -0.00000000000E+00  0.00000000000E+00  0.53141394124E+02  0.53141394124E+02  0.00000000000E+00 0.  1.
          2   -1    0    0  501    0  0.00000000000E+00 -0.00000000000E+00 -0.30180834497E+03  0.30180834497E+03  0.00000000000E+00 0. -1.
          5    1    1    2  502    0 -0.46325008196E+02 -0.24749229867E+02  0.11594760507E+02  0.53948509104E+02  0.41800000000E+01 0.  1.
         -5    1    1    2    0  502  0.45696072901E+02  0.28606505688E+02 -0.58581371143E+02  0.79722723807E+02  0.41800000000E+01 0.  1.
        -11    1    1    2    0    0  0.12670008001E+02  0.41194198011E+02 -0.78269368541E+02  0.89350909925E+02  0.00000000000E+00 0.  1.
         11    1    1    2    0    0 -0.12041072706E+02 -0.45051473832E+02 -0.12341097167E+03  0.13192759626E+03  0.00000000000E+00 0. -1.
</event>
<event>
 6    1  0.6597032E-006  0.1569808E+03  0.7561462E-02  0.1192148E+00
         -1   -1    0    0    0  501 -0.00000000000E+00  0.00000000000E+00  0.21509343124E+03  0.21509343124E+03  0.00000000000E+00 0.  1.
          1   -1    0    0  501    0  0.00000000000E+00 -0.00000000000E+00 -0.28359851881E+03  0.28359851881E+03  0.00000000000E+00 0. -1.
          5    1    1    2  502    0 -0.74848971955E+02  0.55866416548E+02  0.14094233007E+03  0.16913201325E+03  0.41800000000E+01 0.  1.
         -5    1    1    2    0  502  0.24815653375E+01  0.63643757855E+02 -0.26208309839E+01  0.63882918182E+02  0.41800000000E+01 0.  1.
        -11    1    1    2    0    0  0.26535213955E+02 -0.10539370427E+03 -0.18122059148E+03  0.21131221748E+03  0.00000000000E+00 0.  1.
         11    1    1    2    0    0  0.45832192662E+02 -0.14116470129E+02 -0.25605995185E+02  0.54364801136E+02  0.00000000000E+00 0. -1.
</event>
<event>
 6    1  0.6597032E-006  0.1035859E+03  0.7561462E-02  0.1272931E+00
         -2   -1    0    0    0  501 -0.00000000000E+00  0.00000000000E+00  0.19671767212E+02  0.19671767212E+02  0.00000000000E+00 0.  1.
          2   -1    0    0  501    0  0.00000000000E+00 -0.00000000000E+00 -0.68816321145E+03  0.68816321145E+03  0.00000000000E+00 0. -1.
          5    1    1    2  502    0  0.23500989237E+02  0.28539176067E+02 -0.20977765598E+03  0.21305144547E+03  0.41800000000E+01 0.  1.
         -5    1    1    2    0  502 -0.64418716865E+02 -0.49120606671E+02 -0.14894753357E+03  0.16960378899E+03  0.41800000000E+01 0.  1.
        -11    1    1    2    0    0 -0.70230727395E+01  0.37392084737E+02 -0.20784936960E+03  0.21130274962E+03  0.00000000000E+00 0. -1.
         11    1    1    2    0    0  0.47940800367E+02 -0.16810654133E+02 -0.10191688508E+03  0.11387699459E+03  0.00000000000E+00 0.  1.
</event>
<event>
 6    1  0.6597032E-006  0.1093878E+03  0.7561462E-02  0.1261708E+00
         -1   -1    0    0    0  501 -0.00000000000E+00  0.00000000000E+00  0.91235903676E+02  0.91235903676E+02  0.00000000000E+00 0.  1.
          1   -1    0    0  501    0  0.00000000000E+00 -0.00000000000E+00 -0.16944229849E+03  0.16944229849E+03  0.00000000000E+00 0. -1.
          5    1    1    2  502    0  0.32801354968E+02  0.68647103128E+01  0.30013434342E+02  0.45181099770E+02  0.41800000000E+01 0.  1.
         -5    1    1    2    0  502 -0.53439597595E+02 -0.59005601219E+02 -0.48073005389E+02  0.93091018973E+02  0.41800000000E+01 0.  1.
        -11    1    1    2    0    0  0.25936137527E+02 -0.20123811647E+02 -0.10108188794E+02  0.34348602675E+02  0.00000000000E+00 0. -1.
         11    1    1    2    0    0 -0.52978949000E+01  0.72264702553E+02 -0.50038634970E+02  0.88057480745E+02  0.00000000000E+00 0.  1.
</event>
<event>
 6    1  0.6597032E-006  0.1425319E+03  0.7561462E-02  0.1209962E+00
          2   -1    0    0  501    0  0.00000000000E+00  0.00000000000E+00  0.46363676720E+03  0.46363676720E+03  0.00000000000E+00 0. -1.
         -2   -1    0    0    0  501 -0.00000000000E+00 -0.00000000000E+00 -0.81369953607E+02  0.81369953607E+02  0.00000000000E+00 0.  1.
          5    1    1    2  502    0  0.26683845180E+02  0.66378938942E+02  0.99391826384E+02  0.12253325541E+03  0.41800000000E+01 0.  1.
         -5    1    1    2    0  502  0.13912979617E+02  0.54253288677E+02 -0.36158333827E+02  0.66797364015E+02  0.41800000000E+01 0.  1.
        -11    1    1    2    0    0 -0.48956556198E+02 -0.14900556412E+02  0.10335299589E+03  0.11532828246E+03  0.00000000000E+00 0.  1.
         11    1    1    2    0    0  0.83597314014E+01 -0.10573167121E+03  0.21568032514E+03  0.24034781892E+03  0.00000000000E+00 0. -1.
</event>
<event>
 6    1  0.6597032E-006  0.6280045E+02  0.7561462E-02  0.1386442E+00
          2   -1    0    0  501    0  0.00000000000E+00  0.00000000000E+00  0.86365600747E+02  0.86365600747E+02  0.00000000000E+00 0. -1.
         -2   -1    0    0    0  501 -0.00000000000E+00 -0.00000000000E+00 -0.17867397424E+03  0.17867397424E+03  0.00000000000E+00 0.  1.
          5    1    1    2  502    0 -0.20943500299E+02  0.32438025134E+02  0.20103689120E+02  0.43731983669E+02  0.41800000000E+01 0.  1.
         -5    1    1    2    0  502  0.13569455512E+02  0.82342973486E+01 -0.12126292722E+03  0.12236872024E+03  0.41800000000E+01 0.  1.
        -11    1    1    2    0    0  0.18283645325E+02  0.83704139286E+01  0.36440493201E+02  0.41620488469E+02  0.00000000000E+00 0. -1.
         11    1    1    2    0    0 -0.10909600538E+02 -0.49042736411E+02 -0.27589628593E+02  0.57318382605E+02  0.00000000000E+00 0.  1.
</event>
<event>
 6    1  0.6597032E-006  0.1161356E+03  0.7561462E-02  0.1249612E+00
         -2   -1    0    0    0  501 -0.00000000000E+00  0.00000000000E+00  0.66755674572E+02  0.66755674572E+02  0.00000000000E+00 0.  1.
          2   -1    0    0  501    0  0.00000000000E+00 -0.00000000000E+00 -0.27944791541E+03  0.27944791541E+03  0.00000000000E+00 0. -1.
          5    1    1    2  502    0 -0.43691466614E+02  0.42743391692E+02 -0.50220859620E+02  0.79218362323E+02  0.41800000000E+01 0.  1.
         -5    1    1    2    0  502  0.63625083357E+02  0.11829425865E+02  0.72292996975E+01  0.65251986350E+02  0.41800000000E+01 0.  1.
        -11    1    1    2    0    0 -0.55008920790E+02 -0.40735752669E+02 -0.13037514042E+03  0.14725168981E+03  0.00000000000E+00 0. -1.
         11    1    1    2    0    0  0.35075304047E+02 -0.13837064887E+02 -0.39325540494E+02  0.54481551500E+02  0.00000000000E+00 0.  1.
</event>
<event>
 6    1  0.6597032E-006  0.8587363E+02  0.7561462E-02  0.1313164E+00
          1   -1    0    0  501    0  0.00000000000E+00  0.00000000000E+00  0.85462550937E+02  0.85462550937E+02  0.00000000000E+00 0. -1.
         -1   -1    0    0    0  501 -0.00000000000E+00 -0.00000000000E+00 -0.15639836750E+03  0.15639836750E+03  0.00000000000E+00 0.  1.
          5    1    1    2  502    0  0.26028492115E+02  0.66938027796E+01 -0.85972330148E+02  0.90172076324E+02  0.41800000000E+01 0. -1.
         -5    1    1    2    0  502 -0.46061780667E+02  0.11029076539E+02  0.22528831916E+02  0.52615100827E+02  0.41800000000E+01 0. -1.
        -11    1    1    2    0    0  0.54283521639E+02 -0.28216643482E+02 -0.13761046153E+02  0.62707623796E+02  0.00000000000E+00 0.  1.
         11    1    1    2    0    0 -0.34250233087E+02  0.10493764163E+02  0.62687278214E+01  0.36366117490E+02  0.00000000000E+00 0. -1.
</event>
<event>
 6    1  0.6597032E-006  0.1180572E+03  0.7561462E-02  0.1246337E+00
         -2   -1    0    0    0  501 -0.00000000000E+00  0.00000000000E+00  0.12335093786E+03  0.12335093786E+03  0.00000000000E+00 0.  1.
          2   -1    0    0  501    0  0.00000000000E+00 -0.00000000000E+00 -0.15620358158E+03  0.15620358158E+03  0.00000000000E+00 0. -1.
          5    1    1    2  502    0 -0.50845692218E+02  0.15651818173E+02  0.39889923226E+02  0.66625387085E+02  0.41800000000E+01 0. -1.
         -5    1    1    2    0  502 -0.10031944453E+02 -0.76488320636E+02 -0.36060970918E+02  0.85258249611E+02  0.41800000000E+01 0. -1.
        -11    1    1    2    0    0  0.21251928966E+02 -0.10641071624E+02  0.17587639247E+02  0.29566906235E+02  0.00000000000E+00 0.  1.
         11    1    1    2    0    0  0.39625707705E+02  0.71477574086E+02 -0.54269235282E+02  0.98103976507E+02  0.00000000000E+00 0. -1.
</event>
<event>
 6    1  0.6597032E-006  0.1214566E+03  0.7561462E-02  0.1240713E+00
         -1   -1    0    0    0  501 -0.00000000000E+00  0.00000000000E+00  0.11772313421E+03  0.11772313421E+03  0.00000000000E+00 0.  1.
          1   -1    0    0  501    0  0.00000000000E+00 -0.00000000000E+00 -0.30455523499E+03  0.30455523499E+03  0.00000000000E+00 0. -1.
          5    1    1    2  502    0 -0.50694395163E+02 -0.15741620331E+02  0.17931879170E+02  0.56184917925E+02  0.41800000000E+01 0. -1.
         -5    1    1    2    0  502  0.33212670155E+02  0.83441208465E+02  0.39488463948E+02  0.98195355868E+02  0.41800000000E+01 0. -1.
        -11    1    1    2    0    0 -0.14282465737E+02  0.89057062397E+01 -0.10083448879E+03  0.10222961684E+03  0.00000000000E+00 0. -1.
         11    1    1    2    0    0  0.31764190745E+02 -0.76605294374E+02 -0.14341795511E+03  0.16566847856E+03  0.00000000000E+00 0.  1.
</event>
<event>
 6    1  0.6597032E-006  0.1032477E+03  0.7561462E-02  0.1273611E+00
          1   -1    0    0  501    0  0.00000000000E+00  0.00000000000E+00  0.76259312280E+03  0.76259312280E+03  0.00000000000E+00 0. -1.
         -1   -1    0    0    0  501 -0.00000000000E+00 -0.00000000000E+00 -0.20130784726E+02  0.20130784726E+02  0.00000000000E+00 0.  1.
          5    1    1    2  502    0 -0.79945475603E+02  0.15260136675E+02  0.34072672823E+03  0.35033744672E+03  0.41800000000E+01 0. -1.
         -5    1    1    2    0  502  0.26760176436E+02  0.47131855682E+01  0.15718783252E+02  0.31668181318E+02  0.41800000000E+01 0. -1.
        -11    1    1    2    0    0  0.73685030040E+01 -0.44796471915E+02  0.97729634120E+02  0.10775945489E+03  0.00000000000E+00 0.  1.
         11    1    1    2    0    0  0.45816796163E+02  0.24823149672E+02  0.28828719248E+03  0.29295882461E+03  0.00000000000E+00 0. -1.
</event>
<event>
 6    1  0.6597032E-006  0.9697175E+02  0.7561462E-02  0.1286796E+00
          3   -1    0    0  501    0  0.00000000000E+00  0.00000000000E+00  0.19830455874E+02  0.19830455874E+02  0.00000000000E+00 0.  1.
         -3   -1    0    0    0  501 -0.00000000000E+00 -0.00000000000E+00 -0.62236146730E+03  0.62236146730E+03  0.00000000000E+00 0. -1.
          5    1    1    2  502    0 -0.11510250453E+02  0.49879991502E+02 -0.32585215926E+03  0.32987513019E+03  0.41800000000E+01 0. -1.
         -5    1    1    2    0  502  0.17608310744E+02 -0.49789283630E+02 -0.90085267970E+02  0.10450767090E+03  0.41800000000E+01 0. -1.
        -11    1    1    2    0    0  0.40038896119E+02 -0.12291303211E+02 -0.10831027489E+03  0.11612624589E+03  0.00000000000E+00 0.  1.
         11    1    1    2    0    0 -0.46136956409E+02  0.12200595339E+02 -0.78283309303E+02  0.91682876202E+02  0.00000000000E+00 0. -1.
</event>
<event>
 6    1  0.6597032E-006  0.1077584E+03  0.7561462E-02  0.1264778E+00
         -1   -1    0    0    0  501 -0.00000000000E+00  0.00000000000E+00  0.70538494223E+03  0.70538494223E+03  0.00000000000E+00 0.  1.
          1   -1    0    0  501    0  0.00000000000E+00 -0.00000000000E+00 -0.19048328228E+02  0.19048328228E+02  0.00000000000E+00 0. -1.
          5    1    1    2  502    0 -0.27052181164E+02 -0.37074262163E+02  0.28060446917E+03  0.28436360867E+03  0.41800000000E+01 0.  1.
         -5    1    1    2    0  502  0.64637184625E+02  0.31405330816E+02  0.16488408575E+03  0.17991246364E+03  0.41800000000E+01 0.  1.
        -11    1    1    2    0    0 -0.58939600241E+02  0.29111648096E+02  0.17824904025E+03  0.18998443327E+03  0.00000000000E+00 0. -1.
         11    1    1    2    0    0  0.21354596781E+02 -0.23442716748E+02  0.62599018835E+02  0.70172764883E+02  0.00000000000E+00 0.  1.
</event>
<event>
 6    1  0.6597032E-006  0.1579132E+03  0.7561462E-02  0.1191073E+00
         -2   -1    0    0    0  501 -0.00000000000E+00  0.00000000000E+00  0.60793002981E+02  0.60793002981E+02  0.00000000000E+00 0.  1.
          2   -1    0    0  501    0  0.00000000000E+00 -0.00000000000E+00 -0.50296498645E+03  0.50296498645E+03  0.00000000000E+00 0. -1.
          5    1    1    2  502    0  0.12495471938E+03 -0.32378217114E+02 -0.10779636314E+03  0.16822472810E+03  0.41800000000E+01 0.  1.
         -5    1    1    2    0  502  0.12238850073E+02  0.46143703600E+02 -0.99236795679E+02  0.11020183687E+03  0.41800000000E+01 0.  1.
        -11    1    1    2    0    0 -0.78645748671E+02 -0.15318302224E+00 -0.56462646970E+02  0.96815328084E+02  0.00000000000E+00 0. -1.
         11    1    1    2    0    0 -0.58547820778E+02 -0.13612303464E+02 -0.17867617768E+03  0.18851609638E+03  0.00000000000E+00 0.  1.
</event>
<event>
 6    1  0.6597032E-006  0.8170809E+02  0.7561462E-02  0.1324273E+00
          1   -1    0    0  501    0  0.00000000000E+00  0.00000000000E+00  0.39112141230E+03  0.39112141230E+03  0.00000000000E+00 0. -1.
         -1   -1    0    0    0  501 -0.00000000000E+00 -0.00000000000E+00 -0.53783952648E+02  0.53783952648E+02  0.00000000000E+00 0.  1.
          5    1    1    2  502    0 -0.21836401761E+02  0.15415977830E+02  0.77737869096E+02  0.82311174855E+02  0.41800000000E+01 0. -1.
         -5    1    1    2    0  502  0.70619077601E+02 -0.47490119271E+01 -0.11473355865E+02  0.71824212703E+02  0.41800000000E+01 0.  1.
        -11    1    1    2    0    0  0.21442080320E+01 -0.14246650177E+02 -0.52383878986E+00  0.14416625002E+02  0.00000000000E+00 0.  1.
         11    1    1    2    0    0 -0.50926883873E+02  0.35796842742E+01  0.27159678521E+03  0.27635335239E+03  0.00000000000E+00 0. -1.
</event>
<event>
 6    1  0.6597032E-006  0.2383809E+03  0.7561462E-02  0.1120876E+00
          2   -1    0    0  501    0  0.00000000000E+00  0.00000000000E+00  0.46343988488E+03  0.46343988488E+03  0.00000000000E+00 0. -1.
         -2   -1    0    0    0  501 -0.00000000000E+00 -0.00000000000E+00 -0.16684485756E+03  0.16684485756E+03  0.00000000000E+00 0.  1.
          5    1    1    2  502    0 -0.34347149834E+02  0.12339028319E+02  0.75159902045E+02  0.83656808432E+02  0.41800000000E+01 0. -1.
         -5    1    1    2    0  502  0.91850620932E+02  0.18799909562E+03 -0.22904641565E+02  0.21052860025E+03  0.41800000000E+01 0.  1.
        -11    1    1    2    0    0  0.19119457517E+01 -0.15747141711E+03  0.16947728678E+03  0.23135136368E+03  0.00000000000E+00 0.  1.
         11    1    1    2    0    0 -0.59415416850E+02 -0.42866706829E+02  0.74862480065E+02  0.10474797008E+03  0.00000000000E+00 0. -1.
</event>
<event>
 6    1  0.6597032E-006  0.1596374E+03  0.7561462E-02  0.1189107E+00
          3   -1    0    0  501    0  0.00000000000E+00  0.00000000000E+00  0.16393694890E+03  0.16393694890E+03  0.00000000000E+00 0. -1.
         -3   -1    0    0    0  501 -0.00000000000E+00 -0.00000000000E+00 -0.17808020202E+03  0.17808020202E+03  0.00000000000E+00 0.  1.
          5    1    1    2  502    0 -0.50257182056E+00  0.25111879644E+02 -0.22079255879E+02  0.33702003173E+02  0.41800000000E+01 0. -1.
         -5    1    1    2    0  502 -0.48141355681E+01 -0.14440959825E+03 -0.39201914064E+02  0.14977172775E+03  0.41800000000E+01 0. -1.
        -11    1    1    2    0    0  0.36225432595E+02  0.11170845770E+03  0.25830395273E+02  0.12024254991E+03  0.00000000000E+00 0.  1.
         11    1    1    2    0    0 -0.30908725207E+02  0.75892609039E+01  0.21307521542E+02  0.38300870085E+02  0.00000000000E+00 0. -1.
</event>
<event>
 6    1  0.6597032E-006  0.1014218E+03  0.7561462E-02  0.1277334E+00
          1   -1    0    0  501    0  0.00000000000E+00  0.00000000000E+00  0.34132929975E+02  0.34132929975E+02  0.00000000000E+00 0. -1.
         -1   -1    0    0    0  501 -0.00000000000E+00 -0.00000000000E+00 -0.50349848568E+03  0.50349848568E+03  0.00000000000E+00 0.  1.
          5    1    1    2  502    0 -0.86083043907E+01  0.31597827674E+02 -0.18365660406E+03  0.18660049902E+03  0.41800000000E+01 0.  1.
         -5    1    1    2    0  502  0.81335819921E+02 -0.24854031860E+02 -0.95844208162E+02  0.12820617434E+03  0.41800000000E+01 0.  1.
        -11    1    1    2    0    0 -0.34844849341E+02 -0.24742883589E+02 -0.18791142994E+02  0.46684910506E+02  0.00000000000E+00 0. -1.
         11    1    1    2    0    0 -0.37882666189E+02  0.17999087775E+02 -0.17107360049E+03  0.17613983179E+03  0.00000000000E+00 0.  1.
</event>
<event>
 6    1  0.6597032E-006  0.1227325E+03  0.7561462E-02  0.1238656E+00
          2   -1    0    0  501    0  0.00000000000E+00  0.00000000000E+00  0.47716575990E+03  0.47716575990E+03  0.00000000000E+00 0. -1.
         -2   -1    0    0    0  501 -0.00000000000E+00 -0.00000000000E+00 -0.87238777717E+02  0.87238777717E+02  0.00000000000E+00 0.  1.
          5    1    1    2  502    0 -0.14802326810E+02 -0.97660762162E+02  0.12449201491E+03  0.15897316604E+03  0.41800000000E+01 0. -1.
         -5    1    1    2    0  502  0.28731489131E+02  0.22750011570E+02 -0.53462344289E+02  0.64951952635E+02  0.41800000000E+01 0.  1.
        -11    1    1    2    0    0 -0.31926775820E+02  0.83775225487E+02  0.29928074353E+03  0.31242050327E+03  0.00000000000E+00 0. -1.
         11    1    1    2    0    0  0.17997613500E+02 -0.88644748957E+01  0.19616568032E+02  0.28058915664E+02  0.00000000000E+00 0.  1.
</event>
<event>
 6    1  0.6597032E-006  0.1159476E+03  0.7561462E-02  0.1249936E+00
          2   -1    0    0  501    0  0.00000000000E+00  0.00000000000E+00  0.49408958940E+03  0.49408958940E+03  0.00000000000E+00 0. -1.
         -2   -1    0    0    0  501 -0.00000000000E+00 -0.00000000000E+00 -0.43710335391E+02  0.43710335391E+02  0.00000000000E+00 0.  1.
          5    1    1    2  502    0 -0.21590493623E+02  0.44420003930E+02  0.12033536827E+03  0.13014361076E+03  0.41800000000E+01 0.  1.
         -5    1    1    2    0  502 -0.61041468831E+02 -0.42652490698E+02  0.24992960458E+02  0.78660131911E+02  0.41800000000E+01 0.  1.
        -11    1    1    2    0    0  0.90435112080E+02  0.12685507957E+02  0.29696459971E+03  0.31068859826E+03  0.00000000000E+00 0. -1.
         11    1    1    2    0    0 -0.78031496269E+01 -0.14453021189E+02  0.80863255682E+01  0.18307583860E+02  0.00000000000E+00 0.  1.
</event>
<event>
 6    1  0.6597032E-006  0.1134379E+03  0.7561462E-02  0.1254333E+00
         -2   -1    0    0    0  501 -0.00000000000E+00  0.00000000000E+00  0.93412612432E+02  0.93412612432E+02  0.00000000000E+00 0.  1.
          2   -1    0    0  501    0  0.00000000000E+00 -0.00000000000E+00 -0.18036058807E+03  0.18036058807E+03  0.00000000000E+00 0. -1.
          5    1    1    2  502    0  0.10489755071E+02 -0.36208518773E+02  0.20235064040E+02  0.42988626518E+02  0.41800000000E+01 0. -1.
         -5    1    1    2    0  502 -0.78396518020E+02  0.39052796616E+02 -0.55167969463E+02  0.10359590830E+03  0.41800000000E+01 0. -1.
        -11    1    1    2    0    0  0.74138675463E+02  0.20646129848E+02 -0.63997392901E+02  0.10009231826E+03  0.00000000000E+00 0. -1.
         11    1    1    2    0    0 -0.62319125138E+01 -0.23490407692E+02  0.11982322681E+02  0.27096347428E+02  0.00000000000E+00 0.  1.
</event>
<event>
 6    1  0.6597032E-006  0.1175919E+03  0.7561462E-02  0.1247123E+00
          3   -1    0    0  501    0  0.00000000000E+00  0.00000000000E+00  0.17084171038E+02  0.17084171038E+02  0.00000000000E+00 0. -1.
         -3   -1    0    0    0  501 -0.00000000000E+00 -0.00000000000E+00 -0.13161973074E+04  0.13161973074E+04  0.00000000000E+00 0.  1.
          5    1    1    2  502    0 -0.38119185794E+02  0.16643769293E+02 -0.41125685422E+03  0.41337605147E+03  0.41800000000E+01 0. -1.
         -5    1    1    2    0  502  0.72770233360E+02 -0.76270000671E+02 -0.61615657775E+03  0.62512320432E+03  0.41800000000E+01 0.  1.
        -11    1    1    2    0    0  0.62190802800E+01  0.43502943966E+02 -0.41555307413E+02  0.60481622559E+02  0.00000000000E+00 0. -1.
         11    1    1    2    0    0 -0.40870127846E+02  0.16123287411E+02 -0.23014439702E+03  0.23430060014E+03  0.00000000000E+00 0.  1.
</event>
<event>
 6    1  0.6597032E-006  0.1101093E+03  0.7561462E-02  0.1260368E+00
         -1   -1    0    0    0  501 -0.00000000000E+00  0.00000000000E+00  0.31575761885E+03  0.31575761885E+03  0.00000000000E+00 0.  1.
          1   -1    0    0  501    0  0.00000000000E+00 -0.00000000000E+00 -0.45717296682E+02  0.45717296682E+02  0.00000000000E+00 0. -1.
          5    1    1    2  502    0  0.25838613361E+02 -0.76359338783E+02  0.72027745379E+02  0.10818433835E+03  0.41800000000E+01 0.  1.
         -5    1    1    2    0  502 -0.13308681363E+02  0.34349068419E+02  0.11664454422E+03  0.12239445084E+03  0.41800000000E+01 0.  1.
        -11    1    1    2    0    0  0.32162487333E+02 -0.10159065360E+02  0.29659956702E+02  0.44914866492E+02  0.00000000000E+00 0. -1.
         11    1    1    2    0    0 -0.44692419331E+02  0.52169335724E+02  0.51708075876E+02  0.85981259856E+02  0.00000000000E+00 0.  1.
</event>
<event>
 6    1  0.6597032E-006  0.1589964E+03  0.7561462E-02  0.1189834E+00
          1   -1    0    0  501    0  0.00000000000E+00  0.00000000000E+00  0.97436348038E+02  0.97436348038E+02  0.00000000000E+00 0. -1.
         -1   -1    0    0    0  501 -0.00000000000E+00 -0.00000000000E+00 -0.26671139009E+03  0.26671139009E+03  0.00000000000E+00 0.  1.
          5    1    1    2  502    0 -0.98668867722E+02  0.21550425289E+02 -0.33363943173E+02  0.10644525068E+03  0.41800000000E+01 0. -1.
         -5    1    1    2    0  502  0.17662094554E+02  0.65494292570E+02 -0.55073062711E+02  0.87475519888E+02  0.41800000000E+01 0. -1.
        -11    1    1    2    0    0  0.36320285365E+02 -0.96643464000E+02 -0.64258294497E+02  0.12160695159E+03  0.00000000000E+00 0.  1.
         11    1    1    2    0    0  0.44686487803E+02  0.95987461405E+01 -0.16579741673E+02  0.48620015977E+02  0.00000000000E+00 0. -1.
</event>
<event>
 6    1  0.6597032E-006  0.2630474E+03  0.7561462E-02  0.1105326E+00
         -3   -1    0    0    0  501 -0.00000000000E+00  0.00000000000E+00  0.15862320262E+04  0.15862320262E+04  0.00000000000E+00 0.  1.
          3   -1    0    0  501    0  0.00000000000E+00 -0.00000000000E+00 -0.20988216486E+03  0.20988216486E+03  0.00000000000E+00 0. -1.
          5    1    1    2  502    0 -0.22483160731E+03  0.12286095060E+03  0.12761154940E+04  0.13015883724E+04  0.41800000000E+01 0. -1.
         -5    1    1    2    0  502  0.68850276592E+01 -0.11602227981E+01  0.20981344752E+03  0.20997120013E+03  0.41800000000E+01 0.  1.
        -11    1    1    2    0    0  0.10278170098E+03 -0.10213161374E+03 -0.48942552710E+02  0.15293893568E+03  0.00000000000E+00 0.  1.
         11    1    1    2    0    0  0.11516487867E+03 -0.19569114067E+02 -0.60636527456E+02  0.13161568283E+03  0.00000000000E+00 0. -1.
</event>
<event>
 6    1  0.6597032E-006  0.1277537E+03  0.7561462E-02  0.1230827E+00
         -1   -1    0    0    0  501 -0.00000000000E+00  0.00000000000E+00  0.20553257772E+03  0.20553257772E+03  0.00000000000E+00 0.  1.
          1   -1    0    0  501    0  0.00000000000E+00 -0.00000000000E+00 -0.20764144384E+03  0.20764144384E+03  0.00000000000E+00 0. -1.
          5    1    1    2  502    0  0.61567661423E+02  0.77654271816E+02  0.11199241476E+03  0.14960125744E+03  0.41800000000E+01 0.  1.
         -5    1    1    2    0  502  0.29130382992E+02 -0.47100134940E+02  0.33760091445E+02  0.64993985098E+02  0.41800000000E+01 0.  1.
        -11    1    1    2    0    0 -0.69218737163E+02 -0.36825963133E+02 -0.39239796502E+02  0.87676375179E+02  0.00000000000E+00 0.  1.
         11    1    1    2    0    0 -0.21479307252E+02  0.62718262565E+01 -0.10862157582E+03  0.11090240384E+03  0.00000000000E+00 0. -1.
</event>
<event>
 6    1  0.6597032E-006  0.1187233E+03  0.7561462E-02  0.1245218E+00
          4   -1    0    0  501    0  0.00000000000E+00  0.00000000000E+00  0.13045104093E+03  0.13045104093E+03  0.00000000000E+00 0.  1.
         -4   -1    0    0    0  501 -0.00000000000E+00 -0.00000000000E+00 -0.14179168473E+03  0.14179168473E+03  0.00000000000E+00 0. -1.
          5    1    1    2  502    0  0.92391966517E+02  0.21441846169E+02  0.37815596579E+02  0.10219354182E+03  0.41800000000E+01 0.  1.
         -5    1    1    2    0  502 -0.20696926270E+02  0.16867506772E+02 -0.38445658119E+02  0.46993792887E+02  0.41800000000E+01 0.  1.
        -11    1    1    2    0    0  0.23463024089E+01 -0.41313358929E+02  0.15886238671E+02  0.44324613254E+02  0.00000000000E+00 0.  1.
         11    1    1    2    0    0 -0.74041342656E+02  0.30040059881E+01 -0.26596820930E+02  0.78730777704E+02  0.00000000000E+00 0. -1.
</event>
<event>
 6    1  0.6597032E-006  0.8321513E+02  0.7561462E-02  0.1320167E+00
         -1   -1    0    0    0  501 -0.00000000000E+00  0.00000000000E+00  0.29489292379E+03  0.29489292379E+03  0.00000000000E+00 0.  1.
          1   -1    0    0  501    0  0.00000000000E+00 -0.00000000000E+00 -0.47195878858E+02  0.47195878858E+02  0.00000000000E+00 0. -1.
          5    1    1    2  502    0  0.62493740984E+02 -0.94092642518E+01  0.17694008690E+03  0.18793421367E+03  0.41800000000E+01 0.  1.
         -5    1    1    2    0  502 -0.28990086145E+02 -0.12940246375E+02 -0.55081151788E+00  0.32025784366E+02  0.41800000000E+01 0.  1.
        -11    1    1    2    0    0 -0.24060408762E+02  0.42489586583E+02  0.14884024373E+01  0.48851648688E+02  0.00000000000E+00 0. -1.
         11    1    1    2    0    0 -0.94432460770E+01 -0.20140075955E+02  0.69819367113E+02  0.73277155922E+02  0.00000000000E+00 0.  1.
</event>
<event>
 6    1  0.6597032E-006  0.1262087E+03  0.7561462E-02  0.1233192E+00
          2   -1    0    0  501    0  0.00000000000E+00  0.00000000000E+00  0.12185095291E+03  0.12185095291E+03  0.00000000000E+00 0. -1.
         -2   -1    0    0    0  501 -0.00000000000E+00 -0.00000000000E+00 -0.14461808442E+03  0.14461808442E+03  0.00000000000E+00 0.  1.
          5    1    1    2  502    0 -0.25794666779E+02 -0.41983186768E+02 -0.34022788745E+02  0.60024789540E+02  0.41800000000E+01 0. -1.
         -5    1    1    2    0  502 -0.32835551533E+02  0.80100929076E+02 -0.21351552167E+01  0.86696964025E+02  0.41800000000E+01 0. -1.
        -11    1    1    2    0    0  0.52648989787E+02  0.21141428929E+02  0.19220383245E+02  0.59902414599E+02  0.00000000000E+00 0. -1.
         11    1    1    2    0    0  0.59812285244E+01 -0.59259171238E+02 -0.58295707957E+01  0.59844869171E+02  0.00000000000E+00 0.  1.
</event>
<event>
 6    1  0.6597032E-006  0.2054123E+03  0.7561462E-02  0.1145251E+00
          2   -1    0    0  501    0  0.00000000000E+00  0.00000000000E+00  0.79944458495E+03  0.79944458495E+03  0.00000000000E+00 0.  1.
         -2   -1    0    0    0  501 -0.00000000000E+00 -0.00000000000E+00 -0.13110244175E+03  0.13110244175E+03  0.00000000000E+00 0. -1.
          5    1    1    2  502    0 -0.13397741310E+02 -0.22420615946E+02 -0.17482166348E+02  0.31706182864E+02  0.41800000000E+01 0. -1.
         -5    1    1    2    0  502  0.18460276818E+03 -0.28496397361E+02  0.27389176492E+01  0.18685609637E+03  0.41800000000E+01 0. -1.
        -11    1    1    2    0    0  0.68751897538E+01  0.14106254795E+02  0.27665326157E+02  0.31806051781E+02  0.00000000000E+00 0. -1.
         11    1    1    2    0    0 -0.17808021662E+03  0.36810758512E+02  0.65542006574E+03  0.68017869569E+03  0.00000000000E+00 0.  1.
</event>
<event>
 6    1  0.6597032E-006  0.1243125E+03  0.7561462E-02  0.1236148E+00
          1   -1    0    0  501    0  0.00000000000E+00  0.00000000000E+00  0.69437692273E+02  0.69437692273E+02  0.00000000000E+00 0. -1.
         -1   -1    0    0    0  501 -0.00000000000E+00 -0.00000000000E+00 -0.55715482339E+03  0.55715482339E+03  0.00000000000E+00 0.  1.
          5    1    1    2  502    0  0.67689694688E+01 -0.83801757572E+02 -0.22687673725E+03  0.24198983414E+03  0.41800000000E+01 0.  1.
         -5    1    1    2    0  502  0.66047820583E+02  0.25528758029E+02 -0.24206156879E+03  0.25224057480E+03  0.41800000000E+01 0.  1.
        -11    1    1    2    0    0 -0.18593541214E+02  0.18821126020E+02 -0.51386702820E+02  0.57797472144E+02  0.00000000000E+00 0.  1.
         11    1    1    2    0    0 -0.54223248837E+02  0.39451873524E+02  0.32607877745E+02  0.74564634580E+02  0.00000000000E+00 0. -1.
</event>
<event>
 6    1  0.6597032E-006  0.1354206E+03  0.7561462E-02  0.1219627E+00
          3   -1    0    0  501    0  0.00000000000E+00  0.00000000000E+00  0.27541884146E+02  0.27541884146E+02  0.00000000000E+00 0. -1.
         -3   -1    0    0    0  501 -0.00000000000E+00 -0.00000000000E+00 -0.14257867547E+04  0.14257867547E+04  0.00000000000E+00 0.  1.
          5    1    1    2  502    0 -0.18752872743E+02  0.93976307017E+00 -0.58253626213E+03  0.58285377453E+03  0.41800000000E+01 0. -1.
         -5    1    1    2    0  502  0.61500654388E+02  0.10036911983E+03 -0.61138532114E+03  0.62262811855E+03  0.41800000000E+01 0. -1.
        -11    1    1    2    0    0 -0.62252218014E+02 -0.94495512525E+02 -0.13845450039E+03  0.17881383955E+03  0.00000000000E+00 0. -1.
         11    1    1    2    0    0  0.19504436368E+02 -0.68133703727E+01 -0.65868786900E+02  0.69032906222E+02  0.00000000000E+00 0.  1.
</event>
<event>
 6    1  0.6597032E-006  0.6556425E+02  0.7561462E-02  0.1375862E+00
          4   -1    0    0  501    0  0.00000000000E+00  0.00000000000E+00  0.41976756985E+03  0.41976756985E+03  0.00000000000E+00 0. -1.
         -4   -1    0    0    0  501 -0.00000000000E+00 -0.00000000000E+00 -0.29010087415E+02  0.29010087415E+02  0.00000000000E+00 0.  1.
          5    1    1    2  502    0 -0.22675498355E+02 -0.18504230459E+02  0.22100284583E+03  0.22297155656E+03  0.41800000000E+01 0.  1.
         -5    1    1    2    0  502 -0.19024303750E+01  0.25154873519E+02 -0.67331420485E+01  0.26442286303E+02  0.41800000000E+01 0.  1.
        -11    1    1    2    0    0 -0.21907566773E+02  0.13056314480E+02  0.13750217911E+02  0.28973735042E+02  0.00000000000E+00 0.  1.
         11    1    1    2    0    0  0.46485495503E+02 -0.19706957540E+02  0.16273756074E+03  0.17039007936E+03  0.00000000000E+00 0. -1.
</event>
<event>
 6    1  0.6597032E-006  0.8406452E+02  0.7561462E-02  0.1317897E+00
          3   -1    0    0  501    0  0.00000000000E+00  0.00000000000E+00  0.29662315329E+02  0.29662315329E+02  0.00000000000E+00 0. -1.
         -3   -1    0    0    0  501 -0.00000000000E+00 -0.00000000000E+00 -0.75204102481E+03  0.75204102481E+03  0.00000000000E+00 0.  1.
          5    1    1    2  502    0 -0.24026956117E+02  0.69706216493E+02 -0.28614569474E+03  0.29552171199E+03  0.41800000000E+01 0.  1.
         -5    1    1    2    0  502  0.96202336200E+00 -0.49232271632E+02 -0.35669959809E+03  0.36010667549E+03  0.41800000000E+01 0.  1.
        -11    1    1    2    0    0  0.14039853766E+02 -0.29141845400E+02 -0.98318805065E+02  0.10350339162E+03  0.00000000000E+00 0.  1.
         11    1    1    2    0    0  0.90250789886E+01  0.86679005382E+01  0.18785388405E+02  0.22571561046E+02  0.00000000000E+00 0. -1.
</event>
<event>
 6    1  0.6597032E-006  0.2559365E+03  0.7561462E-02  0.1109610E+00
         -1   -1    0    0    0  501 -0.00000000000E+00  0.00000000000E+00  0.86914121637E+02  0.86914121637E+02  0.00000000000E+00 0.  1.
          1   -1    0    0  501    0  0.00000000000E+00 -0.00000000000E+00 -0.10152141950E+04  0.10152141950E+04  0.00000000000E+00 0. -1.
          5    1    1    2  502    0  0.13351965192E+03  0.92520864013E+02 -0.12059686743E+03  0.20235781319E+03  0.41800000000E+01 0. -1.
         -5    1    1    2    0  502 -0.35073932775E+02 -0.18240923992E+03 -0.21273436874E+03  0.28244768650E+03  0.41800000000E+01 0.  1.
        -11    1    1    2    0    0 -0.11356663736E+03  0.56325695782E+02 -0.48803335373E+03  0.50422863810E+03  0.00000000000E+00 0.  1.
         11    1    1    2    0    0  0.15120918217E+02  0.33562680121E+02 -0.10693548349E+03  0.11309417887E+03  0.00000000000E+00 0. -1.
</event>
<event>
 6    1  0.6597032E-006  0.1860507E+03  0.7561462E-02  0.1162072E+00
         -1   -1    0    0    0  501 -0.00000000000E+00  0.00000000000E+00  0.46450451759E+03  0.46450451759E+03  0.00000000000E+00 0.  1.
          1   -1    0    0  501    0  0.00000000000E+00 -0.00000000000E+00 -0.97359550885E+02  0.97359550885E+02  0.00000000000E+00 0. -1.
          5    1    1    2  502    0 -0.11412736238E+03 -0.12468217575E+03  0.20728401862E+03  0.26749735806E+03  0.41800000000E+01 0.  1.
         -5    1    1    2    0  502 -0.16548985113E+02  0.10989501974E+02 -0.10600908832E+02  0.22901740763E+02  0.41800000000E+01 0.  1.
        -11    1    1    2    0    0  0.12177680678E+03  0.75004283758E+02  0.61844827116E+02  0.15582046044E+03  0.00000000000E+00 0. -1.
         11    1    1    2    0    0  0.88995407070E+01  0.38688390021E+02  0.10861702981E+03  0.11564450922E+03  0.00000000000E+00 0.  1.
</event>
<event>
 6    1  0.6597032E-006  0.6308230E+02  0.7561462E-02  0.1385334E+00
         -1   -1    0    0    0  501 -0.00000000000E+00  0.00000000000E+00  0.79628664173E+02  0.79628664173E+02  0.00000000000E+00 0.  1.
          1   -1    0    0  501    0  0.00000000000E+00 -0.00000000000E+00 -0.21779823413E+03  0.21779823413E+03  0.00000000000E+00 0. -1.
          5    1    1    2  502    0 -0.18592128399E+01  0.22959211607E+01 -0.61070810555E+02  0.61284942916E+02  0.41800000000E+01 0. -1.
         -5    1    1    2    0  502 -0.24124120207E+02  0.83204478723E+01  0.61718031720E+02  0.66916297476E+02  0.41800000000E+01 0. -1.
        -11    1    1    2    0    0 -0.56483221349E+01 -0.46792579583E+02 -0.84065230364E+02  0.96376407918E+02  0.00000000000E+00 0.  1.
         11    1    1    2    0    0  0.31631655182E+02  0.36176210550E+02 -0.54751560762E+02  0.72849249997E+02  0.00000000000E+00 0. -1.
</event>
<event>
 6    1  0.6597032E-006  0.8786032E+02  0.7561462E-02  0.1308118E+00
         -1   -1    0    0    0  501 -0.00000000000E+00  0.00000000000E+00  0.65937548365E+03  0.65937548365E+03  0.00000000000E+00 0. -1.
          1   -1    0    0  501    0  0.00000000000E+00 -0.00000000000E+00 -0.23995378451E+02  0.23995378451E+02  0.00000000000E+00 0.  1.
          5    1    1    2  502    0  0.18254877297E+02  0.22616901465E+01  0.38072881101E+03  0.38119582333E+03  0.41800000000E+01 0.  1.
         -5    1    1    2    0  502  0.42734637604E+01  0.48363460536E+02  0.46319146147E+02  0.67232600034E+02  0.41800000000E+01 0.  1.
        -11    1    1    2    0    0  0.15266578052E+01  0.26905665713E+02  0.61966458991E+02  0.67572831607E+02  0.00000000000E+00 0. -1.
         11    1    1    2    0    0 -0.24054998862E+02 -0.77530816396E+02  0.14636568905E+03  0.16736960714E+03  0.00000000000E+00 0.  1.
</event>
<event>
 6    1  0.6597032E-006  0.9298241E+02  0.7561462E-02  0.1295786E+00
          2   -1    0    0  501    0  0.00000000000E+00  0.00000000000E+00  0.15494152073E+03  0.15494152073E+03  0.00000000000E+00 0. -1.
         -2   -1    0    0    0  501 -0.00000000000E+00 -0.00000000000E+00 -0.10976516460E+03  0.10976516460E+03  0.00000000000E+00 0.  1.
          5    1    1    2  502    0 -0.67935355603E+01 -0.37435010522E+02  0.40963636928E+02  0.56062679999E+02  0.41800000000E+01 0. -1.
         -5    1    1    2    0  502 -0.31284716715E+02  0.47005858977E+02 -0.66214374105E+02  0.87121180067E+02  0.41800000000E+01 0.  1.
        -11    1    1    2    0    0 -0.26199204996E+02 -0.46072200256E+01  0.77256632371E+00  0.26612434641E+02  0.00000000000E+00 0.  1.
         11    1    1    2    0    0  0.64277457272E+02 -0.49636284290E+01  0.69654526977E+02  0.94910390627E+02  0.00000000000E+00 0. -1.
</event>
<event>
 6    1  0.6597032E-006  0.9849093E+02  0.7561462E-02  0.1283502E+00
         -2   -1    0    0    0  501 -0.00000000000E+00  0.00000000000E+00  0.76218409148E+02  0.76218409148E+02  0.00000000000E+00 0.  1.
          2   -1    0    0  501    0  0.00000000000E+00 -0.00000000000E+00 -0.23159530795E+03  0.23159530795E+03  0.00000000000E+00 0. -1.
          5    1    1    2  502    0  0.39974143384E+02  0.55246368825E+02 -0.95664653839E+01  0.68986107787E+02  0.41800000000E+01 0.  1.
         -5    1    1    2    0  502  0.53102082530E+01 -0.64547656448E+02 -0.30957597658E+01  0.64974259465E+02  0.41800000000E+01 0.  1.
        -11    1    1    2    0    0 -0.34503672649E+02  0.26471003139E+02 -0.14685711006E+03  0.15316079201E+03  0.00000000000E+00 0. -1.
         11    1    1    2    0    0 -0.10780678988E+02 -0.17169715516E+02  0.41424364106E+01  0.20692557835E+02  0.00000000000E+00 0.  1.
</event>
<event>
 6    1  0.6597032E-006  0.1333273E+03  0.7561462E-02  0.1222601E+00
         -1   -1    0    0    0  501 -0.00000000000E+00  0.00000000000E+00  0.70739555483E+02  0.70739555483E+02  0.00000000000E+00 0.  1.
          1   -1    0    0  501    0  0.00000000000E+00 -0.00000000000E+00 -0.35086380892E+03  0.35086380892E+03  0.00000000000E+00 0. -1.
          5    1    1    2  502    0 -0.83276863393E+02 -0.46780141591E+02 -0.59029270444E+02  0.11236255957E+03  0.41800000000E+01 0.  1.
         -5    1    1    2    0  502  0.40611444475E+02 -0.30639909828E+02  0.19952002869E+01  0.51083722660E+02  0.41800000000E+01 0.  1.
        -11    1    1    2    0    0  0.55672922090E+02  0.17019201238E+02 -0.59296343017E+02  0.83097435340E+02  0.00000000000E+00 0.  1.
         11    1    1    2    0    0 -0.13007503172E+02  0.60400850182E+02 -0.16379384027E+03  0.17505964684E+03  0.00000000000E+00 0. -1.
</event>
<event>
 6    1  0.6597032E-006  0.1128373E+03  0.7561462E-02  0.1255404E+00
         -2   -1    0    0    0  501 -0.00000000000E+00  0.00000000000E+00  0.44032060605E+02  0.44032060605E+02  0.00000000000E+00 0.  1.
          2   -1    0    0  501    0  0.00000000000E+00 -0.00000000000E+00 -0.45489496210E+03  0.45489496210E+03  0.00000000000E+00 0. -1.
          5    1    1    2  502    0 -0.79617009683E+01 -0.15634865546E+02  0.15366386508E+02  0.23694639420E+02  0.41800000000E+01 0. -1.
         -5    1    1    2    0  502  0.34113250613E+02  0.80619512595E+02 -0.14588324889E+03  0.17018406031E+03  0.41800000000E+01 0. -1.
        -11    1    1    2    0    0 -0.59191341855E+02 -0.16718253295E+02 -0.15357517225E+03  0.16543412125E+03  0.00000000000E+00 0.  1.
         11    1    1    2    0    0  0.33039792211E+02 -0.48266393754E+02 -0.12677086687E+03  0.13961420172E+03  0.00000000000E+00 0. -1.
</event>
<event>
 6    1  0.6597032E-006  0.1282344E+03  0.7561462E-02  0.1230099E+00
          1   -1    0    0  501    0  0.00000000000E+00  0.00000000000E+00  0.52600403660E+03  0.52600403660E+03  0.00000000000E+00 0. -1.
         -1   -1    0    0    0  501 -0.00000000000E+00 -0.00000000000E+00 -0.34540138042E+02  0.34540138042E+02  0.00000000000E+00 0.  1.
          5    1    1    2  502    0  0.48221711438E+02 -0.32935078712E+02  0.66143006234E+02  0.88331322516E+02  0.41800000000E+01 0.  1.
         -5    1    1    2    0  502  0.17311047756E+02  0.76941932103E+02  0.22137511282E+03  0.23504073321E+03  0.41800000000E+01 0.  1.
        -11    1    1    2    0    0 -0.83723254979E+02 -0.52552220960E+02  0.15037477289E+03  0.17995524909E+03  0.00000000000E+00 0.  1.
         11    1    1    2    0    0  0.18190495785E+02  0.85453675693E+01  0.53571006610E+02  0.57216869829E+02  0.00000000000E+00 0. -1.
</event>
<event>
 6    1  0.6597032E-006  0.3259421E+03  0.7561462E-02  0.1072947E+00
          2   -1    0    0  501    0  0.00000000000E+00  0.00000000000E+00  0.46116767910E+03  0.46116767910E+03  0.00000000000E+00 0. -1.
         -2   -1    0    0    0  501 -0.00000000000E+00 -0.00000000000E+00 -0.25426207733E+03  0.25426207733E+03  0.00000000000E+00 0.  1.
          5    1    1    2  502    0  0.18580690345E+03  0.46388554928E+02 -0.14265776943E+02  0.19208614783E+03  0.41800000000E+01 0.  1.
         -5    1    1    2    0  502  0.92263137501E+02  0.10803737983E+03  0.53815860935E+02  0.15198085823E+03  0.41800000000E+01 0.  1.
        -11    1    1    2    0    0 -0.21909679704E+03 -0.11751290382E+03  0.83202705441E+02  0.26217432984E+03  0.00000000000E+00 0.  1.
         11    1    1    2    0    0 -0.58973243914E+02 -0.36913030934E+02  0.84152812335E+02  0.10918842051E+03  0.00000000000E+00 0. -1.
</event>
<event>
 6    1  0.6597032E-006  0.1052690E+03  0.7561462E-02  0.1269591E+00
          2   -1    0    0  501    0  0.00000000000E+00  0.00000000000E+00  0.22362756844E+02  0.22362756844E+02  0.00000000000E+00 0. -1.
         -2   -1    0    0    0  501 -0.00000000000E+00 -0.00000000000E+00 -0.54631740641E+03  0.54631740641E+03  0.00000000000E+00 0.  1.
          5    1    1    2  502    0 -0.69828577756E+02 -0.25583472997E+02 -0.22026869511E+03  0.23252164374E+03  0.41800000000E+01 0. -1.
         -5    1    1    2    0  502  0.38820396412E+02  0.11896142567E+02 -0.14839331849E+03  0.15390448583E+03  0.41800000000E+01 0.  1.
        -11    1    1    2    0    0  0.11458429745E+02 -0.38150637711E+02 -0.59765647837E+02  0.71824086707E+02  0.00000000000E+00 0. -1.
         11    1    1    2    0    0  0.19549751599E+02  0.51837968141E+02 -0.95526988131E+02  0.11042994698E+03  0.00000000000E+00 0.  1.
</event>
<event>
 6    1  0.6597032E-006  0.1263789E+03  0.7561462E-02  0.1232930E+00
         -1   -1    0    0    0  501 -0.00000000000E+00  0.00000000000E+00  0.83995710907E+02  0.83995710907E+02  0.00000000000E+00 0.  1.
          1   -1    0    0  501    0  0.00000000000E+00 -0.00000000000E+00 -0.38943741144E+03  0.38943741144E+03  0.00000000000E+00 0. -1.
          5    1    1    2  502    0  0.10197187343E+03  0.50760996390E+02  0.16237406914E+02  0.11513499689E+03  0.41800000000E+01 0. -1.
         -5    1    1    2    0  502 -0.10435302655E+02  0.69080802820E+01 -0.52598100300E+02  0.54227757375E+02  0.41800000000E+01 0. -1.
        -11    1    1    2    0    0 -0.52134017323E+02  0.41193445584E+01 -0.18635348083E+03  0.19355243367E+03  0.00000000000E+00 0.  1.
         11    1    1    2    0    0 -0.39402553452E+02 -0.61788421230E+02 -0.82727526317E+02  0.11051793441E+03  0.00000000000E+00 0. -1.
</event>
<event>
 6    1  0.6597032E-006  0.1484453E+03  0.7561462E-02  0.1202396E+00
         -3   -1    0    0    0  501 -0.00000000000E+00  0.00000000000E+00  0.49169284119E+03  0.49169284119E+03  0.00000000000E+00 0.  1.
          3   -1    0    0  501    0  0.00000000000E+00 -0.00000000000E+00 -0.19705273860E+03  0.19705273860E+03  0.00000000000E+00 0. -1.
          5    1    1    2  502    0 -0.98378657203E+02 -0.11370809543E+02  0.13636823132E+03  0.16858654281E+03  0.41800000000E+01 0.  1.
         -5    1    1    2    0  502 -0.34104565613E+02  0.41579397556E+02  0.30715518992E+03  0.31185533632E+03  0.41800000000E+01 0.  1.
        -11    1    1    2    0    0  0.84986453117E+02  0.43393514646E+01 -0.10403846588E+03  0.13440807107E+03  0.00000000000E+00 0. -1.
         11    1    1    2    0    0  0.47496769699E+02 -0.34547939478E+02 -0.44844852762E+02  0.73895629595E+02  0.00000000000E+00 0.  1.
</event>
<event>
 6    1  0.6597032E-006  0.9291675E+02  0.7561462E-02  0.1295938E+00
         -2   -1    0    0    0  501 -0.00000000000E+00  0.00000000000E+00  0.48169714156E+02  0.48169714156E+02  0.00000000000E+00 0.  1.
          2   -1    0    0  501    0  0.00000000000E+00 -0.00000000000E+00 -0.26806470701E+03  0.26806470701E+03  0.00000000000E+00 0. -1.
          5    1    1    2  502    0 -0.46895255422E+02 -0.49944742107E+01 -0.67116215227E+02  0.82135062550E+02  0.41800000000E+01 0. -1.
         -5    1    1    2    0  502  0.77849690856E+02 -0.12872962818E+02 -0.54790577101E+02  0.96154912912E+02  0.41800000000E+01 0. -1.
        -11    1    1    2    0    0 -0.34414255226E+02 -0.63603785249E+01 -0.10644526033E+03  0.11205083143E+03  0.00000000000E+00 0. -1.
         11    1    1    2    0    0  0.34598197933E+01  0.24227815554E+02  0.84570598047E+01  0.25893614272E+02  0.00000000000E+00 0.  1.
</event>
<event>
 6    1  0.6597032E-006  0.1147583E+03  0.7561462E-02  0.1252004E+00
          1   -1    0    0  501    0  0.00000000000E+00  0.00000000000E+00  0.54248547578E+02  0.54248547578E+02  0.00000000000E+00 0. -1.
         -1   -1    0    0    0  501 -0.00000000000E+00 -0.00000000000E+00 -0.55031007174E+03  0.55031007174E+03  0.00000000000E+00 0.  1.
          5    1    1    2  502    0 -0.33217115583E+02  0.93546579574E+02 -0.13705991498E+03  0.16928447068E+03  0.41800000000E+01 0. -1.
         -5    1    1    2    0  502  0.14529760129E+02  0.13939963915E+02 -0.26348010256E+03  0.26428142834E+03  0.41800000000E+01 0. -1.
        -11    1    1    2    0    0  0.63548799374E+01 -0.66238565826E+02 -0.35786727747E+00  0.66543671154E+02  0.00000000000E+00 0. -1.
         11    1    1    2    0    0  0.12332475516E+02 -0.41247977664E+02 -0.95163639344E+02  0.10444904914E+03  0.00000000000E+00 0.  1.
</event>
<event>
 6    1  0.6597032E-006  0.1108503E+03  0.7561462E-02  0.1259003E+00
         -1   -1    0    0    0  501 -0.00000000000E+00  0.00000000000E+00  0.24445736188E+03  0.24445736188E+03  0.00000000000E+00 0.  1.
          1   -1    0    0  501    0  0.00000000000E+00 -0.00000000000E+00 -0.78708530637E+02  0.78708530637E+02  0.00000000000E+00 0. -1.
          5    1    1    2  502    0  0.78638150107E+02  0.21890824483E+02  0.15467817626E+03  0.17494564145E+03  0.41800000000E+01 0. -1.
         -5    1    1    2    0  502 -0.31635793613E+02  0.17520557247E+02  0.46434870475E+01  0.36699151703E+02  0.41800000000E+01 0. -1.
        -11    1    1    2    0    0 -0.50181354825E+02 -0.62557802687E+02 -0.12863586113E+02  0.81222650146E+02  0.00000000000E+00 0. -1.
         11    1    1    2    0    0  0.31789983311E+01  0.23146420958E+02  0.19290754043E+02  0.30298449219E+02  0.00000000000E+00 0.  1.
</event>
<event>
 6    1  0.6597032E-006  0.1109977E+03  0.7561462E-02  0.1258733E+00
         -2   -1    0    0    0  501 -0.00000000000E+00  0.00000000000E+00  0.29703453949E+03  0.29703453949E+03  0.00000000000E+00 0.  1.
          2   -1    0    0  501    0  0.00000000000E+00 -0.00000000000E+00 -0.59319472134E+02  0.59319472134E+02  0.00000000000E+00 0. -1.
          5    1    1    2  502    0 -0.22708292426E+02  0.77251698381E+02  0.11067500529E+03  0.13693034960E+03  0.41800000000E+01 0. -1.
         -5    1    1    2    0  502 -0.45594023714E+02 -0.41841114786E+02  0.41977587498E+02  0.74893819085E+02  0.41800000000E+01 0. -1.
        -11    1    1    2    0    0  0.48467349031E+02 -0.34490287476E+02  0.10223217315E+03  0.11827967314E+03  0.00000000000E+00 0.  1.
         11    1    1    2    0    0  0.19834967109E+02 -0.92029611901E+00 -0.17169698574E+02  0.26250169795E+02  0.00000000000E+00 0. -1.
</event>
<event>
 6    1  0.6597032E-006  0.1150860E+03  0.7561462E-02  0.1251431E+00
          1   -1    0    0  501    0  0.00000000000E+00  0.00000000000E+00  0.11930108865E+03  0.11930108865E+03  0.00000000000E+00 0. -1.
         -1   -1    0    0    0  501 -0.00000000000E+00 -0.00000000000E+00 -0.12145238975E+03  0.12145238975E+03  0.00000000000E+00 0.  1.
          5    1    1    2  502    0 -0.82105085138E+02 -0.14024830205E+02 -0.29774221611E+02  0.88554602028E+02  0.41800000000E+01 0. -1.
         -5    1    1    2    0  502  0.46281839841E+02 -0.27045431230E-01 -0.41905576845E+01  0.46658789142E+02  0.41800000000E+01 0. -1.
        -11    1    1    2    0    0  0.34123677095E+02 -0.36358637177E+02  0.20075369463E+02  0.53753104979E+02  0.00000000000E+00 0.  1.
         11    1    1    2    0    0  0.16995682022E+01  0.50410512813E+02  0.11738108727E+02  0.51786982250E+02  0.00000000000E+00 0. -1.
</event>
<event>
 6    1  0.6597032E-006  0.2388646E+03  0.7561462E-02  0.1120551E+00
          1   -1    0    0  501    0  0.00000000000E+00  0.00000000000E+00  0.99510578300E+03  0.99510578300E+03  0.00000000000E+00 0. -1.
         -1   -1    0    0    0  501 -0.00000000000E+00 -0.00000000000E+00 -0.66087225846E+02  0.66087225846E+02  0.00000000000E+00 0.  1.
          5    1    1    2  502    0 -0.11782219298E+03 -0.15965231758E+02  0.10345274908E+03  0.15766071634E+03  0.41800000000E+01 0. -1.
         -5    1    1    2    0  502 -0.99607753609E+02  0.73572394793E+02  0.25629804724E+03  0.28467659418E+03  0.41800000000E+01 0. -1.
        -11    1    1    2    0    0  0.21404020540E+03 -0.41035223593E+02  0.46890335776E+03  0.51707587259E+03  0.00000000000E+00 0.  1.
         11    1    1    2    0    0  0.33897411926E+01 -0.16571939442E+02  0.10036440308E+03  0.10177982574E+03  0.00000000000E+00 0. -1.
</event>
<event>
 6    1  0.6597032E-006  0.1091041E+03  0.7561462E-02  0.1262238E+00
          1   -1    0    0  501    0  0.00000000000E+00  0.00000000000E+00  0.45536275540E+02  0.45536275540E+02  0.00000000000E+00 0. -1.
         -1   -1    0    0    0  501 -0.00000000000E+00 -0.00000000000E+00 -0.45133193671E+03  0.45133193671E+03  0.00000000000E+00 0.  1.
          5    1    1    2  502    0  0.41554546341E+02  0.95457610267E+01 -0.83458975616E+02  0.93812445262E+02  0.41800000000E+01 0.  1.
         -5    1    1    2    0  502 -0.91479470848E+02  0.44442000611E+02 -0.24098793985E+03  0.26160321970E+03  0.41800000000E+01 0.  1.
        -11    1    1    2    0    0  0.12926902560E+02 -0.12367845552E+02  0.19367686778E+02  0.26366184868E+02  0.00000000000E+00 0. -1.
         11    1    1    2    0    0  0.36998021948E+02 -0.41619916085E+02 -0.10071643249E+03  0.11508636243E+03  0.00000000000E+00 0.  1.
</event>
<event>
 6    1  0.6597032E-006  0.1223399E+03  0.7561462E-02  0.1239286E+00
          2   -1    0    0  501    0  0.00000000000E+00  0.00000000000E+00  0.82407645898E+02  0.82407645898E+02  0.00000000000E+00 0. -1.
         -2   -1    0    0    0  501 -0.00000000000E+00 -0.00000000000E+00 -0.29934054552E+03  0.29934054552E+03  0.00000000000E+00 0.  1.
          5    1    1    2  502    0 -0.35774503294E+02  0.81422779829E+02 -0.46547509581E+02  0.10046704539E+03  0.41800000000E+01 0.  1.
         -5    1    1    2    0  502  0.26264108567E+02  0.14613970630E+02 -0.14350722588E+03  0.14668049569E+03  0.41800000000E+01 0.  1.
        -11    1    1    2    0    0 -0.35002190828E+02 -0.32798355500E+02 -0.31074542800E+02  0.57153413690E+02  0.00000000000E+00 0.  1.
         11    1    1    2    0    0  0.44512585555E+02 -0.63238394960E+02  0.41963786434E+01  0.77447236643E+02  0.00000000000E+00 0. -1.
</event>
<event>
 6    1  0.6597032E-006  0.7617933E+02  0.7561462E-02  0.1340257E+00
         -2   -1    0    0    0  501 -0.00000000000E+00  0.00000000000E+00  0.22101491930E+03  0.22101491930E+03  0.00000000000E+00 0.  1.
          2   -1    0    0  501    0  0.00000000000E+00 -0.00000000000E+00 -0.59353902445E+02  0.59353902445E+02  0.00000000000E+00 0. -1.
          5    1    1    2  502    0 -0.55468258833E+01  0.26674880503E+02 -0.20338301605E+02  0.34255443938E+02  0.41800000000E+01 0.  1.
         -5    1    1    2    0  502  0.27862625815E+02 -0.53632007520E+01  0.13565667149E+03  0.13865530917E+03  0.41800000000E+01 0.  1.
        -11    1    1    2    0    0 -0.35446579195E+02  0.27944897663E+02  0.28821711043E+02  0.53554349118E+02  0.00000000000E+00 0. -1.
         11    1    1    2    0    0  0.13130779264E+02 -0.49256577414E+02  0.17520935925E+02  0.53903719522E+02  0.00000000000E+00 0.  1.
</event>
<event>
 6    1  0.6597032E-006  0.1226425E+03  0.7561462E-02  0.1238800E+00
          2   -1    0    0  501    0  0.00000000000E+00  0.00000000000E+00  0.18581340223E+03  0.18581340223E+03  0.00000000000E+00 0. -1.
         -2   -1    0    0    0  501 -0.00000000000E+00 -0.00000000000E+00 -0.87493207224E+02  0.87493207224E+02  0.00000000000E+00 0.  1.
          5    1    1    2  502    0 -0.34178008460E+02 -0.12682027489E+02 -0.64034565285E+01  0.37248446129E+02  0.41800000000E+01 0. -1.
         -5    1    1    2    0  502  0.70043967212E+02  0.65624741124E+02  0.59099687115E+02  0.11279631824E+03  0.41800000000E+01 0. -1.
        -11    1    1    2    0    0  0.27726531730E+02  0.29106244709E+01  0.21637851157E+02  0.35290634725E+02  0.00000000000E+00 0. -1.
         11    1    1    2    0    0 -0.63592490482E+02 -0.55853338107E+02  0.23986113260E+02  0.87971210363E+02  0.00000000000E+00 0.  1.
</event>
<event>
 6    1  0.6597032E-006  0.1893782E+03  0.7561462E-02  0.1159023E+00
          2   -1    0    0  501    0  0.00000000000E+00  0.00000000000E+00  0.16375088257E+03  0.16375088257E+03  0.00000000000E+00 0. -1.
         -2   -1    0    0    0  501 -0.00000000000E+00 -0.00000000000E+00 -0.22635263492E+03  0.22635263492E+03  0.00000000000E+00 0.  1.
          5    1    1    2  502    0  0.67725174950E+02  0.13134803238E+03 -0.26886150904E+02  0.15026424207E+03  0.41800000000E+01 0. -1.
         -5    1    1    2    0  502 -0.42340749363E+02 -0.30577045091E+01 -0.26775377107E+02  0.50363497026E+02  0.41800000000E+01 0.  1.
        -11    1    1    2    0    0  0.51607450378E+02 -0.86323958275E+02  0.49502620597E+01  0.10069587778E+03  0.00000000000E+00 0.  1.
         11    1    1    2    0    0 -0.76991875965E+02 -0.41966369600E+02 -0.13890486399E+02  0.88779900622E+02  0.00000000000E+00 0. -1.
</event>
<event>
 6    1  0.6597032E-006  0.9738386E+02  0.7561462E-02  0.1285896E+00
          2   -1    0    0  501    0  0.00000000000E+00  0.00000000000E+00  0.16923373007E+03  0.16923373007E+03  0.00000000000E+00 0. -1.
         -2   -1    0    0    0  501 -0.00000000000E+00 -0.00000000000E+00 -0.10367448994E+03  0.10367448994E+03  0.00000000000E+00 0.  1.
          5    1    1    2  502    0 -0.31324194729E+01  0.81496816171E+02  0.42079436031E+02  0.91867809566E+02  0.41800000000E+01 0. -1.
         -5    1    1    2    0  502 -0.90327260460E+01 -0.40178749386E+02 -0.43125678137E+02  0.59776404683E+02  0.41800000000E+01 0.  1.
        -11    1    1    2    0    0 -0.12588547355E+02 -0.44961111390E+02 -0.35061994136E+01  0.46821645595E+02  0.00000000000E+00 0. -1.
         11    1    1    2    0    0  0.24753692873E+02  0.36430446045E+01  0.70111681647E+02  0.74442360173E+02  0.00000000000E+00 0.  1.
</event>
<event>
 6    1  0.6597032E-006  0.1178095E+03  0.7561462E-02  0.1246755E+00
          1   -1    0    0  501    0  0.00000000000E+00  0.00000000000E+00  0.51389487821E+03  0.51389487821E+03  0.00000000000E+00 0. -1.
         -1   -1    0    0    0  501 -0.00000000000E+00 -0.00000000000E+00 -0.35662138887E+02  0.35662138887E+02  0.00000000000E+00 0.  1.
          5    1    1    2  502    0  0.12267327414E+02 -0.36893472780E+02  0.33723915999E+02  0.51637104547E+02  0.41800000000E+01 0. -1.
         -5    1    1    2    0  502  0.38867540724E+02  0.96470285815E+02  0.18514522515E+03  0.21239921978E+03  0.41800000000E+01 0. -1.
        -11    1    1    2    0    0 -0.32954182934E+02 -0.31057870275E+01  0.19578123684E+03  0.19855960512E+03  0.00000000000E+00 0. -1.
         11    1    1    2    0    0 -0.18180685204E+02 -0.56471026007E+02  0.63582361332E+02  0.86961087651E+02  0.00000000000E+00 0.  1.
</event>
<event>
 6    1  0.6597032E-006  0.9849913E+02  0.7561462E-02  0.1283484E+00
          1   -1    0    0  501    0  0.00000000000E+00  0.00000000000E+00  0.19839925811E+02  0.19839925811E+02  0.00000000000E+00 0. -1.
         -1   -1    0    0    0  501 -0.00000000000E+00 -0.00000000000E+00 -0.61470541002E+03  0.61470541002E+03  0.00000000000E+00 0.  1.
          5    1    1    2  502    0  0.50707182041E+02 -0.17296217036E+02 -0.19030293495E+03  0.19774492885E+03  0.41800000000E+01 0.  1.
         -5    1    1    2    0  502 -0.70276174068E+02  0.16231660352E+02 -0.20700582227E+03  0.21925120363E+03  0.41800000000E+01 0.  1.
        -11    1    1    2    0    0  0.43509577315E+02  0.11334628869E+02 -0.48111127178E+02  0.65850115323E+02  0.00000000000E+00 0. -1.
         11    1    1    2    0    0 -0.23940585288E+02 -0.10270072185E+02 -0.14944559982E+03  0.15169908804E+03  0.00000000000E+00 0.  1.
</event>
<event>
 6    1  0.6597032E-006  0.9343882E+02  0.7561462E-02  0.1294731E+00
          2   -1    0    0  501    0  0.00000000000E+00  0.00000000000E+00  0.23873890523E+03  0.23873890523E+03  0.00000000000E+00 0. -1.
         -2   -1    0    0    0  501 -0.00000000000E+00 -0.00000000000E+00 -0.70812891531E+02  0.70812891531E+02  0.00000000000E+00 0.  1.
          5    1    1    2  502    0  0.33575717306E+02 -0.35384199283E+02  0.89021281457E+01  0.49760331962E+02  0.41800000000E+01 0.  1.
         -5    1    1    2    0  502 -0.45316787122E+02  0.65912432487E+02  0.44557764782E+01  0.80220859478E+02  0.41800000000E+01 0.  1.
        -11    1    1    2    0    0  0.14757528650E+02  0.95846820469E+01 -0.21907750395E+01  0.17732745898E+02  0.00000000000E+00 0.  1.
         11    1    1    2    0    0 -0.30164588332E+01 -0.40112915251E+02  0.15675888411E+03  0.16183785942E+03  0.00000000000E+00 0. -1.
</event>
<event>
 6    1  0.6597032E-006  0.9091667E+02  0.7561462E-02  0.1300647E+00
         -1   -1    0    0    0  501 -0.00000000000E+00  0.00000000000E+00  0.89168036721E+03  0.89168036721E+03  0.00000000000E+00 0.  1.
          1   -1    0    0  501    0  0.00000000000E+00 -0.00000000000E+00 -0.16587899538E+02  0.16587899538E+02  0.00000000000E+00 0. -1.
          5    1    1    2  502    0  0.11178882141E+02  0.20265997654E+02  0.39930578134E+03  0.39999782185E+03  0.41800000000E+01 0. -1.
         -5    1    1    2    0  502 -0.43022525334E+02 -0.54095923370E+02  0.12722514837E+03  0.14484825643E+03  0.41800000000E+01 0.  1.
        -11    1    1    2    0    0  0.34706637850E+01  0.54092940232E+02  0.29192170001E+03  0.29691138514E+03  0.00000000000E+00 0.  1.
         11    1    1    2    0    0  0.28372979408E+02 -0.20263014516E+02  0.56639837950E+02  0.66510803339E+02  0.00000000000E+00 0. -1.
</event>
<event>
 6    1  0.6597032E-006  0.1046016E+03  0.7561462E-02  0.1270907E+00
         -1   -1    0    0    0  501 -0.00000000000E+00  0.00000000000E+00  0.10982693282E+03  0.10982693282E+03  0.00000000000E+00 0.  1.
          1   -1    0    0  501    0  0.00000000000E+00 -0.00000000000E+00 -0.11263390102E+03  0.11263390102E+03  0.00000000000E+00 0. -1.
          5    1    1    2  502    0 -0.65388489292E+02  0.28356817771E+02 -0.40799764693E+01  0.71511413452E+02  0.41800000000E+01 0. -1.
         -5    1    1    2    0  502  0.52363864393E+02 -0.11990341776E+02  0.14250697950E+02  0.55734167098E+02  0.41800000000E+01 0. -1.
        -11    1    1    2    0    0 -0.26854388348E+02  0.17124795965E+02  0.15974475511E+02  0.35631456302E+02  0.00000000000E+00 0.  1.
         11    1    1    2    0    0  0.39879013247E+02 -0.33491271959E+02 -0.28952165184E+02  0.59583796990E+02  0.00000000000E+00 0. -1.
</event>
<event>
 6    1  0.6597032E-006  0.8531317E+02  0.7561462E-02  0.1314616E+00
          4   -1    0    0  501    0  0.00000000000E+00  0.00000000000E+00  0.69002085741E+02  0.69002085741E+02  0.00000000000E+00 0. -1.
         -4   -1    0    0    0  501 -0.00000000000E+00 -0.00000000000E+00 -0.22532847479E+03  0.22532847479E+03  0.00000000000E+00 0.  1.
          5    1    1    2  502    0  0.30203338651E+02  0.20238933207E+02 -0.12697725156E+03  0.13214594544E+03  0.41800000000E+01 0. -1.
         -5    1    1    2    0  502  0.72485156650E+01  0.28206569652E+02  0.26494377428E+02  0.39592625402E+02  0.41800000000E+01 0. -1.
        -11    1    1    2    0    0 -0.39056296343E+02 -0.71513876306E+02 -0.56995830059E+02  0.99439194649E+02  0.00000000000E+00 0.  1.
         11    1    1    2    0    0  0.16044420268E+01  0.23068373447E+02  0.11523151461E+01  0.23152795034E+02  0.00000000000E+00 0. -1.
</event>
<event>
 6    1  0.6597032E-006  0.9455585E+02  0.7561462E-02  0.1292180E+00
         -1   -1    0    0    0  501 -0.00000000000E+00  0.00000000000E+00  0.20332093694E+03  0.20332093694E+03  0.00000000000E+00 0.  1.
          1   -1    0    0  501    0  0.00000000000E+00 -0.00000000000E+00 -0.64172759796E+02  0.64172759796E+02  0.00000000000E+00 0. -1.
          5    1    1    2  502    0 -0.82771229982E+02  0.14382805256E+02  0.68978328960E+02  0.10878154194E+03  0.41800000000E+01 0. -1.
         -5    1    1    2    0  502  0.44589929984E+02 -0.70998020540E+01  0.19926649817E+02  0.49529918414E+02  0.41800000000E+01 0. -1.
        -11    1    1    2    0    0 -0.84408517792E+01  0.69190240684E+01 -0.20530122329E+02  0.23250952576E+02  0.00000000000E+00 0. -1.
         11    1    1    2    0    0  0.46622151777E+02 -0.14202027270E+02  0.70773320694E+02  0.85931283808E+02  0.00000000000E+00 0.  1.
</event>
<event>
 6    1  0.6597032E-006  0.9073998E+02  0.7561462E-02  0.1301070E+00
         -2   -1    0    0    0  501 -0.00000000000E+00  0.00000000000E+00  0.72640907910E+02  0.72640907910E+02  0.00000000000E+00 0. -1.
          2   -1    0    0  501    0  0.00000000000E+00 -0.00000000000E+00 -0.24628305715E+03  0.24628305715E+03  0.00000000000E+00 0.  1.
          5    1    1    2  502    0 -0.25614031356E+02  0.22707486041E+02  0.33242196713E+02  0.47898064334E+02  0.41800000000E+01 0. -1.
         -5    1    1    2    0  502 -0.33821512294E+02 -0.52094090733E+02 -0.79645041160E+02  0.10108656669E+03  0.41800000000E+01 0. -1.
        -11    1    1    2    0    0  0.27872415419E+02  0.42287453330E+02 -0.12602350451E+03  0.13581982160E+03  0.00000000000E+00 0.  1.
         11    1    1    2    0    0  0.31563128231E+02 -0.12900848639E+02 -0.12158002907E+01  0.34119512447E+02  0.00000000000E+00 0. -1.
</event>
<event>
 6    1  0.6597032E-006  0.1635112E+03  0.7561462E-02  0.1184789E+00
         -2   -1    0    0    0  501 -0.00000000000E+00  0.00000000000E+00  0.38995917574E+03  0.38995917574E+03  0.00000000000E+00 0.  1.
          2   -1    0    0  501    0  0.00000000000E+00 -0.00000000000E+00 -0.93553082140E+02  0.93553082140E+02  0.00000000000E+00 0. -1.
          5    1    1    2  502    0  0.18702184546E+02  0.49074815246E+01  0.78042180740E+02  0.80510306523E+02  0.41800000000E+01 0.  1.
         -5    1    1    2    0  502 -0.14434712647E+03  0.61811837455E+02  0.16779607280E+03  0.22984732023E+03  0.41800000000E+01 0.  1.
        -11    1    1    2    0    0  0.27772920067E+02  0.57708318374E+01 -0.17795513622E+02  0.33486085083E+02  0.00000000000E+00 0. -1.
         11    1    1    2    0    0  0.97872021856E+02 -0.72490150817E+02  0.68363353685E+02  0.13966854605E+03  0.00000000000E+00 0.  1.
</event>
<event>
 6    1  0.6597032E-006  0.9611518E+02  0.7561462E-02  0.1288684E+00
         -1   -1    0    0    0  501 -0.00000000000E+00  0.00000000000E+00  0.22554207894E+03  0.22554207894E+03  0.00000000000E+00 0.  1.
          1   -1    0    0  501    0  0.00000000000E+00 -0.00000000000E+00 -0.61163464282E+02  0.61163464282E+02  0.00000000000E+00 0. -1.
          5    1    1    2  502    0  0.22584947916E+02 -0.46693867092E+02  0.56649617208E+02  0.76922354528E+02  0.41800000000E+01 0.  1.
         -5    1    1    2    0  502 -0.60975285257E+02  0.47111758941E+02  0.69289498910E+02  0.10371118697E+03  0.41800000000E+01 0.  1.
        -11    1    1    2    0    0  0.50589037664E+02 -0.24944437827E+01  0.61638254563E+02  0.79779367052E+02  0.00000000000E+00 0.  1.
         11    1    1    2    0    0 -0.12198700323E+02  0.20765519339E+01 -0.23198756019E+02  0.26292634679E+02  0.00000000000E+00 0. -1.
</event>
<event>
 6    1  0.6597032E-006  0.1498591E+03  0.7561462E-02  0.1200646E+00
          1   -1    0    0  501    0  0.00000000000E+00  0.00000000000E+00  0.83162289107E+03  0.83162289107E+03  0.00000000000E+00 0. -1.
         -1   -1    0    0    0  501 -0.00000000000E+00 -0.00000000000E+00 -0.47625273265E+02  0.47625273265E+02  0.00000000000E+00 0.  1.
          5    1    1    2  502    0  0.86195684761E+02 -0.95975416289E+02  0.10802086782E+03  0.16830614037E+03  0.41800000000E+01 0. -1.
         -5    1    1    2    0  502 -0.37682993958E+02 -0.39207869326E+01  0.28111098561E+02  0.47361238013E+02  0.41800000000E+01 0. -1.
        -11    1    1    2    0    0 -0.16036301155E+02  0.98743843581E+02  0.57715093659E+03  0.58575653066E+03  0.00000000000E+00 0.  1.
         11    1    1    2    0    0 -0.32476389648E+02  0.11523596412E+01  0.70714714835E+02  0.77824255291E+02  0.00000000000E+00 0. -1.
</event>
<event>
 6    1  0.6597032E-006  0.1004809E+03  0.7561462E-02  0.1279288E+00
         -1   -1    0    0    0  501 -0.00000000000E+00  0.00000000000E+00  0.98385596086E+02  0.98385596086E+02  0.00000000000E+00 0.  1.
          1   -1    0    0  501    0  0.00000000000E+00 -0.00000000000E+00 -0.19633884426E+03  0.19633884426E+03  0.00000000000E+00 0. -1.
          5    1    1    2  502    0  0.20821152772E+02 -0.52698199208E+02 -0.40366049796E+02  0.69695846208E+02  0.41800000000E+01 0. -1.
         -5    1    1    2    0  502 -0.49409093060E+02  0.34382587637E+01  0.46222169303E+02  0.67875190132E+02  0.41800000000E+01 0. -1.
        -11    1    1    2    0    0 -0.81576927768E+01 -0.16897476821E+02 -0.73121784293E+02  0.75490847210E+02  0.00000000000E+00 0. -1.
         11    1    1    2    0    0  0.36745633065E+02  0.66157417265E+02 -0.30687583392E+02  0.81662556799E+02  0.00000000000E+00 0.  1.
</event>
<event>
 6    1  0.6597032E-006  0.1290267E+03  0.7561462E-02  0.1228907E+00
         -1   -1    0    0    0  501 -0.00000000000E+00  0.00000000000E+00  0.22037050042E+03  0.22037050042E+03  0.00000000000E+00 0.  1.
          1   -1    0    0  501    0  0.00000000000E+00 -0.00000000000E+00 -0.12251626466E+03  0.12251626466E+03  0.00000000000E+00 0. -1.
          5    1    1    2  502    0  0.37616288934E+02  0.15864184012E+02  0.70429986151E+02  0.81513881497E+02  0.41800000000E+01 0. -1.
         -5    1    1    2    0  502 -0.10019713139E+03 -0.48482463857E+02  0.73924550397E+02  0.13368741898E+03  0.41800000000E+01 0.  1.
        -11    1    1    2    0    0  0.69012394042E+02 -0.33441739720E+01 -0.57112571969E+02  0.89642288614E+02  0.00000000000E+00 0.  1.
         11    1    1    2    0    0 -0.64315515830E+01  0.35962453817E+02  0.10612271175E+02  0.38043175995E+02  0.00000000000E+00 0. -1.
</event>
<event>
 6    1  0.6597032E-006  0.1020374E+03  0.7561462E-02  0.1276069E+00
          2   -1    0    0  501    0  0.00000000000E+00  0.00000000000E+00  0.39643812208E+03  0.39643812208E+03  0.00000000000E+00 0.  1.
         -2   -1    0    0    0  501 -0.00000000000E+00 -0.00000000000E+00 -0.37512161469E+02  0.37512161469E+02  0.00000000000E+00 0. -1.
          5    1    1    2  502    0 -0.53038363405E+02  0.36328736223E+02  0.59421579918E+02  0.87642692954E+02  0.41800000000E+01 0.  1.
         -5    1    1    2    0  502  0.42084186862E+02 -0.44183131210E+02  0.46759065170E+02  0.76987729171E+02  0.41800000000E+01 0.  1.
        -11    1    1    2    0    0 -0.20685554390E+02 -0.25287845269E+02  0.18284165884E+03  0.18573755540E+03  0.00000000000E+00 0.  1.
         11    1    1    2    0    0  0.31639730933E+02  0.33142240256E+02  0.69903656685E+02  0.83582306026E+02  0.00000000000E+00 0. -1.
</event>
<event>
 6    1  0.6597032E-006  0.8127702E+02  0.7561462E-02  0.1325466E+00
         -2   -1    0    0    0  501 -0.00000000000E+00  0.00000000000E+00  0.53938649853E+02  0.53938649853E+02  0.00000000000E+00 0. -1.
          2   -1    0    0  501    0  0.00000000000E+00 -0.00000000000E+00 -0.26205536393E+03  0.26205536393E+03  0.00000000000E+00 0.  1.
          5    1    1    2  502    0 -0.29406247653E+02 -0.17047756081E+02  0.21513780747E+02  0.40443399343E+02  0.41800000000E+01 0.  1.
         -5    1    1    2    0  502  0.49414253126E+01  0.49026202859E+02 -0.10279773088E+03  0.11407380122E+03  0.41800000000E+01 0.  1.
        -11    1    1    2    0    0 -0.22931356983E+02 -0.25642929876E+01 -0.93912018444E+02  0.96705170181E+02  0.00000000000E+00 0.  1.
         11    1    1    2    0    0  0.47396179323E+02 -0.29414153791E+02 -0.32920745502E+02  0.64771643040E+02  0.00000000000E+00 0. -1.
</event>
<event>
 6    1  0.6597032E-006  0.7184521E+02  0.7561462E-02  0.1353928E+00
          2   -1    0    0  501    0  0.00000000000E+00  0.00000000000E+00  0.24187849640E+03  0.24187849640E+03  0.00000000000E+00 0. -1.
         -2   -1    0    0    0  501 -0.00000000000E+00 -0.00000000000E+00 -0.49495942369E+02  0.49495942369E+02  0.00000000000E+00 0.  1.
          5    1    1    2  502    0  0.20206966751E+02  0.41776520071E+00 -0.22016682595E+02  0.30177851904E+02  0.41800000000E+01 0.  1.
         -5    1    1    2    0  502 -0.38328232220E+02 -0.64118550369E+01  0.13142832105E+03  0.13711688898E+03  0.41800000000E+01 0.  1.
        -11    1    1    2    0    0 -0.32682376116E+02  0.56159408060E+01  0.59495789602E+02  0.68113328212E+02  0.00000000000E+00 0.  1.
         11    1    1    2    0    0  0.50803641584E+02  0.37814903020E+00  0.23475125975E+02  0.55966369674E+02  0.00000000000E+00 0. -1.
</event>
<event>
 6    1  0.6597032E-006  0.1612702E+03  0.7561462E-02  0.1187270E+00
          1   -1    0    0  501    0  0.00000000000E+00  0.00000000000E+00  0.26626622175E+03  0.26626622175E+03  0.00000000000E+00 0. -1.
         -1   -1    0    0    0  501 -0.00000000000E+00 -0.00000000000E+00 -0.20348577588E+03  0.20348577588E+03  0.00000000000E+00 0.  1.
          5    1    1    2  502    0  0.30617359872E+02 -0.26952360586E+02 -0.10459144134E+03  0.11234186427E+03  0.41800000000E+01 0. -1.
         -5    1    1    2    0  502  0.73573100912E+02 -0.84376002183E+02 -0.24427806689E+01  0.11205244531E+03  0.41800000000E+01 0. -1.
        -11    1    1    2    0    0 -0.13718760791E+02  0.67686783874E+02  0.35545247786E+02  0.77673481633E+02  0.00000000000E+00 0.  1.
         11    1    1    2    0    0 -0.90471699994E+02  0.43641578894E+02  0.13426942009E+03  0.16768420641E+03  0.00000000000E+00 0. -1.
</event>
<event>
 6    1  0.6597032E-006  0.1686044E+03  0.7561462E-02  0.1179311E+00
         -1   -1    0    0    0  501 -0.00000000000E+00  0.00000000000E+00  0.50269928381E+02  0.50269928381E+02  0.00000000000E+00 0.  1.
          1   -1    0    0  501    0  0.00000000000E+00 -0.00000000000E+00 -0.76427433182E+03  0.76427433182E+03  0.00000000000E+00 0. -1.
          5    1    1    2  502    0 -0.14997848146E+03 -0.52443147297E+02 -0.15015912576E+03  0.21865283911E+03  0.41800000000E+01 0. -1.
         -5    1    1    2    0  502  0.83284659533E+01 -0.36305410807E+01 -0.96868532987E+02  0.97383413664E+02  0.41800000000E+01 0. -1.
        -11    1    1    2    0    0  0.44973225078E+02  0.55703644397E+02 -0.13589649274E+03  0.15360124906E+03  0.00000000000E+00 0. -1.
         11    1    1    2    0    0  0.96676790429E+02  0.37004398029E+00 -0.33108025196E+03  0.34490675838E+03  0.00000000000E+00 0.  1.
</event>
<event>
 6    1  0.6597032E-006  0.1119860E+03  0.7561462E-02  0.1256936E+00
          2   -1    0    0  501    0  0.00000000000E+00  0.00000000000E+00  0.49684990595E+03  0.49684990595E+03  0.00000000000E+00 0. -1.
         -2   -1    0    0    0  501 -0.00000000000E+00 -0.00000000000E+00 -0.55784339720E+02  0.55784339720E+02  0.00000000000E+00 0.  1.
          5    1    1    2  502    0 -0.16140829385E+02 -0.17578555213E+02 -0.16965711738E+02  0.29577690096E+02  0.41800000000E+01 0.  1.
         -5    1    1    2    0  502  0.10084337332E+03  0.26809305206E+02  0.92825468179E+02  0.13972174037E+03  0.41800000000E+01 0.  1.
        -11    1    1    2    0    0 -0.17811954755E+02 -0.20849345096E+02  0.27366673080E+02  0.38741395413E+02  0.00000000000E+00 0.  1.
         11    1    1    2    0    0 -0.66890589180E+02  0.11618595103E+02  0.33783913671E+03  0.34459341980E+03  0.00000000000E+00 0. -1.
</event>
<event>
 6    1  0.6597032E-006  0.1186199E+03  0.7561462E-02  0.1245391E+00
         -3   -1    0    0    0  501 -0.00000000000E+00  0.00000000000E+00  0.31264562880E+03  0.31264562880E+03  0.00000000000E+00 0.  1.
          3   -1    0    0  501    0  0.00000000000E+00 -0.00000000000E+00 -0.69039064458E+02  0.69039064458E+02  0.00000000000E+00 0. -1.
          5    1    1    2  502    0 -0.29074271295E+02 -0.49627361386E+01 -0.57470148353E+01  0.30338796628E+02  0.41800000000E+01 0.  1.
         -5    1    1    2    0  502  0.13865853771E+02 -0.82874973510E+02  0.20244799197E+03  0.21923317493E+03  0.41800000000E+01 0.  1.
        -11    1    1    2    0    0 -0.31960835075E+01  0.10077317363E+03  0.35501121901E+02  0.10689142682E+03  0.00000000000E+00 0.  1.
         11    1    1    2    0    0  0.18404501032E+02 -0.12935463977E+02  0.11404465305E+02  0.25221294880E+02  0.00000000000E+00 0. -1.
</event>
<event>
 6    1  0.1132563E-005  0.1304153E+03  0.7561462E-02  0.1226841E+00
         -1   -1    0    0    0  501 -0.00000000000E+00  0.00000000000E+00  0.49564483424E+02  0.49564483424E+02  0.00000000000E+00 0.  1.
          1   -1    0    0  501    0  0.00000000000E+00 -0.00000000000E+00 -0.50353391013E+03  0.50353391013E+03  0.00000000000E+00 0. -1.
          5    1    1    2  502    0  0.17497497793E+02 -0.24039926112E+02  0.97154834531E+01  0.31558572452E+02  0.41800000000E+01 0.  1.
         -5    1    1    2    0  502  0.65912207602E+02 -0.53563281898E+02 -0.23695854065E+03  0.25175437765E+03  0.41800000000E+01 0.  1.
        -11    1    1    2    0    0 -0.82700493583E+00  0.61655990458E+02 -0.10642619875E+03  0.12299870274E+03  0.00000000000E+00 0. -1.
         11    1    1    2    0    0 -0.82582700459E+02  0.15947217551E+02 -0.12030017076E+03  0.14678674071E+03  0.00000000000E+00 0.  1.
</event>
<event>
 6    1  0.6597032E-006  0.1257955E+03  0.7561462E-02  0.1233831E+00
          1   -1    0    0  501    0  0.00000000000E+00  0.00000000000E+00  0.61379617946E+02  0.61379617946E+02  0.00000000000E+00 0. -1.
         -1   -1    0    0    0  501 -0.00000000000E+00 -0.00000000000E+00 -0.35818546941E+03  0.35818546941E+03  0.00000000000E+00 0.  1.
          5    1    1    2  502    0 -0.51787779600E+02  0.77729999294E+01 -0.69353734748E+02  0.87004635321E+02  0.41800000000E+01 0.  1.
         -5    1    1    2    0  502  0.32467294014E+02 -0.96313506681E+02 -0.15366581218E+03  0.18428529779E+03  0.41800000000E+01 0.  1.
        -11    1    1    2    0    0 -0.15509382744E+01  0.68102347434E+02 -0.91529862700E+02  0.11409667349E+03  0.00000000000E+00 0.  1.
         11    1    1    2    0    0  0.20871423861E+02  0.20438159317E+02  0.17743558164E+02  0.34178480752E+02  0.00000000000E+00 0. -1.
</event>
<event>
 6    1  0.6597032E-006  0.2070308E+03  0.7561462E-02  0.1143939E+00
          2   -1    0    0  501    0  0.00000000000E+00  0.00000000000E+00  0.60313963951E+03  0.60313963951E+03  0.00000000000E+00 0.  1.
         -2   -1    0    0    0  501 -0.00000000000E+00 -0.00000000000E+00 -0.87980620458E+02  0.87980620458E+02  0.00000000000E+00 0. -1.
          5    1    1    2  502    0 -0.16073064269E+03 -0.10574481089E+03  0.24365344605E+03  0.31048474794E+03  0.41800000000E+01 0.  1.
         -5    1    1    2    0  502 -0.13382552886E+02  0.38617202106E+01 -0.13718542697E+02  0.19991908825E+02  0.41800000000E+01 0.  1.
        -11    1    1    2    0    0  0.13255514653E+03  0.52596253605E+02  0.13164355933E+03  0.19408054895E+03  0.00000000000E+00 0.  1.
         11    1    1    2    0    0  0.41558049046E+02  0.49286837074E+02  0.15358055637E+03  0.16656305426E+03  0.00000000000E+00 0. -1.
</event>
<event>
 6    1  0.6597032E-006  0.8696124E+02  0.7561462E-02  0.1310382E+00
         -1   -1    0    0    0  501 -0.00000000000E+00  0.00000000000E+00  0.23622717412E+02  0.23622717412E+02  0.00000000000E+00 0.  1.
          1   -1    0    0  501    0  0.00000000000E+00 -0.00000000000E+00 -0.76186793295E+03  0.76186793295E+03  0.00000000000E+00 0. -1.
          5    1    1    2  502    0  0.52095637571E+02  0.31020796136E+02 -0.34288407403E+03  0.34822866894E+03  0.41800000000E+01 0. -1.
         -5    1    1    2    0  502  0.30171958154E+01  0.20074829141E+02  0.36666759268E+01  0.21048020049E+02  0.41800000000E+01 0. -1.
        -11    1    1    2    0    0  0.30243471646E+01 -0.30640864734E+02 -0.33393053441E+02  0.45421418797E+02  0.00000000000E+00 0.  1.
         11    1    1    2    0    0 -0.58137180551E+02 -0.20454760542E+02 -0.36563476399E+03  0.37079254258E+03  0.00000000000E+00 0. -1.
</event>
<event>
 6    1  0.6597032E-006  0.1107076E+03  0.7561462E-02  0.1259265E+00
         -1   -1    0    0    0  501 -0.00000000000E+00  0.00000000000E+00  0.15080327618E+02  0.15080327618E+02  0.00000000000E+00 0.  1.
          1   -1    0    0  501    0  0.00000000000E+00 -0.00000000000E+00 -0.90996352859E+03  0.90996352859E+03  0.00000000000E+00 0. -1.
          5    1    1    2  502    0 -0.71105749811E+02  0.36605760098E+02 -0.33532082563E+03  0.34475141455E+03  0.41800000000E+01 0. -1.
         -5    1    1    2    0  502  0.46121805356E+02 -0.20384710024E+01 -0.10067515215E+03  0.11083471908E+03  0.41800000000E+01 0. -1.
        -11    1    1    2    0    0  0.52388839388E+02 -0.41352595791E+02 -0.37643075678E+03  0.38230189945E+03  0.00000000000E+00 0.  1.
         11    1    1    2    0    0 -0.27404894933E+02  0.67853066956E+01 -0.82456466411E+02  0.87155823134E+02  0.00000000000E+00 0. -1.
</event>
<event>
 6    1  0.6597032E-006  0.1661653E+03  0.7561462E-02  0.1181907E+00
          1   -1    0    0  501    0  0.00000000000E+00  0.00000000000E+00  0.31717598919E+03  0.31717598919E+03  0.00000000000E+00 0. -1.
         -1   -1    0    0    0  501 -0.00000000000E+00 -0.00000000000E+00 -0.10847594246E+03  0.10847594246E+03  0.00000000000E+00 0.  1.
          5    1    1    2  502    0  0.11756973406E+02  0.90645370385E+02  0.46521936098E+02  0.10264780823E+03  0.41800000000E+01 0. -1.
         -5    1    1    2    0  502  0.92019769435E+02  0.12024494862E+02 -0.86385897859E+01  0.93296967137E+02  0.41800000000E+01 0. -1.
        -11    1    1    2    0    0 -0.57220883533E+02 -0.39791333538E+02  0.11164216159E+03  0.13161136722E+03  0.00000000000E+00 0.  1.
         11    1    1    2    0    0 -0.46555859307E+02 -0.62878531709E+02  0.59174538827E+02  0.98095789059E+02  0.00000000000E+00 0. -1.
</event>
<event>
 6    1  0.6597032E-006  0.6812674E+02  0.7561462E-02  0.1366582E+00
         -1   -1    0    0    0  501 -0.00000000000E+00  0.00000000000E+00  0.36573530124E+03  0.36573530124E+03  0.00000000000E+00 0.  1.
          1   -1    0    0  501    0  0.00000000000E+00 -0.00000000000E+00 -0.39606708768E+02  0.39606708768E+02  0.00000000000E+00 0. -1.
          5    1    1    2  502    0 -0.18072025641E+02  0.31719265700E+02 -0.30561346970E+01  0.36871700348E+02  0.41800000000E+01 0.  1.
         -5    1    1    2    0  502  0.43247280032E+02  0.13963170905E+02  0.18187949491E+03  0.18751778700E+03  0.41800000000E+01 0.  1.
        -11    1    1    2    0    0 -0.13456246408E+02 -0.11382957500E+02 -0.94932828818E+01  0.20019108589E+02  0.00000000000E+00 0. -1.
         11    1    1    2    0    0 -0.11719007982E+02 -0.34299479104E+02  0.15679851514E+03  0.16093341407E+03  0.00000000000E+00 0.  1.
</event>
<event>
 6    1  0.6597032E-006  0.7489297E+02  0.7561462E-02  0.1344203E+00
          2   -1    0    0  501    0  0.00000000000E+00  0.00000000000E+00  0.44723613958E+03  0.44723613958E+03  0.00000000000E+00 0. -1.
         -2   -1    0    0    0  501 -0.00000000000E+00 -0.00000000000E+00 -0.38822508625E+02  0.38822508625E+02  0.00000000000E+00 0.  1.
          5    1    1    2  502    0  0.21868125913E+02 -0.53859629095E+02  0.60450478416E+01  0.58592572743E+02  0.41800000000E+01 0.  1.
         -5    1    1    2    0  502  0.16188020572E+02  0.17918355818E+01  0.15234759900E+03  0.15327271775E+03  0.41800000000E+01 0.  1.
        -11    1    1    2    0    0  0.20783314333E+01  0.27617578162E+02  0.97381174722E+01  0.29357810153E+02  0.00000000000E+00 0.  1.
         11    1    1    2    0    0 -0.40134477918E+02  0.24450215351E+02  0.24028286664E+03  0.24483554756E+03  0.00000000000E+00 0. -1.
</event>
<event>
 6    1  0.6597032E-006  0.1189472E+03  0.7561462E-02  0.1244844E+00
         -2   -1    0    0    0  501 -0.00000000000E+00  0.00000000000E+00  0.48275273701E+02  0.48275273701E+02  0.00000000000E+00 0.  1.
          2   -1    0    0  501    0  0.00000000000E+00 -0.00000000000E+00 -0.42577861122E+03  0.42577861122E+03  0.00000000000E+00 0. -1.
          5    1    1    2  502    0 -0.41195731695E+02 -0.22787819169E+02 -0.14840731248E+03  0.15575164786E+03  0.41800000000E+01 0. -1.
         -5    1    1    2    0  502  0.24214831521E+02 -0.71352550749E+02 -0.18208355901E+02  0.77630929330E+02  0.41800000000E+01 0.  1.
        -11    1    1    2    0    0 -0.19569196120E+02  0.66559486684E+02 -0.14059719665E+03  0.15678230261E+03  0.00000000000E+00 0. -1.
         11    1    1    2    0    0  0.36550096294E+02  0.27580883235E+02 -0.70290472485E+02  0.83889005127E+02  0.00000000000E+00 0.  1.
</event>
<event>
 6    1  0.6597032E-006  0.1745500E+03  0.7561462E-02  0.1173184E+00
         -1   -1    0    0    0  501 -0.00000000000E+00  0.00000000000E+00  0.62212571996E+03  0.62212571996E+03  0.00000000000E+00 0.  1.
          1   -1    0    0  501    0  0.00000000000E+00 -0.00000000000E+00 -0.56096644094E+02  0.56096644094E+02  0.00000000000E+00 0. -1.
          5    1    1    2  502    0  0.17713036028E+02  0.11596591058E+03  0.28543901100E+03  0.30863367519E+03  0.41800000000E+01 0.  1.
         -5    1    1    2    0  502  0.67712498488E+02 -0.60810098425E+01  0.12202560383E+03  0.13974863693E+03  0.41800000000E+01 0.  1.
        -11    1    1    2    0    0  0.14889466887E+02 -0.10331311262E+00  0.41447138415E+01  0.15455922833E+02  0.00000000000E+00 0. -1.
         11    1    1    2    0    0 -0.10031500140E+03 -0.10978158762E+03  0.15441974719E+03  0.21438412910E+03  0.00000000000E+00 0.  1.
</event>
<event>
 6    1  0.6597032E-006  0.1103291E+03  0.7561462E-02  0.1259962E+00
         -1   -1    0    0    0  501 -0.00000000000E+00  0.00000000000E+00  0.84083121239E+02  0.84083121239E+02  0.00000000000E+00 0.  1.
          1   -1    0    0  501    0  0.00000000000E+00 -0.00000000000E+00 -0.15631711284E+03  0.15631711284E+03  0.00000000000E+00 0. -1.
          5    1    1    2  502    0  0.26387635042E+02 -0.63753261086E+02 -0.31505620472E+01  0.69196705293E+02  0.41800000000E+01 0.  1.
         -5    1    1    2    0  502 -0.48177906922E+02  0.32630811862E+02 -0.30344075185E+02  0.65758010136E+02  0.41800000000E+01 0.  1.
        -11    1    1    2    0    0  0.52693839614E+02  0.33101481653E+02 -0.40798726119E+02  0.74410247103E+02  0.00000000000E+00 0. -1.
         11    1    1    2    0    0 -0.30903567734E+02 -0.19790324300E+01  0.20593717497E+01  0.31035271548E+02  0.00000000000E+00 0.  1.
</event>
<event>
 6    1  0.6597032E-006  0.1075419E+03  0.7561462E-02  0.1265191E+00
          1   -1    0    0  501    0  0.00000000000E+00  0.00000000000E+00  0.18820959903E+03  0.18820959903E+03  0.00000000000E+00 0. -1.
         -1   -1    0    0    0  501 -0.00000000000E+00 -0.00000000000E+00 -0.10409034229E+03  0.10409034229E+03  0.00000000000E+00 0.  1.
          5    1    1    2  502    0 -0.51864993870E+02  0.37710909864E+02 -0.40846250545E+01  0.64391357135E+02  0.41800000000E+01 0. -1.
         -5    1    1    2    0  502  0.23394276641E+02 -0.57585390579E+02 -0.33641499175E+02  0.70799662813E+02  0.41800000000E+01 0. -1.
        -11    1    1    2    0    0 -0.25287404482E+02 -0.98015993412E+01  0.75363501910E+02  0.80094828767E+02  0.00000000000E+00 0. -1.
         11    1    1    2    0    0  0.53758121711E+02  0.29676080057E+02  0.46481879061E+02  0.77014092597E+02  0.00000000000E+00 0.  1.
</event>
<event>
 6    1  0.6597032E-006  0.1484996E+03  0.7561462E-02  0.1202329E+00
         -2   -1    0    0    0  501 -0.00000000000E+00  0.00000000000E+00  0.79482621745E+02  0.79482621745E+02  0.00000000000E+00 0.  1.
          2   -1    0    0  501    0  0.00000000000E+00 -0.00000000000E+00 -0.35837874370E+03  0.35837874370E+03  0.00000000000E+00 0. -1.
          5    1    1    2  502    0  0.15371693361E+02  0.71172009689E+02  0.27623655079E+01  0.72985251820E+02  0.41800000000E+01 0. -1.
         -5    1    1    2    0  502  0.73715914852E+02  0.30046041736E+02 -0.12363196351E+03  0.14710246609E+03  0.41800000000E+01 0. -1.
        -11    1    1    2    0    0 -0.39825018575E+02 -0.10603033391E+02 -0.74149937587E+02  0.84833187290E+02  0.00000000000E+00 0.  1.
         11    1    1    2    0    0 -0.49262589637E+02 -0.90615018035E+02 -0.83876586360E+02  0.13294046025E+03  0.00000000000E+00 0. -1.
</event>
<event>
 6    1  0.6597032E-006  0.1806737E+03  0.7561462E-02  0.1167153E+00
         -2   -1    0    0    0  501 -0.00000000000E+00  0.00000000000E+00  0.32037883387E+03  0.32037883387E+03  0.00000000000E+00 0.  1.
          2   -1    0    0  501    0  0.00000000000E+00 -0.00000000000E+00 -0.10344108256E+03  0.10344108256E+03  0.00000000000E+00 0. -1.
          5    1    1    2  502    0 -0.56161915430E+02 -0.38015454148E+02  0.53058506903E+02  0.86209123958E+02  0.41800000000E+01 0.  1.
         -5    1    1    2    0  502 -0.79627576134E+02  0.93313479933E+02  0.52028493478E+02  0.13331313871E+03  0.41800000000E+01 0.  1.
        -11    1    1    2    0    0  0.13268868900E+03 -0.18781872374E+02  0.82748287275E+02  0.15750024116E+03  0.00000000000E+00 0.  1.
         11    1    1    2    0    0  0.31008025656E+01 -0.36516153412E+02  0.29102463652E+02  0.46797412612E+02  0.00000000000E+00 0. -1.
</event>
<event>
 6    1  0.6597032E-006  0.1038221E+03  0.7561462E-02  0.1272458E+00
          2   -1    0    0  501    0  0.00000000000E+00  0.00000000000E+00  0.49612746696E+02  0.49612746696E+02  0.00000000000E+00 0. -1.
         -2   -1    0    0    0  501 -0.00000000000E+00 -0.00000000000E+00 -0.25939895785E+03  0.25939895785E+03  0.00000000000E+00 0.  1.
          5    1    1    2  502    0  0.28910757093E+01  0.64693407560E+02 -0.10849930719E+03  0.12642455205E+03  0.41800000000E+01 0.  1.
         -5    1    1    2    0  502  0.68461446433E+01 -0.57746581499E+02 -0.58710932265E+02  0.82740457690E+02  0.41800000000E+01 0.  1.
        -11    1    1    2    0    0  0.18443341438E+02  0.31667329920E+02 -0.12689062730E+01  0.36668607156E+02  0.00000000000E+00 0. -1.
         11    1    1    2    0    0 -0.28180561790E+02 -0.38614155981E+02 -0.41307065424E+02  0.63178087648E+02  0.00000000000E+00 0.  1.
</event>
<event>
 6    1  0.6597032E-006  0.2022455E+03  0.7561462E-02  0.1147858E+00
         -1   -1    0    0    0  501 -0.00000000000E+00  0.00000000000E+00  0.24250554335E+03  0.24250554335E+03  0.00000000000E+00 0.  1.
          1   -1    0    0  501    0  0.00000000000E+00 -0.00000000000E+00 -0.18722247889E+03  0.18722247889E+03  0.00000000000E+00 0. -1.
          5    1    1    2  502    0 -0.41122066350E+02  0.35418948387E+02  0.33077287151E+02  0.63695412480E+02  0.41800000000E+01 0. -1.
         -5    1    1    2    0  502  0.71522215615E+02  0.14431276795E+03  0.91505297016E+01  0.16137783898E+03  0.41800000000E+01 0. -1.
        -11    1    1    2    0    0 -0.30907361338E+02 -0.47275738790E+02 -0.31787708674E+02  0.64812953071E+02  0.00000000000E+00 0. -1.
         11    1    1    2    0    0  0.50721207325E+00 -0.13245597755E+03  0.44842956283E+02  0.13984181771E+03  0.00000000000E+00 0.  1.
</event>
<event>
 6    1  0.6597032E-006  0.8324592E+02  0.7561462E-02  0.1320084E+00
         -2   -1    0    0    0  501 -0.00000000000E+00  0.00000000000E+00  0.58685953467E+02  0.58685953467E+02  0.00000000000E+00 0.  1.
          2   -1    0    0  501    0  0.00000000000E+00 -0.00000000000E+00 -0.21688962056E+03  0.21688962056E+03  0.00000000000E+00 0. -1.
          5    1    1    2  502    0  0.37958977124E+02  0.39556261156E+02 -0.15777441494E+02  0.57201239507E+02  0.41800000000E+01 0.  1.
         -5    1    1    2    0  502 -0.61570433204E+02 -0.31550500959E+02 -0.56369422697E+02  0.89338326438E+02  0.41800000000E+01 0.  1.
        -11    1    1    2    0    0  0.19937948040E+02  0.11048645393E+02 -0.10162972544E+03  0.10415467070E+03  0.00000000000E+00 0. -1.
         11    1    1    2    0    0  0.36735080395E+01 -0.19054405591E+02  0.15572922531E+02  0.24881337381E+02  0.00000000000E+00 0.  1.
</event>
<event>
 6    1  0.6597032E-006  0.9433461E+02  0.7561462E-02  0.1292682E+00
         -1   -1    0    0    0  501 -0.00000000000E+00  0.00000000000E+00  0.35346653835E+03  0.35346653835E+03  0.00000000000E+00 0.  1.
          1   -1    0    0  501    0  0.00000000000E+00 -0.00000000000E+00 -0.62156883087E+02  0.62156883087E+02  0.00000000000E+00 0. -1.
          5    1    1    2  502    0 -0.13570580559E+02  0.18752969548E+02 -0.64706845465E+01  0.24396243196E+02  0.41800000000E+01 0.  1.
         -5    1    1    2    0  502 -0.52270442490E+02 -0.11664205962E+02  0.26454144657E+03  0.26994055311E+03  0.41800000000E+01 0.  1.
        -11    1    1    2    0    0  0.66401720171E+02  0.31037471837E+02  0.38502536056E+02  0.82794676052E+02  0.00000000000E+00 0.  1.
         11    1    1    2    0    0 -0.56069712281E+00 -0.38126235423E+02 -0.52636428123E+01  0.38491949086E+02  0.00000000000E+00 0. -1.
</event>
<event>
 6    1  0.6597032E-006  0.1274675E+03  0.7561462E-02  0.1231263E+00
         -2   -1    0    0    0  501 -0.00000000000E+00  0.00000000000E+00  0.34723492202E+03  0.34723492202E+03  0.00000000000E+00 0.  1.
          2   -1    0    0  501    0  0.00000000000E+00 -0.00000000000E+00 -0.12787290823E+03  0.12787290823E+03  0.00000000000E+00 0. -1.
          5    1    1    2  502    0 -0.11956991241E+02  0.82480022832E+02  0.25587317942E+03  0.26913654555E+03  0.41800000000E+01 0. -1.
         -5    1    1    2    0  502 -0.28787449048E+02  0.35556827577E+02  0.53330858113E+01  0.46248453102E+02  0.41800000000E+01 0. -1.
        -11    1    1    2    0    0  0.43036008190E+00 -0.13503249269E+02  0.25603548315E+02  0.28949346054E+02  0.00000000000E+00 0.  1.
         11    1    1    2    0    0  0.40314080207E+02 -0.10453360114E+03 -0.67447799745E+02  0.13077348554E+03  0.00000000000E+00 0. -1.
</event>
<event>
 6    1  0.6597032E-006  0.1143651E+03  0.7561462E-02  0.1252693E+00
         -1   -1    0    0    0  501 -0.00000000000E+00  0.00000000000E+00  0.46408400052E+02  0.46408400052E+02  0.00000000000E+00 0.  1.
          1   -1    0    0  501    0  0.00000000000E+00 -0.00000000000E+00 -0.44481991849E+03  0.44481991849E+03  0.00000000000E+00 0. -1.
          5    1    1    2  502    0  0.15048855859E+02  0.20969370489E+02  0.32569740580E+01  0.26348867934E+02  0.41800000000E+01 0. -1.
         -5    1    1    2    0  502 -0.74898469549E+02 -0.59622444867E+02 -0.15975854091E+03  0.18629245950E+03  0.41800000000E+01 0. -1.
        -11    1    1    2    0    0  0.14608758708E+02 -0.24828485669E+02 -0.50725119188E+01  0.29250639459E+02  0.00000000000E+00 0.  1.
         11    1    1    2    0    0  0.45240854982E+02  0.63481560046E+02 -0.23683743966E+03  0.24933635164E+03  0.00000000000E+00 0. -1.
</event>
<event>
 6    1  0.6597032E-006  0.9913506E+02  0.7561462E-02  0.1282125E+00
         -1   -1    0    0    0  501 -0.00000000000E+00  0.00000000000E+00  0.10960734512E+03  0.10960734512E+03  0.00000000000E+00 0.  1.
          1   -1    0    0  501    0  0.00000000000E+00 -0.00000000000E+00 -0.16828136848E+03  0.16828136848E+03  0.00000000000E+00 0. -1.
          5    1    1    2  502    0  0.27766262419E+02  0.58269709897E+02  0.62738382095E+02  0.90110495549E+02  0.41800000000E+01 0. -1.
         -5    1    1    2    0  502 -0.24483436296E+02 -0.35905520012E+02 -0.14271682012E+02  0.45932541053E+02  0.41800000000E+01 0. -1.
        -11    1    1    2    0    0  0.17938385787E+02  0.29142913595E+02 -0.59061368673E+02  0.68259361021E+02  0.00000000000E+00 0.  1.
         11    1    1    2    0    0 -0.21221211911E+02 -0.51507103481E+02 -0.48079354776E+02  0.73586315981E+02  0.00000000000E+00 0. -1.
</event>
<event>
 6    1  0.6597032E-006  0.9091329E+02  0.7561462E-02  0.1300655E+00
          2   -1    0    0  501    0  0.00000000000E+00  0.00000000000E+00  0.36277404020E+03  0.36277404020E+03  0.00000000000E+00 0. -1.
         -2   -1    0    0    0  501 -0.00000000000E+00 -0.00000000000E+00 -0.45920710038E+02  0.45920710038E+02  0.00000000000E+00 0.  1.
          5    1    1    2  502    0  0.18669489399E+02 -0.43803888783E+02  0.16385687292E+03  0.17068648954E+03  0.41800000000E+01 0.  1.
         -5    1    1    2    0  502  0.27381985369E+02  0.64575086793E+01 -0.15366097294E+02  0.32327416958E+02  0.41800000000E+01 0.  1.
        -11    1    1    2    0    0  0.12989573179E+02  0.44272837582E+02  0.29855964106E+02  0.54956271268E+02  0.00000000000E+00 0.  1.
         11    1    1    2    0    0 -0.59041047947E+02 -0.69264574775E+01  0.13850659043E+03  0.15072457248E+03  0.00000000000E+00 0. -1.
</event>
<event>
 6    1  0.6597032E-006  0.1579761E+03  0.7561462E-02  0.1191001E+00
         -1   -1    0    0    0  501 -0.00000000000E+00  0.00000000000E+00  0.38856359490E+03  0.38856359490E+03  0.00000000000E+00 0.  1.
          1   -1    0    0  501    0  0.00000000000E+00 -0.00000000000E+00 -0.66342934936E+02  0.66342934936E+02  0.00000000000E+00 0. -1.
          5    1    1    2  502    0 -0.39842112770E+01 -0.36032825801E+02  0.29569490101E+02  0.46968772813E+02  0.41800000000E+01 0.  1.
         -5    1    1    2    0  502 -0.10231052467E+03  0.84787739003E+02  0.17646852297E+03  0.22094120518E+03  0.41800000000E+01 0.  1.
        -11    1    1    2    0    0  0.77924331679E+01 -0.47367678938E+02  0.37172017828E+02  0.60713902296E+02  0.00000000000E+00 0. -1.
         11    1    1    2    0    0  0.98502302783E+02 -0.13872342642E+01  0.79010629057E+02  0.12628264955E+03  0.00000000000E+00 0.  1.
</event>
<event>
 6    1  0.6597032E-006  0.1279914E+03  0.7561462E-02  0.1230467E+00
          1   -1    0    0  501    0  0.00000000000E+00  0.00000000000E+00  0.13684333942E+03  0.13684333942E+03  0.00000000000E+00 0. -1.
         -1   -1    0    0    0  501 -0.00000000000E+00 -0.00000000000E+00 -0.14273404735E+03  0.14273404735E+03  0.00000000000E+00 0.  1.
          5    1    1    2  502    0 -0.22288568543E+02  0.44103008242E+02 -0.17140762215E+02  0.52470313064E+02  0.41800000000E+01 0. -1.
         -5    1    1    2    0  502 -0.18063673581E+01 -0.10267872125E+03 -0.33463148689E+02  0.10808995088E+03  0.41800000000E+01 0.  1.
        -11    1    1    2    0    0 -0.11772850891E+02  0.65950838207E+02  0.85237321429E+01  0.67533451622E+02  0.00000000000E+00 0. -1.
         11    1    1    2    0    0  0.35867786792E+02 -0.73751251995E+01  0.36189470836E+02  0.51483671202E+02  0.00000000000E+00 0.  1.
</event>
<event>
 6    1  0.6597032E-006  0.8607286E+02  0.7561462E-02  0.1312650E+00
         -1   -1    0    0    0  501 -0.00000000000E+00  0.00000000000E+00  0.52021738689E+02  0.52021738689E+02  0.00000000000E+00 0.  1.
          1   -1    0    0  501    0  0.00000000000E+00 -0.00000000000E+00 -0.23936420584E+03  0.23936420584E+03  0.00000000000E+00 0. -1.
          5    1    1    2  502    0  0.32974721916E+02 -0.31436298591E+02 -0.98752258847E+02  0.10883498602E+03  0.41800000000E+01 0. -1.
         -5    1    1    2    0  502 -0.53769852346E+02  0.83793189903E+01 -0.17539347532E+01  0.54607313569E+02  0.41800000000E+01 0. -1.
        -11    1    1    2    0    0  0.38630600992E+02  0.33513786713E+02 -0.93201673954E+02  0.10631109660E+03  0.00000000000E+00 0. -1.
         11    1    1    2    0    0 -0.17835470562E+02 -0.10456807112E+02  0.63654004062E+01  0.21632548335E+02  0.00000000000E+00 0.  1.
</event>
<event>
 6    1  0.6597032E-006  0.2690893E+03  0.7561462E-02  0.1101802E+00
          2   -1    0    0  501    0  0.00000000000E+00  0.00000000000E+00  0.16776950746E+04  0.16776950746E+04  0.00000000000E+00 0.  1.
         -2   -1    0    0    0  501 -0.00000000000E+00 -0.00000000000E+00 -0.51817305678E+02  0.51817305678E+02  0.00000000000E+00 0. -1.
          5    1    1    2  502    0 -0.12629093476E+01 -0.98546754449E+01  0.11099159091E+03  0.11151374453E+03  0.41800000000E+01 0. -1.
         -5    1    1    2    0  502 -0.25705413508E+03  0.28820709309E+02  0.45629245522E+03  0.52452620405E+03  0.41800000000E+01 0. -1.
        -11    1    1    2    0    0  0.11814638648E+03 -0.44452734959E+02  0.60508383166E+03  0.61811087809E+03  0.00000000000E+00 0. -1.
         11    1    1    2    0    0  0.14017065795E+03  0.25486701095E+02  0.45350989116E+03  0.47536155362E+03  0.00000000000E+00 0.  1.
</event>
<event>
 6    1  0.6597032E-006  0.9019323E+02  0.7561462E-02  0.1302384E+00
          1   -1    0    0  501    0  0.00000000000E+00  0.00000000000E+00  0.86701655254E+03  0.86701655254E+03  0.00000000000E+00 0. -1.
         -1   -1    0    0    0  501 -0.00000000000E+00 -0.00000000000E+00 -0.20936118390E+02  0.20936118390E+02  0.00000000000E+00 0.  1.
          5    1    1    2  502    0  0.10111173958E+00 -0.21442695289E+02  0.35544115207E+03  0.35611189870E+03  0.41800000000E+01 0.  1.
         -5    1    1    2    0  502  0.74135033951E+02 -0.71868833931E+01  0.11449627784E+03  0.13665476425E+03  0.41800000000E+01 0.  1.
        -11    1    1    2    0    0 -0.63349316390E+02  0.33894708668E+02  0.37629431794E+03  0.38309189612E+03  0.00000000000E+00 0. -1.
         11    1    1    2    0    0 -0.10886829301E+02 -0.52651299853E+01 -0.15131370183E+00  0.12094111866E+02  0.00000000000E+00 0.  1.
</event>
<event>
 6    1  0.6597032E-006  0.5633632E+02  0.7561462E-02  0.1413883E+00
          4   -1    0    0  501    0  0.00000000000E+00  0.00000000000E+00  0.12832891641E+03  0.12832891641E+03  0.00000000000E+00 0. -1.
         -4   -1    0    0    0  501 -0.00000000000E+00 -0.00000000000E+00 -0.63890553446E+02  0.63890553446E+02  0.00000000000E+00 0.  1.
          5    1    1    2  502    0 -0.32969713256E+02  0.23074456074E+02  0.53882563279E+02  0.67381269955E+02  0.41800000000E+01 0. -1.
         -5    1    1    2    0  502  0.73617594427E+01 -0.28640008087E+02 -0.44265949333E+02  0.53398429149E+02  0.41800000000E+01 0.  1.
        -11    1    1    2    0    0  0.15553416473E+02 -0.13629351016E+02  0.40474527229E+02  0.45451681240E+02  0.00000000000E+00 0. -1.
         11    1    1    2    0    0  0.10054537340E+02  0.19194903029E+02  0.14347221789E+02  0.25988089511E+02  0.00000000000E+00 0.  1.
</event>
<event>
 6    1  0.6597032E-006  0.1270616E+03  0.7561462E-02  0.1231882E+00
         -2   -1    0    0    0  501 -0.00000000000E+00  0.00000000000E+00  0.10495253982E+03  0.10495253982E+03  0.00000000000E+00 0.  1.
          2   -1    0    0  501    0  0.00000000000E+00 -0.00000000000E+00 -0.41249830469E+03  0.41249830469E+03  0.00000000000E+00 0. -1.
          5    1    1    2  502    0  0.14803662022E+02 -0.26832641506E+02 -0.65064143361E+02  0.72041336820E+02  0.41800000000E+01 0. -1.
         -5    1    1    2    0  502 -0.14846168153E+02  0.40182503497E+02  0.71182866569E+02  0.83183623323E+02  0.41800000000E+01 0.  1.
        -11    1    1    2    0    0  0.55791460125E+02  0.63937889965E+02 -0.16696537562E+03  0.18729169082E+03  0.00000000000E+00 0.  1.
         11    1    1    2    0    0 -0.55748953994E+02 -0.77287751956E+02 -0.14669911246E+03  0.17493419354E+03  0.00000000000E+00 0. -1.
</event>
<event>
 6    1  0.6597032E-006  0.2090651E+03  0.7561462E-02  0.1142308E+00
         -2   -1    0    0    0  501 -0.00000000000E+00  0.00000000000E+00  0.14890315886E+03  0.14890315886E+03  0.00000000000E+00 0.  1.
          2   -1    0    0  501    0  0.00000000000E+00 -0.00000000000E+00 -0.41324879846E+03  0.41324879846E+03  0.00000000000E+00 0. -1.
          5    1    1    2  502    0  0.71964265656E+02 -0.63931433518E+02  0.40656295863E+02  0.10457767695E+03  0.41800000000E+01 0.  1.
         -5    1    1    2    0  502  0.10976905952E+03 -0.31282092931E+02 -0.78701983214E+02  0.13870576891E+03  0.41800000000E+01 0.  1.
        -11    1    1    2    0    0 -0.24259300046E+02  0.25968665339E+02 -0.11946519174E+01  0.35557171027E+02  0.00000000000E+00 0.  1.
         11    1    1    2    0    0 -0.15747402513E+03  0.69244861109E+02 -0.22510530033E+03  0.28331134043E+03  0.00000000000E+00 0. -1.
</event>
<event>
 6    1  0.6597032E-006  0.1291218E+03  0.7561462E-02  0.1228765E+00
         -2   -1    0    0    0  501 -0.00000000000E+00  0.00000000000E+00  0.28889886346E+03  0.28889886346E+03  0.00000000000E+00 0.  1.
          2   -1    0    0  501    0  0.00000000000E+00 -0.00000000000E+00 -0.69205137012E+02  0.69205137012E+02  0.00000000000E+00 0. -1.
          5    1    1    2  502    0  0.11546153335E+02  0.51695792874E+02  0.10119706275E+03  0.11429823518E+03  0.41800000000E+01 0.  1.
         -5    1    1    2    0  502 -0.86094022126E+02 -0.19601214868E+02  0.70197517158E+02  0.11287848371E+03  0.41800000000E+01 0.  1.
        -11    1    1    2    0    0  0.12507592828E+02  0.27796910156E+02 -0.29364378638E+01  0.30622389846E+02  0.00000000000E+00 0. -1.
         11    1    1    2    0    0  0.62040275963E+02 -0.59891488161E+02  0.51235584411E+02  0.10030489173E+03  0.00000000000E+00 0.  1.
</event>
<event>
 6    1  0.6597032E-006  0.1387663E+03  0.7561462E-02  0.1214999E+00
          2   -1    0    0  501    0  0.00000000000E+00  0.00000000000E+00  0.91755615814E+03  0.91755615814E+03  0.00000000000E+00 0. -1.
         -2   -1    0    0    0  501 -0.00000000000E+00 -0.00000000000E+00 -0.23886955768E+02  0.23886955768E+02  0.00000000000E+00 0.  1.
          5    1    1    2  502    0 -0.29604311027E+02 -0.73868092802E+02  0.15763849245E+03  0.17663600162E+03  0.41800000000E+01 0.  1.
         -5    1    1    2    0  502 -0.61628136562E+02  0.40635775459E+02  0.24907661499E+03  0.25981902547E+03  0.41800000000E+01 0.  1.
        -11    1    1    2    0    0  0.93546695540E+02  0.30100928432E+01  0.43395613455E+03  0.44393464791E+03  0.00000000000E+00 0. -1.
         11    1    1    2    0    0 -0.23142479516E+01  0.30222224500E+02  0.52997960384E+02  0.61053438905E+02  0.00000000000E+00 0.  1.
</event>
<event>
 6    1  0.6597032E-006  0.1091635E+03  0.7561462E-02  0.1262127E+00
          2   -1    0    0  501    0  0.00000000000E+00  0.00000000000E+00  0.39836862188E+03  0.39836862188E+03  0.00000000000E+00 0. -1.
         -2   -1    0    0    0  501 -0.00000000000E+00 -0.00000000000E+00 -0.32709600506E+02  0.32709600506E+02  0.00000000000E+00 0.  1.
          5    1    1    2  502    0 -0.53071192234E+02  0.41128673934E+02  0.71489735701E+02  0.98165034382E+02  0.41800000000E+01 0.  1.
         -5    1    1    2    0  502  0.56001188917E+02 -0.10900044089E+02  0.11489708691E+03  0.12835013479E+03  0.41800000000E+01 0.  1.
        -11    1    1    2    0    0 -0.28188975030E+02  0.22050023443E+02  0.40001821142E+02  0.53674645241E+02  0.00000000000E+00 0.  1.
         11    1    1    2    0    0  0.25258978347E+02 -0.52278653287E+02  0.13927037762E+03  0.15088840797E+03  0.00000000000E+00 0. -1.
</event>
<event>
 6    1  0.6597032E-006  0.1882344E+03  0.7561462E-02  0.1160064E+00
          2   -1    0    0  501    0  0.00000000000E+00  0.00000000000E+00  0.46579226445E+03  0.46579226445E+03  0.00000000000E+00 0. -1.
         -2   -1    0    0    0  501 -0.00000000000E+00 -0.00000000000E+00 -0.90604325422E+02  0.90604325422E+02  0.00000000000E+00 0.  1.
          5    1    1    2  502    0 -0.27550454309E+01 -0.12957259229E+02 -0.15558557911E+02  0.20857180211E+02  0.41800000000E+01 0. -1.
         -5    1    1    2    0  502 -0.16816524890E+03 -0.18942334435E+02  0.19802686247E+03  0.26051962235E+03  0.41800000000E+01 0. -1.
        -11    1    1    2    0    0  0.12061572411E+03 -0.18572959416E+02  0.98160907991E+02  0.15661631965E+03  0.00000000000E+00 0.  1.
         11    1    1    2    0    0  0.50304570223E+02  0.50472553081E+02  0.94558726481E+02  0.11840346766E+03  0.00000000000E+00 0. -1.
</event>
<event>
 6    1  0.6597032E-006  0.1244556E+03  0.7561462E-02  0.1235923E+00
          3   -1    0    0  501    0  0.00000000000E+00  0.00000000000E+00  0.25987949361E+03  0.25987949361E+03  0.00000000000E+00 0. -1.
         -3   -1    0    0    0  501 -0.00000000000E+00 -0.00000000000E+00 -0.88694286400E+02  0.88694286400E+02  0.00000000000E+00 0.  1.
          5    1    1    2  502    0 -0.16956438682E+02 -0.28330067609E+02  0.92122935971E+02  0.97950095842E+02  0.41800000000E+01 0.  1.
         -5    1    1    2    0  502  0.14659456340E+02 -0.74745952248E+02 -0.20932597840E+02  0.79104380978E+02  0.41800000000E+01 0.  1.
        -11    1    1    2    0    0 -0.35848614083E+02  0.77576555999E+01  0.25460218098E+02  0.44648931204E+02  0.00000000000E+00 0.  1.
         11    1    1    2    0    0  0.38145596424E+02  0.95318364257E+02  0.74534650981E+02  0.12687037199E+03  0.00000000000E+00 0. -1.
</event>
<event>
 6    1  0.6597032E-006  0.1384959E+03  0.7561462E-02  0.1215367E+00
          1   -1    0    0  501    0  0.00000000000E+00  0.00000000000E+00  0.45339472020E+02  0.45339472020E+02  0.00000000000E+00 0. -1.
         -1   -1    0    0    0  501 -0.00000000000E+00 -0.00000000000E+00 -0.63552553025E+03  0.63552553025E+03  0.00000000000E+00 0.  1.
          5    1    1    2  502    0 -0.13239806188E+01 -0.87808103152E+01  0.86796746154E+01  0.13102087845E+02  0.41800000000E+01 0.  1.
         -5    1    1    2    0  502  0.10466793906E+03 -0.67012958756E+02 -0.36672225787E+03  0.38723223126E+03  0.41800000000E+01 0.  1.
        -11    1    1    2    0    0 -0.16032676683E+02 -0.11211430968E+02 -0.91277679556E+02  0.93350724106E+02  0.00000000000E+00 0.  1.
         11    1    1    2    0    0 -0.87311281753E+02  0.87005200039E+02 -0.14086579542E+03  0.18717995906E+03  0.00000000000E+00 0. -1.
</event>
<event>
 6    1  0.6597032E-006  0.1106006E+03  0.7561462E-02  0.1259462E+00
         -2   -1    0    0    0  501 -0.00000000000E+00  0.00000000000E+00  0.30918759586E+02  0.30918759586E+02  0.00000000000E+00 0.  1.
          2   -1    0    0  501    0  0.00000000000E+00 -0.00000000000E+00 -0.57872828254E+03  0.57872828254E+03  0.00000000000E+00 0. -1.
          5    1    1    2  502    0 -0.52693784471E+02  0.40336572357E+02 -0.10008194202E+03  0.12015632114E+03  0.41800000000E+01 0. -1.
         -5    1    1    2    0  502  0.67563837571E+02 -0.19039870338E+02 -0.66286360122E+02  0.96637170633E+02  0.41800000000E+01 0.  1.
        -11    1    1    2    0    0  0.22966380258E+02  0.18490166818E+02 -0.61111715527E+02  0.67852654081E+02  0.00000000000E+00 0. -1.
         11    1    1    2    0    0 -0.37836433358E+02 -0.39786868837E+02 -0.32032950529E+03  0.32500089627E+03  0.00000000000E+00 0.  1.
</event>
<event>
 6    1  0.6597032E-006  0.1387072E+03  0.7561462E-02  0.1215079E+00
         -2   -1    0    0    0  501 -0.00000000000E+00  0.00000000000E+00  0.32492758650E+02  0.32492758650E+02  0.00000000000E+00 0.  1.
          2   -1    0    0  501    0  0.00000000000E+00 -0.00000000000E+00 -0.86362380521E+03  0.86362380521E+03  0.00000000000E+00 0. -1.
          5    1    1    2  502    0 -0.45001968627E+02 -0.55824217924E+01 -0.31960518842E+03  0.32283322239E+03  0.41800000000E+01 0. -1.
         -5    1    1    2    0  502 -0.79184539906E+02  0.26624604592E+02 -0.86297116476E+02  0.12018205208E+03  0.41800000000E+01 0. -1.
        -11    1    1    2    0    0  0.12997454204E+02 -0.33893936140E+02 -0.51760335656E+02  0.63220764548E+02  0.00000000000E+00 0.  1.
         11    1    1    2    0    0  0.11118905433E+03  0.12851753340E+02 -0.37346840600E+03  0.38988052484E+03  0.00000000000E+00 0. -1.
</event>
<event>
 6    1  0.6597032E-006  0.7613359E+02  0.7561462E-02  0.1340396E+00
          2   -1    0    0  501    0  0.00000000000E+00  0.00000000000E+00  0.11596473440E+03  0.11596473440E+03  0.00000000000E+00 0. -1.
         -2   -1    0    0    0  501 -0.00000000000E+00 -0.00000000000E+00 -0.13595136644E+03  0.13595136644E+03  0.00000000000E+00 0.  1.
          5    1    1    2  502    0 -0.33635993597E+02 -0.38142362088E+02  0.21005043875E+02  0.55180649862E+02  0.41800000000E+01 0. -1.
         -5    1    1    2    0  502  0.36090913251E+02 -0.38479856593E+01 -0.82881943321E+02  0.90577314718E+02  0.41800000000E+01 0. -1.
        -11    1    1    2    0    0 -0.25842057656E+02  0.22237916821E+02 -0.18253406811E+02  0.38672002129E+02  0.00000000000E+00 0.  1.
         11    1    1    2    0    0  0.23387138002E+02  0.19752430926E+02  0.60143674221E+02  0.67486134133E+02  0.00000000000E+00 0. -1.
</event>
<event>
 6    1  0.6597032E-006  0.1073189E+03  0.7561462E-02  0.1265617E+00
         -1   -1    0    0    0  501 -0.00000000000E+00  0.00000000000E+00  0.26064447097E+03  0.26064447097E+03  0.00000000000E+00 0.  1.
          1   -1    0    0  501    0  0.00000000000E+00 -0.00000000000E+00 -0.97893531448E+02  0.97893531448E+02  0.00000000000E+00 0. -1.
          5    1    1    2  502    0 -0.93574849900E+01  0.48842960843E+01 -0.17669458703E+02  0.21002405682E+02  0.41800000000E+01 0.  1.
         -5    1    1    2    0  502 -0.36421382656E+02 -0.82977257701E+02  0.18898365925E+03  0.20962833366E+03  0.41800000000E+01 0.  1.
        -11    1    1    2    0    0 -0.17635557377E+02  0.15811743319E+02  0.23549155968E+02  0.33400402057E+02  0.00000000000E+00 0.  1.
         11    1    1    2    0    0  0.63414425023E+02  0.62281218298E+02 -0.32112416995E+02  0.94506861015E+02  0.00000000000E+00 0. -1.
</event>
<event>
 6    1  0.6597032E-006  0.8830638E+02  0.7561462E-02  0.1307006E+00
          2   -1    0    0  501    0  0.00000000000E+00  0.00000000000E+00  0.64280599907E+02  0.64280599907E+02  0.00000000000E+00 0. -1.
         -2   -1    0    0    0  501 -0.00000000000E+00 -0.00000000000E+00 -0.58153958262E+03  0.58153958262E+03  0.00000000000E+00 0.  1.
          5    1    1    2  502    0  0.19769979099E+02  0.37525192100E+02 -0.66330433218E+02  0.78842823939E+02  0.41800000000E+01 0. -1.
         -5    1    1    2    0  502 -0.20127443328E+02 -0.41878041942E+02 -0.47421779472E+03  0.47650695021E+03  0.41800000000E+01 0.  1.
        -11    1    1    2    0    0 -0.42528291249E+02 -0.67032799305E+01  0.13416139948E+02  0.45095258392E+02  0.00000000000E+00 0. -1.
         11    1    1    2    0    0  0.42885755478E+02  0.11056129772E+02  0.98731052747E+01  0.45375149986E+02  0.00000000000E+00 0.  1.
</event>
<event>
 6    1  0.6597032E-006  0.1126431E+03  0.7561462E-02  0.1255752E+00
         -1   -1    0    0    0  501 -0.00000000000E+00  0.00000000000E+00  0.85051225185E+03  0.85051225185E+03  0.00000000000E+00 0.  1.
          1   -1    0    0  501    0  0.00000000000E+00 -0.00000000000E+00 -0.15452922601E+02  0.15452922601E+02  0.00000000000E+00 0. -1.
          5    1    1    2  502    0  0.66579219532E+02 -0.45491874247E+02  0.36349755018E+03  0.37235768353E+03  0.41800000000E+01 0.  1.
         -5    1    1    2    0  502 -0.46389517256E+02  0.94875877862E+01  0.12993966962E+03  0.13836109198E+03  0.41800000000E+01 0.  1.
        -11    1    1    2    0    0 -0.17033427671E+02  0.65329021964E+02  0.25254095470E+03  0.26140954950E+03  0.00000000000E+00 0.  1.
         11    1    1    2    0    0 -0.31562746050E+01 -0.29324735503E+02  0.89081154743E+02  0.93836849436E+02  0.00000000000E+00 0. -1.
</event>
<event>
 6    1  0.6597032E-006  0.1092913E+03  0.7561462E-02  0.1261888E+00
         -2   -1    0    0    0  501 -0.00000000000E+00  0.00000000000E+00  0.11814965904E+04  0.11814965904E+04  0.00000000000E+00 0.  1.
          2   -1    0    0  501    0  0.00000000000E+00 -0.00000000000E+00 -0.11654314191E+02  0.11654314191E+02  0.00000000000E+00 0. -1.
          5    1    1    2  502    0 -0.53215898494E+02 -0.25524844956E+02  0.21666466090E+03  0.22459852459E+03  0.41800000000E+01 0.  1.
         -5    1    1    2    0  502  0.29403980149E+02  0.53854470192E+02  0.50899622487E+03  0.51269828100E+03  0.41800000000E+01 0.  1.
        -11    1    1    2    0    0 -0.46059634687E+01  0.31416783103E+02  0.87375420183E+02  0.92966086355E+02  0.00000000000E+00 0. -1.
         11    1    1    2    0    0  0.28417881814E+02 -0.59746408339E+02  0.35680597029E+03  0.36288801268E+03  0.00000000000E+00 0.  1.
</event>
<event>
 6    1  0.6597032E-006  0.1058702E+03  0.7561462E-02  0.1268415E+00
          2   -1    0    0  501    0  0.00000000000E+00  0.00000000000E+00  0.87867186384E+02  0.87867186384E+02  0.00000000000E+00 0. -1.
         -2   -1    0    0    0  501 -0.00000000000E+00 -0.00000000000E+00 -0.15713789485E+03  0.15713789485E+03  0.00000000000E+00 0.  1.
          5    1    1    2  502    0  0.56136090227E+02 -0.30241739038E+02 -0.15188601232E+02  0.65680966904E+02  0.41800000000E+01 0. -1.
         -5    1    1    2    0  502 -0.29477843605E+02  0.54134307812E+02 -0.52013044119E+02  0.80760731203E+02  0.41800000000E+01 0. -1.
        -11    1    1    2    0    0  0.19484462722E+02 -0.33660400671E+02 -0.24881504151E+02  0.46170944432E+02  0.00000000000E+00 0.  1.
         11    1    1    2    0    0 -0.46142709345E+02  0.97678318967E+01  0.22812441041E+02  0.52392438690E+02  0.00000000000E+00 0. -1.
</event>
<event>
 6    1  0.6597032E-006  0.1329077E+03  0.7561462E-02  0.1223204E+00
         -2   -1    0    0    0  501 -0.00000000000E+00  0.00000000000E+00  0.79075793437E+03  0.79075793437E+03  0.00000000000E+00 0.  1.
          2   -1    0    0  501    0  0.00000000000E+00 -0.00000000000E+00 -0.31848076753E+02  0.31848076753E+02  0.00000000000E+00 0. -1.
          5    1    1    2  502    0 -0.66541473547E+00 -0.16895312189E+02  0.19435987146E+03  0.19513873625E+03  0.41800000000E+01 0. -1.
         -5    1    1    2    0  502 -0.39203225920E+02  0.12130637406E+03  0.27061373657E+03  0.29916783940E+03  0.41800000000E+01 0. -1.
        -11    1    1    2    0    0  0.46873731679E+02 -0.61292075371E+02  0.26474279568E+03  0.27575825117E+03  0.00000000000E+00 0.  1.
         11    1    1    2    0    0 -0.70050910240E+01 -0.43118986502E+02  0.29193453910E+02  0.52541184307E+02  0.00000000000E+00 0. -1.
</event>
<event>
 6    1  0.6597032E-006  0.1086757E+03  0.7561462E-02  0.1263042E+00
         -2   -1    0    0    0  501 -0.00000000000E+00  0.00000000000E+00  0.11759942577E+03  0.11759942577E+03  0.00000000000E+00 0.  1.
          2   -1    0    0  501    0  0.00000000000E+00 -0.00000000000E+00 -0.13561251456E+03  0.13561251456E+03  0.00000000000E+00 0. -1.
          5    1    1    2  502    0  0.51231338117E+02 -0.47277934466E+02  0.26745991546E+02  0.74784179854E+02  0.41800000000E+01 0. -1.
         -5    1    1    2    0  502 -0.29787147175E+02  0.48439979547E+02  0.25687616561E+02  0.62538242700E+02  0.41800000000E+01 0. -1.
        -11    1    1    2    0    0 -0.53338150161E+02 -0.15472783375E+02 -0.53210670216E+02  0.76913852542E+02  0.00000000000E+00 0.  1.
         11    1    1    2    0    0  0.31893959219E+02  0.14310738293E+02 -0.17236026677E+02  0.38975665238E+02  0.00000000000E+00 0. -1.
</event>
<event>
 6    1  0.6597032E-006  0.2754922E+03  0.7561462E-02  0.1098177E+00
          1   -1    0    0  501    0  0.00000000000E+00  0.00000000000E+00  0.13134472638E+03  0.13134472638E+03  0.00000000000E+00 0. -1.
         -1   -1    0    0    0  501 -0.00000000000E+00 -0.00000000000E+00 -0.68059209633E+03  0.68059209633E+03  0.00000000000E+00 0.  1.
          5    1    1    2  502    0  0.12250942689E+03  0.15671203558E+03 -0.34397610043E+03  0.39737167972E+03  0.41800000000E+01 0. -1.
         -5    1    1    2    0  502  0.81260353906E+02  0.25681641310E+01 -0.75306529615E+02  0.11089809009E+03  0.41800000000E+01 0. -1.
        -11    1    1    2    0    0 -0.92985333225E+02 -0.12269258138E+03 -0.98738282831E+02  0.18289065098E+03  0.00000000000E+00 0.  1.
         11    1    1    2    0    0 -0.11078444757E+03 -0.36587618327E+02 -0.31226457075E+02  0.12077640192E+03  0.00000000000E+00 0. -1.
</event>
<event>
 6    1  0.6597032E-006  0.1521301E+03  0.7561462E-02  0.1197880E+00
         -2   -1    0    0    0  501 -0.00000000000E+00  0.00000000000E+00  0.60174336708E+02  0.60174336708E+02  0.00000000000E+00 0.  1.
          2   -1    0    0  501    0  0.00000000000E+00 -0.00000000000E+00 -0.49148015321E+03  0.49148015321E+03  0.00000000000E+00 0. -1.
          5    1    1    2  502    0  0.17852564863E+02  0.11592297174E+03 -0.64463436632E+02  0.13390241414E+03  0.41800000000E+01 0. -1.
         -5    1    1    2    0  502 -0.48459487592E+02 -0.30878212347E+01 -0.64247602899E+02  0.80641697998E+02  0.41800000000E+01 0. -1.
        -11    1    1    2    0    0  0.54643483522E+02 -0.88086721985E+02 -0.16185366616E+03  0.19220247170E+03  0.00000000000E+00 0.  1.
         11    1    1    2    0    0 -0.24036560793E+02 -0.24748428525E+02 -0.14074111081E+03  0.14490790607E+03  0.00000000000E+00 0. -1.
</event>
<event>
 6    1  0.6597032E-006  0.9536899E+02  0.7561462E-02  0.1290347E+00
         -2   -1    0    0    0  501 -0.00000000000E+00  0.00000000000E+00  0.23408917822E+03  0.23408917822E+03  0.00000000000E+00 0.  1.
          2   -1    0    0  501    0  0.00000000000E+00 -0.00000000000E+00 -0.72869234445E+02  0.72869234445E+02  0.00000000000E+00 0. -1.
          5    1    1    2  502    0  0.77990396567E+02 -0.24060214070E+02  0.50122398830E+02  0.95870345374E+02  0.41800000000E+01 0.  1.
         -5    1    1    2    0  502 -0.39202037031E+02 -0.23003186818E+02  0.93874066523E+02  0.10438275277E+03  0.41800000000E+01 0.  1.
        -11    1    1    2    0    0 -0.16569821435E+01  0.12601222335E+02 -0.33004100876E+02  0.35366750894E+02  0.00000000000E+00 0. -1.
         11    1    1    2    0    0 -0.37131377393E+02  0.34462178553E+02  0.50227579300E+02  0.71338563625E+02  0.00000000000E+00 0.  1.
</event>
<event>
 6    1  0.6597032E-006  0.9177967E+02  0.7561462E-02  0.1298598E+00
         -1   -1    0    0    0  501 -0.00000000000E+00  0.00000000000E+00  0.12707430019E+03  0.12707430019E+03  0.00000000000E+00 0.  1.
          1   -1    0    0  501    0  0.00000000000E+00 -0.00000000000E+00 -0.14081584384E+03  0.14081584384E+03  0.00000000000E+00 0. -1.
          5    1    1    2  502    0 -0.17280444568E+02  0.17261804265E+02  0.53211578167E+02  0.58698620955E+02  0.41800000000E+01 0.  1.
         -5    1    1    2    0  502 -0.51477587077E+02  0.18577282738E+02 -0.70708090224E+02  0.89510691140E+02  0.41800000000E+01 0.  1.
        -11    1    1    2    0    0 -0.12122324043E+02 -0.16945125771E+02 -0.24303434061E+02  0.32011637490E+02  0.00000000000E+00 0. -1.
         11    1    1    2    0    0  0.80880355688E+02 -0.18893961232E+02  0.28058402467E+02  0.87669194454E+02  0.00000000000E+00 0.  1.
</event>
<event>
 6    1  0.6597032E-006  0.1242759E+03  0.7561462E-02  0.1236205E+00
          2   -1    0    0  501    0  0.00000000000E+00  0.00000000000E+00  0.24336181712E+03  0.24336181712E+03  0.00000000000E+00 0. -1.
         -2   -1    0    0    0  501 -0.00000000000E+00 -0.00000000000E+00 -0.93865911216E+02  0.93865911216E+02  0.00000000000E+00 0.  1.
          5    1    1    2  502    0  0.97439407537E+02 -0.63919062750E+02  0.58380981417E+01  0.11675461667E+03  0.41800000000E+01 0.  1.
         -5    1    1    2    0  502  0.98013962558E-01  0.26881943787E+02  0.47375562696E+02  0.54631171041E+02  0.41800000000E+01 0.  1.
        -11    1    1    2    0    0 -0.28450253836E+02  0.15349200376E+02 -0.12920203483E+02  0.34813022758E+02  0.00000000000E+00 0. -1.
         11    1    1    2    0    0 -0.69087167663E+02  0.21687918587E+02  0.10920244855E+03  0.13102891787E+03  0.00000000000E+00 0.  1.
</event>
<event>
 6    1  0.6597032E-006  0.9026660E+02  0.7561462E-02  0.1302207E+00
          2   -1    0    0  501    0  0.00000000000E+00  0.00000000000E+00  0.28296230520E+03  0.28296230520E+03  0.00000000000E+00 0.  1.
         -2   -1    0    0    0  501 -0.00000000000E+00 -0.00000000000E+00 -0.45189791697E+02  0.45189791697E+02  0.00000000000E+00 0. -1.
          5    1    1    2  502    0  0.34212177167E+02 -0.49507069722E+02  0.20910334667E+02  0.63844635756E+02  0.41800000000E+01 0. -1.
         -5    1    1    2    0  502 -0.29216163270E+02  0.24015765100E+02  0.13045920684E+03  0.13589487929E+03  0.41800000000E+01 0.  1.
        -11    1    1    2    0    0 -0.67490882494E+01  0.53586555285E+02  0.22358889970E+02  0.58455017408E+02  0.00000000000E+00 0.  1.
         11    1    1    2    0    0  0.17530743525E+01 -0.28095250663E+02  0.64044082032E+02  0.69957564443E+02  0.00000000000E+00 0. -1.
</event>
<event>
 6    1  0.6597032E-006  0.1562013E+03  0.7561462E-02  0.1193053E+00
          1   -1    0    0  501    0  0.00000000000E+00  0.00000000000E+00  0.53505426701E+03  0.53505426701E+03  0.00000000000E+00 0. -1.
         -1   -1    0    0    0  501 -0.00000000000E+00 -0.00000000000E+00 -0.54918022463E+02  0.54918022463E+02  0.00000000000E+00 0.  1.
          5    1    1    2  502    0 -0.90029080835E+00  0.35763741888E+02  0.17904374896E+02  0.40223063009E+02  0.41800000000E+01 0. -1.
         -5    1    1    2    0  502 -0.11442121424E+03 -0.65442849654E+02  0.12778674319E+03  0.18363524981E+03  0.41800000000E+01 0.  1.
        -11    1    1    2    0    0 -0.57463071864E+01 -0.14523433962E+02  0.15028861809E+02  0.21675259344E+02  0.00000000000E+00 0.  1.
         11    1    1    2    0    0  0.12106781224E+03  0.44202541728E+02  0.31941626465E+03  0.34443871731E+03  0.00000000000E+00 0. -1.
</event>
<event>
 6    1  0.6597032E-006  0.1052470E+03  0.7561462E-02  0.1269634E+00
         -2   -1    0    0    0  501 -0.00000000000E+00  0.00000000000E+00  0.12312016668E+02  0.12312016668E+02  0.00000000000E+00 0.  1.
          2   -1    0    0  501    0  0.00000000000E+00 -0.00000000000E+00 -0.96436412700E+03  0.96436412700E+03  0.00000000000E+00 0. -1.
          5    1    1    2  502    0  0.62346929700E+02 -0.18916933057E+02 -0.35382247638E+03  0.35979550746E+03  0.41800000000E+01 0.  1.
         -5    1    1    2    0  502 -0.52053859551E+02  0.21993189987E+02 -0.18620871771E+03  0.19463931681E+03  0.41800000000E+01 0.  1.
        -11    1    1    2    0    0  0.38029996299E+02 -0.10966992342E+02 -0.12633415110E+03  0.13238909802E+03  0.00000000000E+00 0. -1.
         11    1    1    2    0    0 -0.48323066448E+02  0.78907354121E+01 -0.28568676515E+03  0.28985222138E+03  0.00000000000E+00 0.  1.
</event>
<event>
 6    1  0.6597032E-006  0.2312301E+03  0.7561462E-02  0.1125777E+00
          3   -1    0    0  501    0  0.00000000000E+00  0.00000000000E+00  0.55127560872E+03  0.55127560872E+03  0.00000000000E+00 0. -1.
         -3   -1    0    0    0  501 -0.00000000000E+00 -0.00000000000E+00 -0.15493963226E+03  0.15493963226E+03  0.00000000000E+00 0.  1.
          5    1    1    2  502    0 -0.12499966292E+03  0.10544275984E+03  0.19656120592E+03  0.25572812009E+03  0.41800000000E+01 0. -1.
         -5    1    1    2    0  502  0.10724056084E+03  0.55382232435E+02 -0.57080067780E+02  0.13357895080E+03  0.41800000000E+01 0.  1.
        -11    1    1    2    0    0  0.31736437789E+02 -0.16102805800E+03  0.20185113022E+03  0.26015594499E+03  0.00000000000E+00 0.  1.
         11    1    1    2    0    0 -0.13977335701E+02  0.20306571726E+00  0.55003708099E+02  0.56752225098E+02  0.00000000000E+00 0. -1.
</event>
<event>
 6    1  0.6597032E-006  0.7438713E+02  0.7561462E-02  0.1345779E+00
          2   -1    0    0  501    0  0.00000000000E+00  0.00000000000E+00  0.16591859629E+03  0.16591859629E+03  0.00000000000E+00 0. -1.
         -2   -1    0    0    0  501 -0.00000000000E+00 -0.00000000000E+00 -0.66922123511E+02  0.66922123511E+02  0.00000000000E+00 0.  1.
          5    1    1    2  502    0 -0.60834616240E+02 -0.94542067451E+01  0.75036644550E+02  0.97150414222E+02  0.41800000000E+01 0. -1.
         -5    1    1    2    0  502  0.26892909009E+02  0.60626992014E+01 -0.29199340419E+02  0.40373986148E+02  0.41800000000E+01 0. -1.
        -11    1    1    2    0    0  0.44068909435E+02 -0.70608474485E+01  0.48867794526E+01  0.44897716634E+02  0.00000000000E+00 0.  1.
         11    1    1    2    0    0 -0.10127202205E+02  0.10452354992E+02  0.48272389192E+02  0.50418602794E+02  0.00000000000E+00 0. -1.
</event>
<event>
 6    1  0.6597032E-006  0.8189762E+02  0.7561462E-02  0.1323751E+00
          2   -1    0    0  501    0  0.00000000000E+00  0.00000000000E+00  0.17446285987E+03  0.17446285987E+03  0.00000000000E+00 0. -1.
         -2   -1    0    0    0  501 -0.00000000000E+00 -0.00000000000E+00 -0.82245368389E+02  0.82245368389E+02  0.00000000000E+00 0.  1.
          5    1    1    2  502    0 -0.50494894109E+02 -0.78343259002E+01 -0.42303915909E+02  0.66469577211E+02  0.41800000000E+01 0.  1.
         -5    1    1    2    0  502  0.23410077473E+02 -0.22743302369E+02  0.57167664456E+02  0.65961381044E+02  0.41800000000E+01 0.  1.
        -11    1    1    2    0    0  0.48438772799E+02  0.90099174978E+01  0.98223778333E+01  0.50239152361E+02  0.00000000000E+00 0.  1.
         11    1    1    2    0    0 -0.21353956163E+02  0.21567710772E+02  0.67531365104E+02  0.74038117646E+02  0.00000000000E+00 0. -1.
</event>
<event>
 6    1  0.6597032E-006  0.1603241E+03  0.7561462E-02  0.1188331E+00
         -1   -1    0    0    0  501 -0.00000000000E+00  0.00000000000E+00  0.61631753856E+02  0.61631753856E+02  0.00000000000E+00 0.  1.
          1   -1    0    0  501    0  0.00000000000E+00 -0.00000000000E+00 -0.77240470460E+03  0.77240470460E+03  0.00000000000E+00 0. -1.
          5    1    1    2  502    0 -0.72562104760E+02 -0.57778631400E+02 -0.15236919647E+03  0.17843058518E+03  0.41800000000E+01 0.  1.
         -5    1    1    2    0  502 -0.68667163621E+02  0.55612294105E+01  0.98947122938E+00  0.69025778414E+02  0.41800000000E+01 0.  1.
        -11    1    1    2    0    0  0.97079647477E+02  0.59747930709E+02 -0.49619764109E+03  0.50912314051E+03  0.00000000000E+00 0. -1.
         11    1    1    2    0    0  0.44149620904E+02 -0.75305287203E+01 -0.63195584413E+02  0.77456954356E+02  0.00000000000E+00 0.  1.
</event>
<event>
 6    1  0.6597032E-006  0.1757206E+03  0.7561462E-02  0.1172010E+00
          2   -1    0    0  501    0  0.00000000000E+00  0.00000000000E+00  0.27086539326E+03  0.27086539326E+03  0.00000000000E+00 0. -1.
         -2   -1    0    0    0  501 -0.00000000000E+00 -0.00000000000E+00 -0.13736962685E+03  0.13736962685E+03  0.00000000000E+00 0.  1.
          5    1    1    2  502    0  0.38325530432E+02  0.46018457416E+02  0.66672305055E+02  0.89717408384E+02  0.41800000000E+01 0. -1.
         -5    1    1    2    0  502  0.11392271030E+03 -0.68568689484E+01 -0.21467607902E+02  0.11620555565E+03  0.41800000000E+01 0. -1.
        -11    1    1    2    0    0 -0.14869222978E+03 -0.11306790581E+02  0.55437313338E+02  0.15909279814E+03  0.00000000000E+00 0.  1.
         11    1    1    2    0    0 -0.35560109576E+01 -0.27854797887E+02  0.32853755913E+02  0.43219257940E+02  0.00000000000E+00 0. -1.
</event>
<event>
 6    1  0.6597032E-006  0.1060663E+03  0.7561462E-02  0.1268033E+00
          1   -1    0    0  501    0  0.00000000000E+00  0.00000000000E+00  0.53373586547E+03  0.53373586547E+03  0.00000000000E+00 0. -1.
         -1   -1    0    0    0  501 -0.00000000000E+00 -0.00000000000E+00 -0.23520472133E+02  0.23520472133E+02  0.00000000000E+00 0.  1.
          5    1    1    2  502    0  0.44339101478E+02  0.44182701007E+02  0.17126530386E+03  0.18239337623E+03  0.41800000000E+01 0. -1.
         -5    1    1    2    0  502 -0.54877778741E+02 -0.20933104981E+02  0.78729566829E+02  0.98313694758E+02  0.41800000000E+01 0. -1.
        -11    1    1    2    0    0 -0.30418472822E+02 -0.36457914415E+02  0.10080965258E+03  0.11143181353E+03  0.00000000000E+00 0.  1.
         11    1    1    2    0    0  0.40957150085E+02  0.13208318389E+02  0.15941087006E+03  0.16511745308E+03  0.00000000000E+00 0. -1.
</event>
<event>
 6    1  0.6597032E-006  0.1057617E+03  0.7561462E-02  0.1268626E+00
         -1   -1    0    0    0  501 -0.00000000000E+00  0.00000000000E+00  0.24631303858E+03  0.24631303858E+03  0.00000000000E+00 0.  1.
          1   -1    0    0  501    0  0.00000000000E+00 -0.00000000000E+00 -0.79981961667E+02  0.79981961667E+02  0.00000000000E+00 0. -1.
          5    1    1    2  502    0 -0.19096867776E+02 -0.18740584649E+02  0.12209725339E+03  0.12506442962E+03  0.41800000000E+01 0.  1.
         -5    1    1    2    0  502  0.14980420128E+02  0.76095183276E+02  0.39233743499E+02  0.87015222426E+02  0.41800000000E+01 0.  1.
        -11    1    1    2    0    0  0.46442542025E+02 -0.38975290546E+02 -0.17180322212E+02  0.63017033049E+02  0.00000000000E+00 0. -1.
         11    1    1    2    0    0 -0.42326094376E+02 -0.18379308081E+02  0.22180402237E+02  0.51198315149E+02  0.00000000000E+00 0.  1.
</event>
<event>
 6    1  0.6597032E-006  0.1133339E+03  0.7561462E-02  0.1254518E+00
          2   -1    0    0  501    0  0.00000000000E+00  0.00000000000E+00  0.82147720667E+03  0.82147720667E+03  0.00000000000E+00 0. -1.
         -2   -1    0    0    0  501 -0.00000000000E+00 -0.00000000000E+00 -0.24436871985E+02  0.24436871985E+02  0.00000000000E+00 0.  1.
          5    1    1    2  502    0  0.83056221606E+02  0.26022194206E+02  0.10907082780E+03  0.13960447133E+03  0.41800000000E+01 0. -1.
         -5    1    1    2    0  502 -0.27377904182E+02  0.28789112903E+02  0.18636370641E+03  0.19059713042E+03  0.41800000000E+01 0. -1.
        -11    1    1    2    0    0  0.13710627408E+02 -0.78988827907E+01  0.14513949347E+02  0.21471571413E+02  0.00000000000E+00 0.  1.
         11    1    1    2    0    0 -0.69388944832E+02 -0.46912424318E+02  0.48709185114E+03  0.49424090549E+03  0.00000000000E+00 0. -1.
</event>
<event>
 6    1  0.6597032E-006  0.4557217E+02  0.7561462E-02  0.1470801E+00
          2   -1    0    0  501    0  0.00000000000E+00  0.00000000000E+00  0.30685170624E+03  0.30685170624E+03  0.00000000000E+00 0. -1.
         -2   -1    0    0    0  501 -0.00000000000E+00 -0.00000000000E+00 -0.37768209282E+02  0.37768209282E+02  0.00000000000E+00 0.  1.
          5    1    1    2  502    0  0.10174265879E+02 -0.22206820199E+02  0.14641932219E+03  0.14850167966E+03  0.41800000000E+01 0.  1.
         -5    1    1    2    0  502  0.74190194104E+01  0.45325691074E+01 -0.25496863988E+02  0.27260750264E+02  0.41800000000E+01 0.  1.
        -11    1    1    2    0    0  0.16557445502E+02 -0.29536654322E+01  0.15217451318E+01  0.16887535323E+02  0.00000000000E+00 0.  1.
         11    1    1    2    0    0 -0.34150730791E+02  0.20627916524E+02  0.14663929362E+03  0.15196995028E+03  0.00000000000E+00 0. -1.
</event>
<event>
 6    1  0.6597032E-006  0.6415649E+02  0.7561462E-02  0.1381173E+00
          1   -1    0    0  501    0  0.00000000000E+00  0.00000000000E+00  0.20872223886E+02  0.20872223886E+02  0.00000000000E+00 0. -1.
         -1   -1    0    0    0  501 -0.00000000000E+00 -0.00000000000E+00 -0.79477024627E+03  0.79477024627E+03  0.00000000000E+00 0.  1.
          5    1    1    2  502    0  0.15268591525E+02 -0.17469651762E+02 -0.12573588012E+02  0.26718647708E+02  0.41800000000E+01 0.  1.
         -5    1    1    2    0  502  0.26451750962E+02 -0.94341458427E+00 -0.58062821589E+03  0.58124623238E+03  0.41800000000E+01 0.  1.
        -11    1    1    2    0    0 -0.56310795237E+02  0.25211061636E+01 -0.17703908649E+03  0.18579585513E+03  0.00000000000E+00 0.  1.
         11    1    1    2    0    0  0.14590452750E+02  0.15891960182E+02 -0.36571319882E+01  0.21881734946E+02  0.00000000000E+00 0. -1.
</event>
<event>
 6    1  0.6597032E-006  0.8573989E+02  0.7561462E-02  0.1313509E+00
          1   -1    0    0  501    0  0.00000000000E+00  0.00000000000E+00  0.14679868905E+03  0.14679868905E+03  0.00000000000E+00 0. -1.
         -1   -1    0    0    0  501 -0.00000000000E+00 -0.00000000000E+00 -0.10108486923E+03  0.10108486923E+03  0.00000000000E+00 0.  1.
          5    1    1    2  502    0  0.62393678790E+02  0.23908348091E+02  0.42580819219E+02  0.79342162983E+02  0.41800000000E+01 0. -1.
         -5    1    1    2    0  502 -0.33254657493E+02  0.18191770207E+02 -0.43267557595E+02  0.57674662448E+02  0.41800000000E+01 0.  1.
        -11    1    1    2    0    0 -0.28316604378E+02 -0.43633212334E+01 -0.19684771525E+02  0.34761456898E+02  0.00000000000E+00 0.  1.
         11    1    1    2    0    0 -0.82241691867E+00 -0.37736797065E+02  0.66085329720E+02  0.76105275943E+02  0.00000000000E+00 0. -1.
</event>
<event>
 6    1  0.6597032E-006  0.1771591E+03  0.7561462E-02  0.1170581E+00
         -1   -1    0    0    0  501 -0.00000000000E+00  0.00000000000E+00  0.11766191974E+03  0.11766191974E+03  0.00000000000E+00 0.  1.
          1   -1    0    0  501    0  0.00000000000E+00 -0.00000000000E+00 -0.38101620572E+03  0.38101620572E+03  0.00000000000E+00 0. -1.
          5    1    1    2  502    0  0.54097045441E+02  0.27428753030E+02  0.28383636692E+02  0.67096423527E+02  0.41800000000E+01 0. -1.
         -5    1    1    2    0  502  0.80264261252E+02 -0.89248296006E+02 -0.41429600202E+02  0.12704918003E+03  0.41800000000E+01 0. -1.
        -11    1    1    2    0    0 -0.53293425181E+02 -0.21223768268E+02 -0.85734247322E+02  0.10315521640E+03  0.00000000000E+00 0. -1.
         11    1    1    2    0    0 -0.81067881512E+02  0.83043311244E+02 -0.16457407516E+03  0.20137730550E+03  0.00000000000E+00 0.  1.
</event>
<event>
 6    1  0.6597032E-006  0.1054595E+03  0.7561462E-02  0.1269217E+00
         -3   -1    0    0    0  501 -0.00000000000E+00  0.00000000000E+00  0.92128898447E+02  0.92128898447E+02  0.00000000000E+00 0.  1.
          3   -1    0    0  501    0  0.00000000000E+00 -0.00000000000E+00 -0.16180746961E+03  0.16180746961E+03  0.00000000000E+00 0. -1.
          5    1    1    2  502    0 -0.76463595752E+02  0.44078755563E+02 -0.66280865726E+02  0.11045471347E+03  0.41800000000E+01 0. -1.
         -5    1    1    2    0  502  0.32771242168E+02 -0.10168214935E+02  0.12148492412E+02  0.36638847909E+02  0.41800000000E+01 0. -1.
        -11    1    1    2    0    0 -0.16307373859E+02 -0.21058303648E+02  0.22310324522E+02  0.34743822112E+02  0.00000000000E+00 0.  1.
         11    1    1    2    0    0  0.59999727443E+02 -0.12852236980E+02 -0.37856522369E+02  0.72098984559E+02  0.00000000000E+00 0. -1.
</event>
<event>
 6    1  0.6597032E-006  0.8265930E+02  0.7561462E-02  0.1321670E+00
          1   -1    0    0  501    0  0.00000000000E+00  0.00000000000E+00  0.10888376106E+03  0.10888376106E+03  0.00000000000E+00 0. -1.
         -1   -1    0    0    0  501 -0.00000000000E+00 -0.00000000000E+00 -0.13195444534E+03  0.13195444534E+03  0.00000000000E+00 0.  1.
          5    1    1    2  502    0  0.42322951839E+02  0.29436340817E+02  0.28952879392E+02  0.59274547979E+02  0.41800000000E+01 0.  1.
         -5    1    1    2    0  502  0.10299058294E+01 -0.43976207777E+02 -0.65189789276E+02  0.78753721070E+02  0.41800000000E+01 0.  1.
        -11    1    1    2    0    0 -0.52854620189E+02  0.99432557505E+00 -0.27006786974E+02  0.59363002799E+02  0.00000000000E+00 0.  1.
         11    1    1    2    0    0  0.95017625212E+01  0.13545541385E+02  0.40173012577E+02  0.43446934551E+02  0.00000000000E+00 0. -1.
</event>
<event>
 6    1  0.6597032E-006  0.8233695E+02  0.7561462E-02  0.1322547E+00
          2   -1    0    0  501    0  0.00000000000E+00  0.00000000000E+00  0.21463855070E+03  0.21463855070E+03  0.00000000000E+00 0. -1.
         -2   -1    0    0    0  501 -0.00000000000E+00 -0.00000000000E+00 -0.83013219339E+02  0.83013219339E+02  0.00000000000E+00 0.  1.
          5    1    1    2  502    0 -0.94247586953E+01  0.21247760952E+02  0.60391931860E+02  0.64845595500E+02  0.41800000000E+01 0. -1.
         -5    1    1    2    0  502 -0.37154494268E+02 -0.90647249945E+01 -0.56763875022E+02  0.68572848789E+02  0.41800000000E+01 0.  1.
        -11    1    1    2    0    0  0.56150463696E+02  0.26960860348E+02  0.71316736462E+02  0.94688116802E+02  0.00000000000E+00 0.  1.
         11    1    1    2    0    0 -0.95712107325E+01 -0.39143896306E+02  0.56680538060E+02  0.69545208948E+02  0.00000000000E+00 0. -1.
</event>
<event>
 6    1  0.6597032E-006  0.1126916E+03  0.7561462E-02  0.1255665E+00
          2   -1    0    0  501    0  0.00000000000E+00  0.00000000000E+00  0.50069506817E+03  0.50069506817E+03  0.00000000000E+00 0. -1.
         -2   -1    0    0    0  501 -0.00000000000E+00 -0.00000000000E+00 -0.37566128609E+02  0.37566128609E+02  0.00000000000E+00 0.  1.
          5    1    1    2  502    0  0.74312590651E+02  0.77392964928E+01  0.34621245858E+02  0.82452173435E+02  0.41800000000E+01 0.  1.
         -5    1    1    2    0  502 -0.25739986993E+02  0.29054966256E+02  0.11698379752E+03  0.12332647436E+03  0.41800000000E+01 0.  1.
        -11    1    1    2    0    0  0.10103686171E+02  0.24595321547E+02  0.12104226816E+03  0.12392838657E+03  0.00000000000E+00 0.  1.
         11    1    1    2    0    0 -0.58676289829E+02 -0.61389584295E+02  0.19048162802E+03  0.20855416242E+03  0.00000000000E+00 0. -1.
</event>
<event>
 6    1  0.6597032E-006  0.1080127E+03  0.7561462E-02  0.1264295E+00
         -2   -1    0    0    0  501 -0.00000000000E+00  0.00000000000E+00  0.10174448584E+03  0.10174448584E+03  0.00000000000E+00 0.  1.
          2   -1    0    0  501    0  0.00000000000E+00 -0.00000000000E+00 -0.12872066420E+03  0.12872066420E+03  0.00000000000E+00 0. -1.
          5    1    1    2  502    0  0.45330105975E+02  0.61027209772E+02 -0.23993090736E+02  0.79826559761E+02  0.41800000000E+01 0. -1.
         -5    1    1    2    0  502 -0.32182676462E+02 -0.30513107437E+02  0.21860583884E+02  0.49619874219E+02  0.41800000000E+01 0. -1.
        -11    1    1    2    0    0 -0.11319995674E+02 -0.62394081845E+02 -0.54221956018E+01  0.63644041013E+02  0.00000000000E+00 0.  1.
         11    1    1    2    0    0 -0.18274338394E+01  0.31879979511E+02 -0.19421475904E+02  0.37374675040E+02  0.00000000000E+00 0. -1.
</event>
<event>
 6    1  0.6597032E-006  0.1818396E+03  0.7561462E-02  0.1166034E+00
          2   -1    0    0  501    0  0.00000000000E+00  0.00000000000E+00  0.14623460656E+04  0.14623460656E+04  0.00000000000E+00 0.  1.
         -2   -1    0    0    0  501 -0.00000000000E+00 -0.00000000000E+00 -0.25861870390E+02  0.25861870390E+02  0.00000000000E+00 0. -1.
          5    1    1    2  502    0  0.77315349610E+02 -0.85390422531E+01  0.19438428928E+03  0.20941180207E+03  0.41800000000E+01 0.  1.
         -5    1    1    2    0  502  0.57530898794E+02  0.95701381851E+02  0.62240060138E+03  0.63235159508E+03  0.41800000000E+01 0.  1.
        -11    1    1    2    0    0 -0.77324850813E+02 -0.87164095810E+02  0.50325382147E+03  0.51656666654E+03  0.00000000000E+00 0.  1.
         11    1    1    2    0    0 -0.57521397591E+02  0.17562121378E-02  0.11644548309E+03  0.12987787231E+03  0.00000000000E+00 0. -1.
</event>
<event>
 6    1  0.6597032E-006  0.1215464E+03  0.7561462E-02  0.1240568E+00
          2   -1    0    0  501    0  0.00000000000E+00  0.00000000000E+00  0.59488424842E+03  0.59488424842E+03  0.00000000000E+00 0. -1.
         -2   -1    0    0    0  501 -0.00000000000E+00 -0.00000000000E+00 -0.56131203150E+02  0.56131203150E+02  0.00000000000E+00 0.  1.
          5    1    1    2  502    0  0.13230701111E+02 -0.46080913795E+01 -0.26978076461E+02  0.30685093573E+02  0.41800000000E+01 0.  1.
         -5    1    1    2    0  502  0.82171235952E+02  0.52663040717E+02  0.13298552351E+03  0.16500948378E+03  0.41800000000E+01 0.  1.
        -11    1    1    2    0    0 -0.10503003488E+03 -0.28250152715E+02  0.40775978978E+03  0.42201590671E+03  0.00000000000E+00 0. -1.
         11    1    1    2    0    0  0.96280978204E+01 -0.19804796622E+02  0.24985808442E+02  0.33304967503E+02  0.00000000000E+00 0.  1.
</event>
<event>
 6    1  0.6597032E-006  0.4018394E+02  0.7561462E-02  0.1506862E+00
         -2   -1    0    0    0  501 -0.00000000000E+00  0.00000000000E+00  0.60933330220E+02  0.60933330220E+02  0.00000000000E+00 0.  1.
          2   -1    0    0  501    0  0.00000000000E+00 -0.00000000000E+00 -0.21311198194E+03  0.21311198194E+03  0.00000000000E+00 0. -1.
          5    1    1    2  502    0  0.67043507011E+01  0.17085087671E+02 -0.89134241843E+02  0.91100131767E+02  0.41800000000E+01 0. -1.
         -5    1    1    2    0  502  0.14257520206E+02 -0.22034336306E+02  0.37473797347E+02  0.45940687266E+02  0.41800000000E+01 0. -1.
        -11    1    1    2    0    0 -0.16700129000E+02  0.15998187682E+02 -0.11556509075E+03  0.11785638090E+03  0.00000000000E+00 0. -1.
         11    1    1    2    0    0 -0.42617419065E+01 -0.11048939047E+02  0.15046883528E+02  0.19148112232E+02  0.00000000000E+00 0.  1.
</event>
<event>
 6    1  0.6597032E-006  0.1637942E+03  0.7561462E-02  0.1184478E+00
         -2   -1    0    0    0  501 -0.00000000000E+00  0.00000000000E+00  0.13870566087E+04  0.13870566087E+04  0.00000000000E+00 0.  1.
          2   -1    0    0  501    0  0.00000000000E+00 -0.00000000000E+00 -0.19742795393E+02  0.19742795393E+02  0.00000000000E+00 0. -1.
          5    1    1    2  502    0 -0.17020877733E+00 -0.40244558004E+02  0.16040195356E+03  0.16542645655E+03  0.41800000000E+01 0. -1.
         -5    1    1    2    0  502 -0.12002027471E+03  0.57622025960E+02  0.65407880573E+03  0.66750409791E+03  0.41800000000E+01 0. -1.
        -11    1    1    2    0    0  0.85375863938E+02  0.33972123236E+02  0.32483125976E+03  0.33757738463E+03  0.00000000000E+00 0.  1.
         11    1    1    2    0    0  0.34814619546E+02 -0.51349591192E+02  0.22800179428E+03  0.23629146503E+03  0.00000000000E+00 0. -1.
</event>
<event>
 6    1  0.6597032E-006  0.1164975E+03  0.7561462E-02  0.1248990E+00
          2   -1    0    0  501    0  0.00000000000E+00  0.00000000000E+00  0.87571730165E+02  0.87571730165E+02  0.00000000000E+00 0. -1.
         -2   -1    0    0    0  501 -0.00000000000E+00 -0.00000000000E+00 -0.20738983207E+03  0.20738983207E+03  0.00000000000E+00 0.  1.
          5    1    1    2  502    0 -0.28013676052E+02 -0.25219144770E+02 -0.11221627801E+02  0.39549571924E+02  0.41800000000E+01 0.  1.
         -5    1    1    2    0  502  0.84678375448E+02  0.36276798682E+02 -0.11398757438E+03  0.14661880133E+03  0.41800000000E+01 0.  1.
        -11    1    1    2    0    0 -0.61368975656E+02  0.25164325397E+02  0.20265095831E+02  0.69354657773E+02  0.00000000000E+00 0.  1.
         11    1    1    2    0    0  0.47042762591E+01 -0.36221979309E+02 -0.14873995562E+02  0.39438531212E+02  0.00000000000E+00 0. -1.
</event>
<event>
 6    1  0.6597032E-006  0.2618361E+03  0.7561462E-02  0.1106045E+00
         -1   -1    0    0    0  501 -0.00000000000E+00  0.00000000000E+00  0.10878639460E+03  0.10878639460E+03  0.00000000000E+00 0.  1.
          1   -1    0    0  501    0  0.00000000000E+00 -0.00000000000E+00 -0.10776801950E+04  0.10776801950E+04  0.00000000000E+00 0. -1.
          5    1    1    2  502    0 -0.85947656823E+02 -0.11997787636E+03 -0.16928357584E+02  0.14861269198E+03  0.41800000000E+01 0. -1.
         -5    1    1    2    0  502 -0.74970264545E+02 -0.84881326028E+02 -0.14036097303E+03  0.18039970960E+03  0.41800000000E+01 0. -1.
        -11    1    1    2    0    0  0.94796775428E+02  0.93239384330E+02 -0.27596863626E+03  0.30633102948E+03  0.00000000000E+00 0.  1.
         11    1    1    2    0    0  0.66121145940E+02  0.11161981805E+03 -0.53563583357E+03  0.55112315859E+03  0.00000000000E+00 0. -1.
</event>
<event>
 6    1  0.6597032E-006  0.8285193E+02  0.7561462E-02  0.1321147E+00
          1   -1    0    0  501    0  0.00000000000E+00  0.00000000000E+00  0.20159508178E+02  0.20159508178E+02  0.00000000000E+00 0. -1.
         -1   -1    0    0    0  501 -0.00000000000E+00 -0.00000000000E+00 -0.60838582737E+03  0.60838582737E+03  0.00000000000E+00 0.  1.
          5    1    1    2  502    0  0.23143164945E+02 -0.32401383011E+02 -0.34328175570E+03  0.34560858192E+03  0.41800000000E+01 0. -1.
         -5    1    1    2    0  502 -0.28843171514E+02  0.39490701870E+02 -0.64661431262E+02  0.81178920724E+02  0.41800000000E+01 0. -1.
        -11    1    1    2    0    0  0.39944373248E+02 -0.12637166578E+02 -0.42514438189E+02  0.59688595124E+02  0.00000000000E+00 0. -1.
         11    1    1    2    0    0 -0.34244366679E+02  0.55478477192E+01 -0.13776869404E+03  0.14206923777E+03  0.00000000000E+00 0.  1.
</event>
<event>
 6    1  0.6597032E-006  0.8601484E+02  0.7561462E-02  0.1312800E+00
         -1   -1    0    0    0  501 -0.00000000000E+00  0.00000000000E+00  0.10505303272E+04  0.10505303272E+04  0.00000000000E+00 0.  1.
          1   -1    0    0  501    0  0.00000000000E+00 -0.00000000000E+00 -0.17312685131E+02  0.17312685131E+02  0.00000000000E+00 0. -1.
          5    1    1    2  502    0  0.35255400899E+02  0.24371723570E+02  0.70637587428E+03  0.70768727018E+03  0.41800000000E+01 0.  1.
         -5    1    1    2    0  502  0.26546800277E+01  0.44117855758E+01 -0.37184953131E+01  0.76033404113E+01  0.41800000000E+01 0.  1.
        -11    1    1    2    0    0  0.39688946049E+02 -0.19381340400E+02  0.12997833901E+03  0.13727788389E+03  0.00000000000E+00 0.  1.
         11    1    1    2    0    0 -0.77599026976E+02 -0.94021687451E+01  0.20058192411E+03  0.21527451787E+03  0.00000000000E+00 0. -1.
</event>
<event>
 6    1  0.6597032E-006  0.1677163E+03  0.7561462E-02  0.1180250E+00
          1   -1    0    0  501    0  0.00000000000E+00  0.00000000000E+00  0.37493475315E+03  0.37493475315E+03  0.00000000000E+00 0. -1.
         -1   -1    0    0    0  501 -0.00000000000E+00 -0.00000000000E+00 -0.10828693904E+03  0.10828693904E+03  0.00000000000E+00 0.  1.
          5    1    1    2  502    0  0.63413778510E+02  0.32095768787E+02  0.36293531442E+02  0.79913318687E+02  0.41800000000E+01 0.  1.
         -5    1    1    2    0  502  0.69021268390E+02 -0.92391726225E+02  0.12499051359E+00  0.11540214291E+03  0.41800000000E+01 0.  1.
        -11    1    1    2    0    0 -0.44820259018E+02  0.46934716566E+01  0.12584329385E+02  0.46789418042E+02  0.00000000000E+00 0.  1.
         11    1    1    2    0    0 -0.87614787882E+02  0.55602485782E+02  0.21764496277E+03  0.24111681256E+03  0.00000000000E+00 0. -1.
</event>
<event>
 6    1  0.6597032E-006  0.1011410E+03  0.7561462E-02  0.1277915E+00
          1   -1    0    0  501    0  0.00000000000E+00  0.00000000000E+00  0.47009819573E+03  0.47009819573E+03  0.00000000000E+00 0. -1.
         -1   -1    0    0    0  501 -0.00000000000E+00 -0.00000000000E+00 -0.27909535702E+02  0.27909535702E+02  0.00000000000E+00 0.  1.
          5    1    1    2  502    0 -0.66941253823E+00  0.35393502984E+02  0.15888849582E+03  0.16283787849E+03  0.41800000000E+01 0.  1.
         -5    1    1    2    0  502  0.11123308025E+01 -0.72411331523E+02  0.71108683338E+02  0.10158029070E+03  0.41800000000E+01 0.  1.
        -11    1    1    2    0    0  0.37756430167E+02 -0.40926384110E+01  0.56360320665E+02  0.67961632217E+02  0.00000000000E+00 0.  1.
         11    1    1    2    0    0 -0.38199348432E+02  0.41110466950E+02  0.15583116020E+03  0.16562793002E+03  0.00000000000E+00 0. -1.
</event>
<event>
 6    1  0.6597032E-006  0.6377834E+02  0.7561462E-02  0.1382627E+00
          2   -1    0    0  501    0  0.00000000000E+00  0.00000000000E+00  0.31409068353E+03  0.31409068353E+03  0.00000000000E+00 0. -1.
         -2   -1    0    0    0  501 -0.00000000000E+00 -0.00000000000E+00 -0.48474287772E+02  0.48474287772E+02  0.00000000000E+00 0.  1.
          5    1    1    2  502    0  0.21225405717E+01  0.15604515371E+02  0.12825148717E+03  0.12928233615E+03  0.41800000000E+01 0.  1.
         -5    1    1    2    0  502 -0.54330497589E+02  0.38546252644E+01 -0.51285940514E+01  0.54867440082E+02  0.41800000000E+01 0.  1.
        -11    1    1    2    0    0  0.32619128055E+02 -0.17315621943E+02  0.15208113167E+03  0.15650082711E+03  0.00000000000E+00 0. -1.
         11    1    1    2    0    0  0.19588828963E+02 -0.21435186928E+01 -0.95876290301E+01  0.21914367957E+02  0.00000000000E+00 0.  1.
</event>
<event>
 6    1  0.6597032E-006  0.1022154E+03  0.7561462E-02  0.1275705E+00
         -2   -1    0    0    0  501 -0.00000000000E+00  0.00000000000E+00  0.51622064902E+02  0.51622064902E+02  0.00000000000E+00 0.  1.
          2   -1    0    0  501    0  0.00000000000E+00 -0.00000000000E+00 -0.35207833572E+03  0.35207833572E+03  0.00000000000E+00 0. -1.
          5    1    1    2  502    0  0.29104045194E+02  0.60117320374E+02 -0.18803027837E+01  0.66948828176E+02  0.41800000000E+01 0. -1.
         -5    1    1    2    0  502 -0.37169836122E+01  0.23905291188E+02 -0.13816436400E+03  0.14032869555E+03  0.41800000000E+01 0. -1.
        -11    1    1    2    0    0  0.24212607709E+02 -0.17030197368E+02 -0.35042682383E+02  0.45872296466E+02  0.00000000000E+00 0.  1.
         11    1    1    2    0    0 -0.49599669291E+02 -0.66992414194E+02 -0.12536892165E+03  0.15055058044E+03  0.00000000000E+00 0. -1.
</event>
<event>
 6    1  0.6597032E-006  0.9951515E+02  0.7561462E-02  0.1281319E+00
          2   -1    0    0  501    0  0.00000000000E+00  0.00000000000E+00  0.98827021305E+03  0.98827021305E+03  0.00000000000E+00 0. -1.
         -2   -1    0    0    0  501 -0.00000000000E+00 -0.00000000000E+00 -0.19372265702E+02  0.19372265702E+02  0.00000000000E+00 0.  1.
          5    1    1    2  502    0  0.10057920546E+02  0.62354647952E+02  0.48497801444E+03  0.48909141352E+03  0.41800000000E+01 0. -1.
         -5    1    1    2    0  502  0.23680390228E+02  0.12614433109E+02  0.11549004411E+02  0.29508248116E+02  0.41800000000E+01 0. -1.
        -11    1    1    2    0    0 -0.44775520882E+02 -0.83419421224E+02  0.46225496669E+03  0.47185093126E+03  0.00000000000E+00 0. -1.
         11    1    1    2    0    0  0.11037210108E+02  0.84503401632E+01  0.10115961807E+02  0.17191885851E+02  0.00000000000E+00 0.  1.
</event>
<event>
 6    1  0.6597032E-006  0.1071548E+03  0.7561462E-02  0.1265931E+00
          2   -1    0    0  501    0  0.00000000000E+00  0.00000000000E+00  0.30977679013E+03  0.30977679013E+03  0.00000000000E+00 0. -1.
         -2   -1    0    0    0  501 -0.00000000000E+00 -0.00000000000E+00 -0.47901500966E+02  0.47901500966E+02  0.00000000000E+00 0.  1.
          5    1    1    2  502    0  0.55026553563E+02  0.63515911226E+01  0.15384716311E+02  0.57640491001E+02  0.41800000000E+01 0.  1.
         -5    1    1    2    0  502 -0.66133361599E+02 -0.10082282549E+02  0.52653459787E+02  0.85235750512E+02  0.41800000000E+01 0.  1.
        -11    1    1    2    0    0 -0.39286389900E+02  0.11048586623E+02  0.10065960879E+03  0.10861790156E+03  0.00000000000E+00 0.  1.
         11    1    1    2    0    0  0.50393197936E+02 -0.73178951970E+01  0.93177504273E+02  0.10618414802E+03  0.00000000000E+00 0. -1.
</event>
<event>
 6    1  0.6597032E-006  0.1042947E+03  0.7561462E-02  0.1271515E+00
          2   -1    0    0  501    0  0.00000000000E+00  0.00000000000E+00  0.46410534716E+03  0.46410534716E+03  0.00000000000E+00 0. -1.
         -2   -1    0    0    0  501 -0.00000000000E+00 -0.00000000000E+00 -0.29705754127E+02  0.29705754127E+02  0.00000000000E+00 0.  1.
          5    1    1    2  502    0  0.29013594182E+02 -0.58841881235E+02  0.13581626910E+03  0.15088965169E+03  0.41800000000E+01 0. -1.
         -5    1    1    2    0  502 -0.55899672672E+02  0.12319321352E+02  0.78983031712E+02  0.97633655989E+02  0.41800000000E+01 0.  1.
        -11    1    1    2    0    0 -0.22247294688E+02  0.10936368784E+02  0.94073396388E+01  0.26514982975E+02  0.00000000000E+00 0.  1.
         11    1    1    2    0    0  0.49133373178E+02  0.35586191099E+02  0.21019295258E+03  0.21877281063E+03  0.00000000000E+00 0. -1.
</event>
<event>
 6    1  0.6597032E-006  0.1022658E+03  0.7561462E-02  0.1275602E+00
         -2   -1    0    0    0  501 -0.00000000000E+00  0.00000000000E+00  0.43155924997E+02  0.43155924997E+02  0.00000000000E+00 0.  1.
          2   -1    0    0  501    0  0.00000000000E+00 -0.00000000000E+00 -0.37756549829E+03  0.37756549829E+03  0.00000000000E+00 0. -1.
          5    1    1    2  502    0 -0.36684559740E+02 -0.29812329339E+02 -0.36704057534E+02  0.59993267484E+02  0.41800000000E+01 0.  1.
         -5    1    1    2    0  502  0.73552532122E+02  0.38678171908E+02 -0.58071557452E+02  0.10146799569E+03  0.41800000000E+01 0.  1.
        -11    1    1    2    0    0  0.71884835360E+01  0.19963526225E+02 -0.96200827859E+01  0.23297267386E+02  0.00000000000E+00 0.  1.
         11    1    1    2    0    0 -0.44056455918E+02 -0.28829368793E+02 -0.23001387552E+03  0.23596289273E+03  0.00000000000E+00 0. -1.
</event>
<event>
 6    1  0.6597032E-006  0.1015220E+03  0.7561462E-02  0.1277128E+00
         -2   -1    0    0    0  501 -0.00000000000E+00  0.00000000000E+00  0.56832498586E+02  0.56832498586E+02  0.00000000000E+00 0.  1.
          2   -1    0    0  501    0  0.00000000000E+00 -0.00000000000E+00 -0.41233247984E+03  0.41233247984E+03  0.00000000000E+00 0. -1.
          5    1    1    2  502    0  0.16805015961E+02  0.81390054729E+02 -0.19766363673E+01  0.83235383471E+02  0.41800000000E+01 0.  1.
         -5    1    1    2    0  502  0.27653849441E+02 -0.24654710875E+02 -0.67206860222E+02  0.76855869120E+02  0.41800000000E+01 0.  1.
        -11    1    1    2    0    0 -0.50974757231E+02 -0.40666187992E+02 -0.28422350505E+03  0.29160789691E+03  0.00000000000E+00 0. -1.
         11    1    1    2    0    0  0.65158918286E+01 -0.16069155862E+02 -0.20929796232E+01  0.17465828928E+02  0.00000000000E+00 0.  1.
</event>
<event>
 6    1  0.6597032E-006  0.1096429E+03  0.7561462E-02  0.1261233E+00
         -1   -1    0    0    0  501 -0.00000000000E+00  0.00000000000E+00  0.32114507795E+03  0.32114507795E+03  0.00000000000E+00 0.  1.
          1   -1    0    0  501    0  0.00000000000E+00 -0.00000000000E+00 -0.54642426318E+02  0.54642426318E+02  0.00000000000E+00 0. -1.
          5    1    1    2  502    0 -0.28841633399E+02 -0.68386392230E+02  0.18971513668E+03  0.20375927940E+03  0.41800000000E+01 0.  1.
         -5    1    1    2    0  502  0.30196370305E+02 -0.72696223923E+01 -0.50803797619E+01  0.31748241650E+02  0.41800000000E+01 0.  1.
        -11    1    1    2    0    0 -0.42755631557E+02  0.45162623262E+02  0.39703314442E+02  0.73783871865E+02  0.00000000000E+00 0. -1.
         11    1    1    2    0    0  0.41400894652E+02  0.30493391360E+02  0.42164580275E+02  0.66496111347E+02  0.00000000000E+00 0.  1.
</event>
<event>
 6    1  0.6597032E-006  0.1847428E+03  0.7561462E-02  0.1163290E+00
          2   -1    0    0  501    0  0.00000000000E+00  0.00000000000E+00  0.15652487639E+04  0.15652487639E+04  0.00000000000E+00 0. -1.
         -2   -1    0    0    0  501 -0.00000000000E+00 -0.00000000000E+00 -0.25823024445E+02  0.25823024445E+02  0.00000000000E+00 0.  1.
          5    1    1    2  502    0  0.92977915390E+02  0.29157582123E+02  0.23537725976E+03  0.25478419134E+03  0.41800000000E+01 0.  1.
         -5    1    1    2    0  502  0.12897828253E+02  0.99025737155E+02  0.47672182454E+03  0.48708687211E+03  0.41800000000E+01 0.  1.
        -11    1    1    2    0    0 -0.86412335679E+01 -0.39390558859E+02  0.72375555951E+02  0.82852327330E+02  0.00000000000E+00 0.  1.
         11    1    1    2    0    0 -0.97234510075E+02 -0.88792760419E+02  0.75495109925E+03  0.76634839760E+03  0.00000000000E+00 0. -1.
</event>
<event>
 6    1  0.6597032E-006  0.1217571E+03  0.7561462E-02  0.1240226E+00
         -2   -1    0    0    0  501 -0.00000000000E+00  0.00000000000E+00  0.33814605696E+03  0.33814605696E+03  0.00000000000E+00 0.  1.
          2   -1    0    0  501    0  0.00000000000E+00 -0.00000000000E+00 -0.63496684888E+02  0.63496684888E+02  0.00000000000E+00 0. -1.
          5    1    1    2  502    0  0.36185516157E+01 -0.42073874410E+02  0.74681313229E+01  0.43087703688E+02  0.41800000000E+01 0.  1.
         -5    1    1    2    0  502 -0.91796749726E+02  0.56785309656E+01  0.17570869108E+03  0.19836810604E+03  0.41800000000E+01 0.  1.
        -11    1    1    2    0    0  0.23077308329E+02  0.37349157907E+02  0.83831592796E+02  0.94632223407E+02  0.00000000000E+00 0.  1.
         11    1    1    2    0    0  0.65100889781E+02 -0.95381446316E+00  0.76409568751E+01  0.65554708712E+02  0.00000000000E+00 0. -1.
</event>
<event>
 6    1  0.6597032E-006  0.9056864E+02  0.7561462E-02  0.1301480E+00
          2   -1    0    0  501    0  0.00000000000E+00  0.00000000000E+00  0.53531859517E+03  0.53531859517E+03  0.00000000000E+00 0. -1.
         -2   -1    0    0    0  501 -0.00000000000E+00 -0.00000000000E+00 -0.23379834896E+02  0.23379834896E+02  0.00000000000E+00 0.  1.
          5    1    1    2  502    0 -0.10404894114E+01 -0.40744889481E+02  0.22639030806E+03  0.23006797391E+03  0.41800000000E+01 0.  1.
         -5    1    1    2    0  502 -0.11029839970E+02  0.62599054045E+02  0.83310990202E+02  0.10487369749E+03  0.41800000000E+01 0.  1.
        -11    1    1    2    0    0 -0.23782956838E+02 -0.31373598288E+02  0.35724375706E+02  0.53161665936E+02  0.00000000000E+00 0.  1.
         11    1    1    2    0    0  0.35853286218E+02  0.95194337248E+01  0.16651308631E+03  0.17059509273E+03  0.00000000000E+00 0. -1.
</event>
<event>
 6    1  0.6597032E-006  0.9457818E+02  0.7561462E-02  0.1292129E+00
         -3   -1    0    0    0  501 -0.00000000000E+00  0.00000000000E+00  0.73644761750E+03  0.73644761750E+03  0.00000000000E+00 0.  1.
          3   -1    0    0  501    0  0.00000000000E+00 -0.00000000000E+00 -0.83021642480E+02  0.83021642480E+02  0.00000000000E+00 0. -1.
          5    1    1    2  502    0  0.51756880256E+02 -0.57053634498E+01  0.96813680053E+02  0.11000766733E+03  0.41800000000E+01 0. -1.
         -5    1    1    2    0  502 -0.42409310647E+01  0.30820611148E+02  0.59526334006E+03  0.59609043944E+03  0.41800000000E+01 0.  1.
        -11    1    1    2    0    0  0.24002559358E+02 -0.24083366576E+02 -0.51550197258E+01  0.34390487489E+02  0.00000000000E+00 0.  1.
         11    1    1    2    0    0 -0.71518508549E+02 -0.10318811225E+01 -0.33496025364E+02  0.78980665729E+02  0.00000000000E+00 0. -1.
</event>
<event>
 6    1  0.6597032E-006  0.1889731E+03  0.7561462E-02  0.1159391E+00
          2   -1    0    0  501    0  0.00000000000E+00  0.00000000000E+00  0.43025287854E+03  0.43025287854E+03  0.00000000000E+00 0. -1.
         -2   -1    0    0    0  501 -0.00000000000E+00 -0.00000000000E+00 -0.21974032694E+03  0.21974032694E+03  0.00000000000E+00 0.  1.
          5    1    1    2  502    0 -0.97876243775E+02  0.12065534080E+03 -0.77640031434E+02  0.17373231490E+03  0.41800000000E+01 0. -1.
         -5    1    1    2    0  502  0.91209121566E+02 -0.84385692728E+02 -0.42438866296E+02  0.13137191011E+03  0.41800000000E+01 0.  1.
        -11    1    1    2    0    0  0.44731029970E+02  0.12550999206E+01  0.14398917557E+03  0.15078236966E+03  0.00000000000E+00 0.  1.
         11    1    1    2    0    0 -0.38063907761E+02 -0.37524747991E+02  0.18660227377E+03  0.19410661081E+03  0.00000000000E+00 0. -1.
</event>
<event>
 6    1  0.6597032E-006  0.2635279E+03  0.7561462E-02  0.1105042E+00
         -2   -1    0    0    0  501 -0.00000000000E+00  0.00000000000E+00  0.77106726665E+02  0.77106726665E+02  0.00000000000E+00 0.  1.
          2   -1    0    0  501    0  0.00000000000E+00 -0.00000000000E+00 -0.10503092288E+04  0.10503092288E+04  0.00000000000E+00 0. -1.
          5    1    1    2  502    0 -0.58238980663E+02  0.20681787390E+02 -0.21790489639E+02  0.65664397028E+02  0.41800000000E+01 0.  1.
         -5    1    1    2    0  502 -0.16661072500E+03  0.10505646684E+03 -0.37605122361E+03  0.42453267258E+03  0.41800000000E+01 0.  1.
        -11    1    1    2    0    0  0.70198538265E+02 -0.23149410078E+01 -0.98863479682E+02  0.12127316827E+03  0.00000000000E+00 0.  1.
         11    1    1    2    0    0  0.15465116740E+03 -0.12342331322E+03 -0.47649730924E+03  0.51594571763E+03  0.00000000000E+00 0. -1.
</event>
<event>
 6    1  0.6597032E-006  0.2172064E+03  0.7561462E-02  0.1135983E+00
         -2   -1    0    0    0  501 -0.00000000000E+00  0.00000000000E+00  0.12439607669E+03  0.12439607669E+03  0.00000000000E+00 0.  1.
          2   -1    0    0  501    0  0.00000000000E+00 -0.00000000000E+00 -0.79270139511E+03  0.79270139511E+03  0.00000000000E+00 0. -1.
          5    1    1    2  502    0  0.28468627922E+02 -0.80014751796E+02 -0.18099019714E+02  0.86936012074E+02  0.41800000000E+01 0. -1.
         -5    1    1    2    0  502 -0.62632572058E+02  0.19633280839E+03 -0.51082862269E+02  0.21235899310E+03  0.41800000000E+01 0.  1.
        -11    1    1    2    0    0 -0.20830524642E+02 -0.90442979839E+01 -0.41596159311E+02  0.47391460753E+02  0.00000000000E+00 0.  1.
         11    1    1    2    0    0  0.54994468778E+02 -0.10727375861E+03 -0.55752727713E+03  0.57041100588E+03  0.00000000000E+00 0. -1.
</event>
<event>
 6    1  0.7536525E-006  0.1702910E+03  0.7561462E-02  0.1177545E+00
          2   -1    0    0  501    0  0.00000000000E+00  0.00000000000E+00  0.43169177819E+03  0.43169177819E+03  0.00000000000E+00 0. -1.
         -2   -1    0    0    0  501 -0.00000000000E+00 -0.00000000000E+00 -0.91487823005E+02  0.91487823005E+02  0.00000000000E+00 0.  1.
          5    1    1    2  502    0  0.11410829980E+02  0.14964863353E+03  0.36236161490E+02  0.15445210377E+03  0.41800000000E+01 0.  1.
         -5    1    1    2    0  502 -0.41942248520E+00  0.85477407813E+01  0.76039048436E+02  0.76633211303E+02  0.41800000000E+01 0.  1.
        -11    1    1    2    0    0 -0.42876352508E+02 -0.13456013424E+03  0.19347594310E+03  0.23953653560E+03  0.00000000000E+00 0.  1.
         11    1    1    2    0    0  0.31884945013E+02 -0.23636240068E+02  0.34452802161E+02  0.52557750521E+02  0.00000000000E+00 0. -1.
</event>
<event>
 6    1  0.6597032E-006  0.2167433E+03  0.7561462E-02  0.1136335E+00
         -1   -1    0    0    0  501 -0.00000000000E+00  0.00000000000E+00  0.39781085740E+03  0.39781085740E+03  0.00000000000E+00 0.  1.
          1   -1    0    0  501    0  0.00000000000E+00 -0.00000000000E+00 -0.20837529129E+03  0.20837529129E+03  0.00000000000E+00 0. -1.
          5    1    1    2  502    0  0.29429179343E+02  0.13181502277E+03  0.16586629874E+03  0.21394012780E+03  0.41800000000E+01 0. -1.
         -5    1    1    2    0  502  0.53783086300E+02 -0.16174856050E+03  0.13894738629E+03  0.21995241702E+03  0.41800000000E+01 0.  1.
        -11    1    1    2    0    0 -0.98631910843E+02  0.43043462619E+02 -0.94532659186E+02  0.14323902109E+03  0.00000000000E+00 0.  1.
         11    1    1    2    0    0  0.15419645201E+02 -0.13109924891E+02 -0.20845459739E+02  0.29054582779E+02  0.00000000000E+00 0. -1.
</event>
<event>
 6    1  0.6597032E-006  0.9756472E+02  0.7561462E-02  0.1285502E+00
          3   -1    0    0  501    0  0.00000000000E+00  0.00000000000E+00  0.59283674549E+03  0.59283674549E+03  0.00000000000E+00 0. -1.
         -3   -1    0    0    0  501 -0.00000000000E+00 -0.00000000000E+00 -0.26262660373E+02  0.26262660373E+02  0.00000000000E+00 0.  1.
          5    1    1    2  502    0 -0.23299574884E+02  0.15942895878E+02  0.19583958284E+03  0.19790821288E+03  0.41800000000E+01 0.  1.
         -5    1    1    2    0  502  0.32719099052E+01 -0.73112452150E+02  0.66505235544E+02  0.98977546993E+02  0.41800000000E+01 0.  1.
        -11    1    1    2    0    0 -0.12033130522E+02 -0.12032326638E+02  0.13717332832E+02  0.21857226139E+02  0.00000000000E+00 0.  1.
         11    1    1    2    0    0  0.32060795501E+02  0.69201882911E+02  0.29051193390E+03  0.30035641985E+03  0.00000000000E+00 0. -1.
</event>
<event>
 6    1  0.6597032E-006  0.1108318E+03  0.7561462E-02  0.1259037E+00
         -2   -1    0    0    0  501 -0.00000000000E+00  0.00000000000E+00  0.69118241462E+02  0.69118241462E+02  0.00000000000E+00 0. -1.
          2   -1    0    0  501    0  0.00000000000E+00 -0.00000000000E+00 -0.26006086885E+03  0.26006086885E+03  0.00000000000E+00 0.  1.
          5    1    1    2  502    0 -0.71239578343E+02  0.37831967255E+02 -0.12867126535E+03  0.15192136846E+03  0.41800000000E+01 0.  1.
         -5    1    1    2    0  502  0.12958345721E+02  0.15682524191E+02  0.22204223471E+02  0.30403293058E+02  0.41800000000E+01 0.  1.
        -11    1    1    2    0    0  0.79559467351E+02 -0.57902168992E+02 -0.69348253427E+02  0.12038085509E+03  0.00000000000E+00 0.  1.
         11    1    1    2    0    0 -0.21278234729E+02  0.43876775464E+01 -0.15127332079E+02  0.26473593697E+02  0.00000000000E+00 0. -1.
</event>
<event>
 6    1  0.6597032E-006  0.9635863E+02  0.7561462E-02  0.1288145E+00
         -1   -1    0    0    0  501 -0.00000000000E+00  0.00000000000E+00  0.78475951329E+03  0.78475951329E+03  0.00000000000E+00 0.  1.
          1   -1    0    0  501    0  0.00000000000E+00 -0.00000000000E+00 -0.26076013564E+02  0.26076013564E+02  0.00000000000E+00 0. -1.
          5    1    1    2  502    0 -0.65261226958E+01  0.77729068458E+01  0.33853507958E+03  0.33871297711E+03  0.41800000000E+01 0.  1.
         -5    1    1    2    0  502  0.70279107952E+02  0.51277277113E+02  0.15504401107E+03  0.17783315195E+03  0.41800000000E+01 0.  1.
        -11    1    1    2    0    0 -0.41522005622E+02 -0.13002737556E+02  0.22537329095E+03  0.22953489584E+03  0.00000000000E+00 0.  1.
         11    1    1    2    0    0 -0.22230979634E+02 -0.46047446402E+02  0.39731118123E+02  0.64754501951E+02  0.00000000000E+00 0. -1.
</event>
<event>
 6    1  0.6597032E-006  0.1065897E+03  0.7561462E-02  0.1267019E+00
          1   -1    0    0  501    0  0.00000000000E+00  0.00000000000E+00  0.33937394305E+02  0.33937394305E+02  0.00000000000E+00 0. -1.
         -1   -1    0    0    0  501 -0.00000000000E+00 -0.00000000000E+00 -0.46708731111E+03  0.46708731111E+03  0.00000000000E+00 0.  1.
          5    1    1    2  502    0 -0.12165135833E+02  0.38113875612E+02 -0.35820359305E+02  0.53863053986E+02  0.41800000000E+01 0. -1.
         -5    1    1    2    0  502 -0.30305360835E+02 -0.84253066161E+02 -0.22344391303E+03  0.24075225591E+03  0.41800000000E+01 0. -1.
        -11    1    1    2    0    0  0.25504288316E+02 -0.78827301661E+01 -0.13525334325E+03  0.13786251492E+03  0.00000000000E+00 0.  1.
         11    1    1    2    0    0  0.16966208351E+02  0.54021920715E+02 -0.38632301208E+02  0.68546880601E+02  0.00000000000E+00 0. -1.
</event>
<event>
 6    1  0.6597032E-006  0.1392522E+03  0.7561462E-02  0.1214339E+00
          2   -1    0    0  501    0  0.00000000000E+00  0.00000000000E+00  0.68169909928E+03  0.68169909928E+03  0.00000000000E+00 0. -1.
         -2   -1    0    0    0  501 -0.00000000000E+00 -0.00000000000E+00 -0.32576432834E+02  0.32576432834E+02  0.00000000000E+00 0.  1.
          5    1    1    2  502    0  0.53860319758E+02 -0.72504951385E+02  0.15551063529E+03  0.17988588635E+03  0.41800000000E+01 0. -1.
         -5    1    1    2    0  502  0.32838874130E+02  0.52016053138E+02  0.74945943749E+02  0.97048587432E+02  0.41800000000E+01 0. -1.
        -11    1    1    2    0    0 -0.14345676831E+02  0.47178112270E+02  0.16132705529E+03  0.16869496581E+03  0.00000000000E+00 0.  1.
         11    1    1    2    0    0 -0.72353517057E+02 -0.26689214023E+02  0.25733903212E+03  0.26864609253E+03  0.00000000000E+00 0. -1.
</event>
<event>
 6    1  0.6597032E-006  0.6652364E+02  0.7561462E-02  0.1372330E+00
         -2   -1    0    0    0  501 -0.00000000000E+00  0.00000000000E+00  0.10098926752E+03  0.10098926752E+03  0.00000000000E+00 0.  1.
          2   -1    0    0  501    0  0.00000000000E+00 -0.00000000000E+00 -0.15006539139E+03  0.15006539139E+03  0.00000000000E+00 0. -1.
          5    1    1    2  502    0 -0.41598100443E+02  0.36443972151E+02 -0.44778017403E+02  0.71281893277E+02  0.41800000000E+01 0. -1.
         -5    1    1    2    0  502  0.92260093867E+01 -0.21745690106E+02  0.53994125297E+02  0.59083265431E+02  0.41800000000E+01 0. -1.
        -11    1    1    2    0    0 -0.67183944185E+01 -0.12804511656E+02 -0.76264902457E+02  0.77623628420E+02  0.00000000000E+00 0. -1.
         11    1    1    2    0    0  0.39090485475E+02 -0.18937703893E+01  0.17972670692E+02  0.43065871787E+02  0.00000000000E+00 0.  1.
</event>
<event>
 6    1  0.6597032E-006  0.9972228E+02  0.7561462E-02  0.1280881E+00
         -1   -1    0    0    0  501 -0.00000000000E+00  0.00000000000E+00  0.12964397932E+03  0.12964397932E+03  0.00000000000E+00 0. -1.
          1   -1    0    0  501    0  0.00000000000E+00 -0.00000000000E+00 -0.13043524281E+03  0.13043524281E+03  0.00000000000E+00 0.  1.
          5    1    1    2  502    0 -0.48564964023E+02 -0.80216399658E+01  0.64130371012E+02  0.80951092175E+02  0.41800000000E+01 0.  1.
         -5    1    1    2    0  502  0.62491413621E+02 -0.70573617124E+01  0.44815799536E+01  0.63186549910E+02  0.41800000000E+01 0.  1.
        -11    1    1    2    0    0 -0.48906825097E+02 -0.45681296062E-01 -0.58605300481E+02  0.76331257505E+02  0.00000000000E+00 0.  1.
         11    1    1    2    0    0  0.34980375499E+02  0.15124682974E+02 -0.10797913981E+02  0.39610322537E+02  0.00000000000E+00 0. -1.
</event>
<event>
 6    1  0.6597032E-006  0.2302188E+03  0.7561462E-02  0.1126486E+00
         -2   -1    0    0    0  501 -0.00000000000E+00  0.00000000000E+00  0.37955993530E+03  0.37955993530E+03  0.00000000000E+00 0.  1.
          2   -1    0    0  501    0  0.00000000000E+00 -0.00000000000E+00 -0.27005373528E+03  0.27005373528E+03  0.00000000000E+00 0. -1.
          5    1    1    2  502    0  0.10101702934E+03 -0.19386703107E+02  0.35283941040E+02  0.10882423153E+03  0.41800000000E+01 0.  1.
         -5    1    1    2    0  502  0.11285927581E+03 -0.33759796446E+02  0.22758071280E+03  0.25629551933E+03  0.41800000000E+01 0.  1.
        -11    1    1    2    0    0 -0.63609177243E+02  0.62347304446E+02 -0.57668607917E+02  0.10610835095E+03  0.00000000000E+00 0.  1.
         11    1    1    2    0    0 -0.15026712790E+03 -0.92008048939E+01 -0.95689845903E+02  0.17838556877E+03  0.00000000000E+00 0. -1.
</event>
<event>
 6    1  0.6597032E-006  0.1133104E+03  0.7561462E-02  0.1254559E+00
          2   -1    0    0  501    0  0.00000000000E+00  0.00000000000E+00  0.34267336407E+03  0.34267336407E+03  0.00000000000E+00 0. -1.
         -2   -1    0    0    0  501 -0.00000000000E+00 -0.00000000000E+00 -0.10065591849E+03  0.10065591849E+03  0.00000000000E+00 0.  1.
          5    1    1    2  502    0 -0.13529746103E+02  0.40897264392E+01  0.35619748473E+02  0.38548914034E+02  0.41800000000E+01 0.  1.
         -5    1    1    2    0  502  0.90008301076E+02 -0.31494554391E+02 -0.59580834633E+02  0.11251999589E+03  0.41800000000E+01 0.  1.
        -11    1    1    2    0    0 -0.77186707244E+02 -0.11046058853E+02  0.13660432053E+03  0.15729126988E+03  0.00000000000E+00 0.  1.
         11    1    1    2    0    0  0.70815227013E+00  0.38450886805E+02  0.12937421121E+03  0.13496910276E+03  0.00000000000E+00 0. -1.
</event>
<event>
 6    1  0.6597032E-006  0.1082971E+03  0.7561462E-02  0.1263756E+00
         -4   -1    0    0    0  501 -0.00000000000E+00  0.00000000000E+00  0.15703650427E+03  0.15703650427E+03  0.00000000000E+00 0. -1.
          4   -1    0    0  501    0  0.00000000000E+00 -0.00000000000E+00 -0.10505203376E+03  0.10505203376E+03  0.00000000000E+00 0.  1.
          5    1    1    2  502    0 -0.10591235775E+03  0.15092631437E+01  0.36690275616E+02  0.11217555048E+03  0.41800000000E+01 0.  1.
         -5    1    1    2    0  502  0.33393934133E+02 -0.12134403045E+02  0.33073784078E+02  0.48721105975E+02  0.41800000000E+01 0.  1.
        -11    1    1    2    0    0  0.11890793706E+02 -0.38185540935E+01 -0.34477214548E+02  0.36669478498E+02  0.00000000000E+00 0.  1.
         11    1    1    2    0    0  0.60627629914E+02  0.14443693995E+02  0.16697625363E+02  0.64522403071E+02  0.00000000000E+00 0. -1.
</event>
<event>
 6    1  0.6597032E-006  0.1058425E+03  0.7561462E-02  0.1268468E+00
          2   -1    0    0  501    0  0.00000000000E+00  0.00000000000E+00  0.39755359980E+03  0.39755359980E+03  0.00000000000E+00 0. -1.
         -2   -1    0    0    0  501 -0.00000000000E+00 -0.00000000000E+00 -0.38778436437E+02  0.38778436437E+02  0.00000000000E+00 0.  1.
          5    1    1    2  502    0 -0.34271021957E+01  0.31960840946E+02  0.16617608076E+01  0.32457267790E+02  0.41800000000E+01 0. -1.
         -5    1    1    2    0  502  0.87763129587E+02 -0.25627588879E+02  0.19566932663E+03  0.21601642996E+03  0.41800000000E+01 0. -1.
        -11    1    1    2    0    0 -0.38073143931E+02 -0.14551834360E+02  0.11407399136E+03  0.12113709455E+03  0.00000000000E+00 0. -1.
         11    1    1    2    0    0 -0.46262883460E+02  0.82185822928E+01  0.47370084564E+02  0.66721243938E+02  0.00000000000E+00 0.  1.
</event>
<event>
 6    1  0.6597032E-006  0.1304942E+03  0.7561462E-02  0.1226724E+00
         -2   -1    0    0    0  501 -0.00000000000E+00  0.00000000000E+00  0.25380798756E+03  0.25380798756E+03  0.00000000000E+00 0.  1.
          2   -1    0    0  501    0  0.00000000000E+00 -0.00000000000E+00 -0.10714042683E+03  0.10714042683E+03  0.00000000000E+00 0. -1.
          5    1    1    2  502    0  0.66424974866E+02 -0.11074795612E+03  0.36714076855E+02  0.13432342651E+03  0.41800000000E+01 0.  1.
         -5    1    1    2    0  502 -0.27099184684E+01  0.68618608452E+01  0.69632839125E+02  0.70147227151E+02  0.41800000000E+01 0.  1.
        -11    1    1    2    0    0 -0.32946553766E+02  0.70960180594E+02  0.67944182645E+02  0.10362062821E+03  0.00000000000E+00 0.  1.
         11    1    1    2    0    0 -0.30768502631E+02  0.32925914681E+02 -0.27623537894E+02  0.52857132513E+02  0.00000000000E+00 0. -1.
</event>
<event>
 6    1  0.6597032E-006  0.8508725E+02  0.7561462E-02  0.1315205E+00
          1   -1    0    0  501    0  0.00000000000E+00  0.00000000000E+00  0.25848154493E+02  0.25848154493E+02  0.00000000000E+00 0. -1.
         -1   -1    0    0    0  501 -0.00000000000E+00 -0.00000000000E+00 -0.60420546338E+03  0.60420546338E+03  0.00000000000E+00 0.  1.
          5    1    1    2  502    0 -0.97158248917E+01 -0.39828140423E+02 -0.50150451664E+02  0.64909307692E+02  0.41800000000E+01 0.  1.
         -5    1    1    2    0  502 -0.17328124042E+02  0.42490911895E+02 -0.41447477955E+03  0.41702824456E+03  0.41800000000E+01 0.  1.
        -11    1    1    2    0    0  0.35042972656E+02  0.31914107227E+02 -0.98861853939E+02  0.10963661039E+03  0.00000000000E+00 0. -1.
         11    1    1    2    0    0 -0.79990237224E+01 -0.34576878699E+02 -0.14870223728E+02  0.38479455230E+02  0.00000000000E+00 0.  1.
</event>
<event>
 6    1  0.6597032E-006  0.1604328E+03  0.7561462E-02  0.1188209E+00
          1   -1    0    0  501    0  0.00000000000E+00  0.00000000000E+00  0.23078669819E+03  0.23078669819E+03  0.00000000000E+00 0. -1.
         -1   -1    0    0    0  501 -0.00000000000E+00 -0.00000000000E+00 -0.14245451927E+03  0.14245451927E+03  0.00000000000E+00 0.  1.
          5    1    1    2  502    0 -0.20484381061E+02 -0.79765352748E+02 -0.19451021301E+02  0.84722700595E+02  0.41800000000E+01 0. -1.
         -5    1    1    2    0  502  0.10451698610E+03  0.35220191758E+02 -0.14018112893E+02  0.11125754887E+03  0.41800000000E+01 0.  1.
        -11    1    1    2    0    0 -0.48244210566E+02 -0.21576559147E+02  0.40985906579E+02  0.66879715130E+02  0.00000000000E+00 0. -1.
         11    1    1    2    0    0 -0.35788394472E+02  0.66121720137E+02  0.80815406535E+02  0.11038125287E+03  0.00000000000E+00 0.  1.
</event>
<event>
 6    1  0.6597032E-006  0.1594975E+03  0.7561462E-02  0.1189265E+00
         -2   -1    0    0    0  501 -0.00000000000E+00  0.00000000000E+00  0.57854915986E+02  0.57854915986E+02  0.00000000000E+00 0. -1.
          2   -1    0    0  501    0  0.00000000000E+00 -0.00000000000E+00 -0.74128718492E+03  0.74128718492E+03  0.00000000000E+00 0.  1.
          5    1    1    2  502    0  0.33010331688E+00 -0.11874677856E+03 -0.15278950905E+03  0.19355364337E+03  0.41800000000E+01 0.  1.
         -5    1    1    2    0  502 -0.49395788130E+02 -0.15882435021E+02 -0.27009476002E+01  0.52124496593E+02  0.41800000000E+01 0.  1.
        -11    1    1    2    0    0  0.16919547971E+02  0.97721640137E+02 -0.45458720716E+03  0.46527982867E+03  0.00000000000E+00 0. -1.
         11    1    1    2    0    0  0.32146136841E+02  0.36907573444E+02 -0.73354605123E+02  0.88184132269E+02  0.00000000000E+00 0.  1.
</event>
<event>
 6    1  0.6597032E-006  0.9022530E+02  0.7561462E-02  0.1302307E+00
          1   -1    0    0  501    0  0.00000000000E+00  0.00000000000E+00  0.43655033582E+03  0.43655033582E+03  0.00000000000E+00 0. -1.
         -1   -1    0    0    0  501 -0.00000000000E+00 -0.00000000000E+00 -0.28341203601E+02  0.28341203601E+02  0.00000000000E+00 0.  1.
          5    1    1    2  502    0  0.33589792083E+01 -0.47449706380E+02  0.23022173626E+03  0.23512183570E+03  0.41800000000E+01 0.  1.
         -5    1    1    2    0  502  0.14308411977E+02  0.34769960879E+02  0.14372259817E+02  0.40468692653E+02  0.41800000000E+01 0.  1.
        -11    1    1    2    0    0  0.36554452252E+02  0.17316339035E+02  0.61919611243E+02  0.73960271994E+02  0.00000000000E+00 0.  1.
         11    1    1    2    0    0 -0.54221843438E+02 -0.46365935339E+01  0.10169552491E+03  0.11534073908E+03  0.00000000000E+00 0. -1.
</event>
<event>
 6    1  0.6597032E-006  0.7639420E+02  0.7561462E-02  0.1339607E+00
          2   -1    0    0  501    0  0.00000000000E+00  0.00000000000E+00  0.49653397542E+03  0.49653397542E+03  0.00000000000E+00 0. -1.
         -2   -1    0    0    0  501 -0.00000000000E+00 -0.00000000000E+00 -0.32722989853E+02  0.32722989853E+02  0.00000000000E+00 0.  1.
          5    1    1    2  502    0 -0.56212823794E+01 -0.32088115955E+02  0.29830960805E+03  0.30011221344E+03  0.41800000000E+01 0. -1.
         -5    1    1    2    0  502  0.44254383932E+01 -0.22635630861E+02 -0.76943780939E+01  0.24670471088E+02  0.41800000000E+01 0.  1.
        -11    1    1    2    0    0 -0.33564000251E+02  0.23506895797E+01  0.20631337473E+02  0.39467960934E+02  0.00000000000E+00 0. -1.
         11    1    1    2    0    0  0.34759844237E+02  0.52373057236E+02  0.15256441814E+03  0.16500631981E+03  0.00000000000E+00 0.  1.
</event>
<event>
 6    1  0.6597032E-006  0.1197580E+03  0.7561462E-02  0.1243497E+00
          1   -1    0    0  501    0  0.00000000000E+00  0.00000000000E+00  0.58529572527E+02  0.58529572527E+02  0.00000000000E+00 0. -1.
         -1   -1    0    0    0  501 -0.00000000000E+00 -0.00000000000E+00 -0.29584734471E+03  0.29584734471E+03  0.00000000000E+00 0.  1.
          5    1    1    2  502    0  0.60223800604E+02 -0.99512656479E+01 -0.90847371721E+02  0.10952922530E+03  0.41800000000E+01 0. -1.
         -5    1    1    2    0  502 -0.49795117386E+02  0.49667152373E+02 -0.10875348786E+03  0.12958075961E+03  0.41800000000E+01 0. -1.
        -11    1    1    2    0    0 -0.66571997568E+01  0.33707129436E+02 -0.47167491735E+01  0.34680493165E+02  0.00000000000E+00 0.  1.
         11    1    1    2    0    0 -0.37714834609E+01 -0.73423016161E+02 -0.33000163434E+02  0.80586439159E+02  0.00000000000E+00 0. -1.
</event>
<event>
 6    1  0.6597032E-006  0.6053377E+02  0.7561462E-02  0.1395605E+00
         -1   -1    0    0    0  501 -0.00000000000E+00  0.00000000000E+00  0.22496697398E+03  0.22496697398E+03  0.00000000000E+00 0.  1.
          1   -1    0    0  501    0  0.00000000000E+00 -0.00000000000E+00 -0.58514319400E+02  0.58514319400E+02  0.00000000000E+00 0. -1.
          5    1    1    2  502    0  0.15570709007E+02  0.16438619755E+02 -0.16855021756E+02  0.28534879653E+02  0.41800000000E+01 0.  1.
         -5    1    1    2    0  502 -0.34801923860E+02 -0.72083734058E+01  0.15486869623E+03  0.15894942600E+03  0.41800000000E+01 0.  1.
        -11    1    1    2    0    0  0.37824398932E+02 -0.17776944561E+02  0.50735895059E+02  0.65733065956E+02  0.00000000000E+00 0.  1.
         11    1    1    2    0    0 -0.18593184079E+02  0.85466982118E+01 -0.22296914958E+02  0.30263921774E+02  0.00000000000E+00 0. -1.
</event>
<event>
 6    1  0.6597032E-006  0.1004176E+03  0.7561462E-02  0.1279420E+00
         -4   -1    0    0    0  501 -0.00000000000E+00  0.00000000000E+00  0.19416144814E+03  0.19416144814E+03  0.00000000000E+00 0.  1.
          4   -1    0    0  501    0  0.00000000000E+00 -0.00000000000E+00 -0.85482125090E+02  0.85482125090E+02  0.00000000000E+00 0. -1.
          5    1    1    2  502    0  0.10109779511E+02  0.51044689739E+01 -0.27752692657E+02  0.30264626133E+02  0.41800000000E+01 0. -1.
         -5    1    1    2    0  502 -0.64127309336E+02 -0.38537994181E+02  0.10773123120E+03  0.13122872923E+03  0.41800000000E+01 0. -1.
        -11    1    1    2    0    0 -0.27395375976E+02  0.86493530247E+01  0.13334793649E+02  0.31672301057E+02  0.00000000000E+00 0. -1.
         11    1    1    2    0    0  0.81412905801E+02  0.24784172183E+02  0.15365990858E+02  0.86477916816E+02  0.00000000000E+00 0.  1.
</event>
<event>
 6    1  0.6597032E-006  0.2810628E+03  0.7561462E-02  0.1095110E+00
         -2   -1    0    0    0  501 -0.00000000000E+00  0.00000000000E+00  0.63517049444E+02  0.63517049444E+02  0.00000000000E+00 0.  1.
          2   -1    0    0  501    0  0.00000000000E+00 -0.00000000000E+00 -0.14765690193E+04  0.14765690193E+04  0.00000000000E+00 0. -1.
          5    1    1    2  502    0 -0.78225669617E+02  0.11613590862E+03 -0.35594271598E+03  0.38251731218E+03  0.41800000000E+01 0.  1.
         -5    1    1    2    0  502 -0.23312370292E+02  0.13483655475E+03 -0.13736201934E+03  0.19393339027E+03  0.41800000000E+01 0.  1.
        -11    1    1    2    0    0  0.55199386489E+01 -0.13261998727E+03 -0.49020207259E+03  0.50785490322E+03  0.00000000000E+00 0. -1.
         11    1    1    2    0    0  0.96018101260E+02 -0.11835247610E+03 -0.42954516194E+03  0.45578046307E+03  0.00000000000E+00 0.  1.
</event>
<event>
 6    1  0.6597032E-006  0.1683392E+03  0.7561462E-02  0.1179591E+00
         -1   -1    0    0    0  501 -0.00000000000E+00  0.00000000000E+00  0.67230012468E+02  0.67230012468E+02  0.00000000000E+00 0.  1.
          1   -1    0    0  501    0  0.00000000000E+00 -0.00000000000E+00 -0.87932173297E+03  0.87932173297E+03  0.00000000000E+00 0. -1.
          5    1    1    2  502    0  0.67419412295E+02 -0.21094514248E+01  0.18167679523E+01  0.67606212624E+02  0.41800000000E+01 0. -1.
         -5    1    1    2    0  502  0.36421680352E+02 -0.10078398297E+03 -0.10776122812E+03  0.15203257779E+03  0.41800000000E+01 0. -1.
        -11    1    1    2    0    0 -0.83271981802E+01  0.53835967994E+02 -0.13179449981E+03  0.14260941013E+03  0.00000000000E+00 0.  1.
         11    1    1    2    0    0 -0.95513894467E+02  0.49057466404E+02 -0.57435276053E+03  0.58430354489E+03  0.00000000000E+00 0. -1.
</event>
<event>
 6    1  0.6597032E-006  0.1162623E+03  0.7561462E-02  0.1249394E+00
         -1   -1    0    0    0  501 -0.00000000000E+00  0.00000000000E+00  0.19978374183E+02  0.19978374183E+02  0.00000000000E+00 0.  1.
          1   -1    0    0  501    0  0.00000000000E+00 -0.00000000000E+00 -0.86641690305E+03  0.86641690305E+03  0.00000000000E+00 0. -1.
          5    1    1    2  502    0 -0.40919105080E+01 -0.22597633699E+02 -0.13697711075E+02  0.27064671975E+02  0.41800000000E+01 0. -1.
         -5    1    1    2    0  502 -0.42123088967E+02  0.81984217425E+02 -0.43882055168E+03  0.44841578418E+03  0.41800000000E+01 0. -1.
        -11    1    1    2    0    0  0.53623802297E+02  0.33633984763E+01 -0.17587674985E+03  0.18390066819E+03  0.00000000000E+00 0.  1.
         11    1    1    2    0    0 -0.74088028222E+01 -0.62749982202E+02 -0.21804351627E+03  0.22701415289E+03  0.00000000000E+00 0. -1.
</event>
<event>
 6    1  0.6597032E-006  0.2603838E+03  0.7561462E-02  0.1106913E+00
         -2   -1    0    0    0  501 -0.00000000000E+00  0.00000000000E+00  0.81966298030E+02  0.81966298030E+02  0.00000000000E+00 0.  1.
          2   -1    0    0  501    0  0.00000000000E+00 -0.00000000000E+00 -0.10639329873E+04  0.10639329873E+04  0.00000000000E+00 0. -1.
          5    1    1    2  502    0 -0.98877350471E+02  0.12408296338E+03 -0.89028316146E+02  0.18198028935E+03  0.41800000000E+01 0.  1.
         -5    1    1    2    0  502 -0.61174310068E+02  0.70957556084E+02 -0.20350712926E+03  0.22407564579E+03  0.41800000000E+01 0.  1.
        -11    1    1    2    0    0  0.14932535919E+03 -0.11755111749E+03 -0.49966017798E+03  0.53458079051E+03  0.00000000000E+00 0. -1.
         11    1    1    2    0    0  0.10726301346E+02 -0.77489401973E+02 -0.18977106588E+03  0.20526255968E+03  0.00000000000E+00 0.  1.
</event>
<event>
 6    1  0.6597032E-006  0.9747920E+02  0.7561462E-02  0.1285688E+00
          1   -1    0    0  501    0  0.00000000000E+00  0.00000000000E+00  0.14389267762E+03  0.14389267762E+03  0.00000000000E+00 0. -1.
         -1   -1    0    0    0  501 -0.00000000000E+00 -0.00000000000E+00 -0.15461122203E+03  0.15461122203E+03  0.00000000000E+00 0.  1.
          5    1    1    2  502    0 -0.42101168971E+01 -0.35066122590E+01 -0.68003378348E+02  0.68351688205E+02  0.41800000000E+01 0. -1.
         -5    1    1    2    0  502  0.80386071069E+02 -0.50021337262E+02  0.15821078452E+02  0.96082430895E+02  0.41800000000E+01 0. -1.
        -11    1    1    2    0    0 -0.39639138103E+02  0.24181906857E+02 -0.25008169879E+02  0.52739306494E+02  0.00000000000E+00 0.  1.
         11    1    1    2    0    0 -0.36536816069E+02  0.29346042665E+02  0.66471925367E+02  0.81330474058E+02  0.00000000000E+00 0. -1.
</event>
<event>
 6    1  0.6597032E-006  0.8836536E+02  0.7561462E-02  0.1306859E+00
         -1   -1    0    0    0  501 -0.00000000000E+00  0.00000000000E+00  0.21719430442E+03  0.21719430442E+03  0.00000000000E+00 0.  1.
          1   -1    0    0  501    0  0.00000000000E+00 -0.00000000000E+00 -0.76805318186E+02  0.76805318186E+02  0.00000000000E+00 0. -1.
          5    1    1    2  502    0  0.92895112568E+01  0.48397943817E+02  0.20412691788E+02  0.53505199477E+02  0.41800000000E+01 0. -1.
         -5    1    1    2    0  502 -0.25556741378E+02 -0.51290566350E+02  0.13471698810E+03  0.14645821421E+03  0.41800000000E+01 0. -1.
        -11    1    1    2    0    0  0.37875673990E+02 -0.15995865442E+02  0.22618343714E+02  0.46925727099E+02  0.00000000000E+00 0.  1.
         11    1    1    2    0    0 -0.21608443868E+02  0.18888487976E+02 -0.37359037368E+02  0.47110481822E+02  0.00000000000E+00 0. -1.
</event>
<event>
 6    1  0.6597032E-006  0.1303827E+03  0.7561462E-02  0.1226889E+00
         -2   -1    0    0    0  501 -0.00000000000E+00  0.00000000000E+00  0.48044609496E+03  0.48044609496E+03  0.00000000000E+00 0.  1.
          2   -1    0    0  501    0  0.00000000000E+00 -0.00000000000E+00 -0.46753423326E+02  0.46753423326E+02  0.00000000000E+00 0. -1.
          5    1    1    2  502    0 -0.11133816598E+01 -0.53989238296E+02  0.99393120287E+02  0.11319250077E+03  0.41800000000E+01 0. -1.
         -5    1    1    2    0  502  0.81641939527E+02  0.44354936935E+02  0.24645861104E+03  0.26342377659E+03  0.41800000000E+01 0. -1.
        -11    1    1    2    0    0 -0.43741625992E+02  0.44865806803E+02  0.75608624167E+02  0.98198444555E+02  0.00000000000E+00 0.  1.
         11    1    1    2    0    0 -0.36786931875E+02 -0.35231505442E+02  0.12232316147E+02  0.52384796371E+02  0.00000000000E+00 0. -1.
</event>
<event>
 6    1  0.6597032E-006  0.5617668E+02  0.7561462E-02  0.1414615E+00
         -1   -1    0    0    0  501 -0.00000000000E+00  0.00000000000E+00  0.51013583232E+02  0.51013583232E+02  0.00000000000E+00 0.  1.
          1   -1    0    0  501    0  0.00000000000E+00 -0.00000000000E+00 -0.29668716201E+03  0.29668716201E+03  0.00000000000E+00 0. -1.
          5    1    1    2  502    0  0.65202133485E+01  0.22505726946E+02 -0.86594661191E+02  0.89806061456E+02  0.41800000000E+01 0. -1.
         -5    1    1    2    0  502 -0.18515731611E+02 -0.15993718451E+02  0.35077951763E+02  0.42971693554E+02  0.41800000000E+01 0.  1.
        -11    1    1    2    0    0  0.37687586858E+02 -0.46088275681E+01 -0.18291585656E+03  0.18681489789E+03  0.00000000000E+00 0. -1.
         11    1    1    2    0    0 -0.25692068595E+02 -0.19031809264E+01 -0.11241012793E+02  0.28108092340E+02  0.00000000000E+00 0.  1.
</event>
<event>
 6    1  0.6597032E-006  0.7810605E+02  0.7561462E-02  0.1334514E+00
          1   -1    0    0  501    0  0.00000000000E+00  0.00000000000E+00  0.16318200760E+03  0.16318200760E+03  0.00000000000E+00 0. -1.
         -1   -1    0    0    0  501 -0.00000000000E+00 -0.00000000000E+00 -0.10038450853E+03  0.10038450853E+03  0.00000000000E+00 0.  1.
          5    1    1    2  502    0 -0.64723957381E+02 -0.40255478545E+02 -0.47036804275E+02  0.89663970291E+02  0.41800000000E+01 0.  1.
         -5    1    1    2    0  502  0.27662802613E+02  0.99795374242E+01  0.33720901343E+02  0.44937661299E+02  0.41800000000E+01 0.  1.
        -11    1    1    2    0    0  0.21618998993E+02  0.79660666682E+01 -0.19120955070E+02  0.29940779188E+02  0.00000000000E+00 0.  1.
         11    1    1    2    0    0  0.15442155776E+02  0.22309874453E+02  0.95234357072E+02  0.99024105348E+02  0.00000000000E+00 0. -1.
</event>
<event>
 6    1  0.6597032E-006  0.1030811E+03  0.7561462E-02  0.1273947E+00
          1   -1    0    0  501    0  0.00000000000E+00  0.00000000000E+00  0.85418840316E+02  0.85418840316E+02  0.00000000000E+00 0. -1.
         -1   -1    0    0    0  501 -0.00000000000E+00 -0.00000000000E+00 -0.17624357630E+03  0.17624357630E+03  0.00000000000E+00 0.  1.
          5    1    1    2  502    0 -0.46075454524E+02 -0.98160670062E+01  0.12417411226E+02  0.48897517142E+02  0.41800000000E+01 0.  1.
         -5    1    1    2    0  502  0.50177455205E+02 -0.46518125798E+02 -0.76049404749E+02  0.10238504481E+03  0.41800000000E+01 0.  1.
        -11    1    1    2    0    0  0.29879174141E+02  0.74700680020E+01 -0.39007143420E+02  0.49700344074E+02  0.00000000000E+00 0.  1.
         11    1    1    2    0    0 -0.33981174822E+02  0.48864124802E+02  0.11814400959E+02  0.60679510586E+02  0.00000000000E+00 0. -1.
</event>
<event>
 6    1  0.6597032E-006  0.1608340E+03  0.7561462E-02  0.1187758E+00
          2   -1    0    0  501    0  0.00000000000E+00  0.00000000000E+00  0.27018314220E+03  0.27018314220E+03  0.00000000000E+00 0. -1.
         -2   -1    0    0    0  501 -0.00000000000E+00 -0.00000000000E+00 -0.11684875283E+03  0.11684875283E+03  0.00000000000E+00 0.  1.
          5    1    1    2  502    0  0.40700819554E+02 -0.77779176882E+01  0.52304701447E+02  0.66860353793E+02  0.41800000000E+01 0.  1.
         -5    1    1    2    0  502 -0.31125392071E+02 -0.13203183559E+03  0.34220128944E+02  0.13996315681E+03  0.41800000000E+01 0.  1.
        -11    1    1    2    0    0 -0.20330747686E+02  0.12048928532E+03  0.87210790287E+02  0.15012238048E+03  0.00000000000E+00 0. -1.
         11    1    1    2    0    0  0.10755320203E+02  0.19320467958E+02 -0.20401231301E+02  0.30086003945E+02  0.00000000000E+00 0.  1.
</event>
<event>
 6    1  0.6597032E-006  0.1175767E+03  0.7561462E-02  0.1247149E+00
         -1   -1    0    0    0  501 -0.00000000000E+00  0.00000000000E+00  0.69435361613E+03  0.69435361613E+03  0.00000000000E+00 0.  1.
          1   -1    0    0  501    0  0.00000000000E+00 -0.00000000000E+00 -0.33066377890E+02  0.33066377890E+02  0.00000000000E+00 0. -1.
          5    1    1    2  502    0 -0.47701434867E+02 -0.77429539763E+02  0.47893068822E+03  0.48750675589E+03  0.41800000000E+01 0. -1.
         -5    1    1    2    0  502 -0.18458010240E+02  0.10438042078E+02  0.65349796184E+01  0.22579398200E+02  0.41800000000E+01 0. -1.
        -11    1    1    2    0    0  0.63282881019E+02  0.84045202833E+02  0.16829376383E+03  0.19847193780E+03  0.00000000000E+00 0. -1.
         11    1    1    2    0    0  0.28765640883E+01 -0.17053705149E+02  0.75278065671E+01  0.18861902130E+02  0.00000000000E+00 0.  1.
</event>
<event>
 6    1  0.6597032E-006  0.1452294E+03  0.7561462E-02  0.1206461E+00
         -2   -1    0    0    0  501 -0.00000000000E+00  0.00000000000E+00  0.77889623111E+02  0.77889623111E+02  0.00000000000E+00 0.  1.
          2   -1    0    0  501    0  0.00000000000E+00 -0.00000000000E+00 -0.32938869211E+03  0.32938869211E+03  0.00000000000E+00 0. -1.
          5    1    1    2  502    0  0.92516976606E+02 -0.16330215639E+02 -0.38961516594E+02  0.10179164543E+03  0.41800000000E+01 0.  1.
         -5    1    1    2    0  502 -0.51553611763E+01  0.65491420913E+02 -0.16911459824E+02  0.67964504232E+02  0.41800000000E+01 0.  1.
        -11    1    1    2    0    0 -0.92109079452E+02 -0.11721080384E+02 -0.11001028293E+03  0.14395738464E+03  0.00000000000E+00 0.  1.
         11    1    1    2    0    0  0.47474640227E+01 -0.37440124890E+02 -0.85615809648E+02  0.93564780917E+02  0.00000000000E+00 0. -1.
</event>
<event>
 6    1  0.6597032E-006  0.9496771E+02  0.7561462E-02  0.1291249E+00
          1   -1    0    0  501    0  0.00000000000E+00  0.00000000000E+00  0.35791359780E+03  0.35791359780E+03  0.00000000000E+00 0. -1.
         -1   -1    0    0    0  501 -0.00000000000E+00 -0.00000000000E+00 -0.42322392340E+02  0.42322392340E+02  0.00000000000E+00 0.  1.
          5    1    1    2  502    0 -0.32709191923E+02 -0.13604224876E+02  0.10364270598E+02  0.37146422113E+02  0.41800000000E+01 0. -1.
         -5    1    1    2    0  502  0.68137879092E+02  0.57302147385E+02  0.14398220637E+03  0.16933592299E+03  0.41800000000E+01 0. -1.
        -11    1    1    2    0    0 -0.26377698830E+02 -0.69329583206E+01 -0.85871012162E+00  0.27287108490E+02  0.00000000000E+00 0.  1.
         11    1    1    2    0    0 -0.90509883381E+01 -0.36764964189E+02  0.16210343861E+03  0.16646653655E+03  0.00000000000E+00 0. -1.
</event>
<event>
 6    1  0.6597032E-006  0.2689670E+03  0.7561462E-02  0.1101872E+00
          2   -1    0    0  501    0  0.00000000000E+00  0.00000000000E+00  0.27060705880E+04  0.27060705880E+04  0.00000000000E+00 0. -1.
         -2   -1    0    0    0  501 -0.00000000000E+00 -0.00000000000E+00 -0.38674460388E+02  0.38674460388E+02  0.00000000000E+00 0.  1.
          5    1    1    2  502    0  0.13746242272E+02  0.68434458551E+01  0.38188109560E+02  0.41371439902E+02  0.41800000000E+01 0. -1.
         -5    1    1    2    0  502  0.72686035654E+02 -0.24665094838E+03  0.20244972666E+04  0.20407661809E+04  0.41800000000E+01 0. -1.
        -11    1    1    2    0    0  0.11940837015E+02  0.45720679162E+02  0.62410804226E+02  0.78282006718E+02  0.00000000000E+00 0.  1.
         11    1    1    2    0    0 -0.98373114941E+02  0.19408682336E+03  0.54229994723E+03  0.58432542090E+03  0.00000000000E+00 0. -1.
</event>
<event>
 6    1  0.6597032E-006  0.1504732E+03  0.7561462E-02  0.1199893E+00
         -1   -1    0    0    0  501 -0.00000000000E+00  0.00000000000E+00  0.98492978599E+02  0.98492978599E+02  0.00000000000E+00 0.  1.
          1   -1    0    0  501    0  0.00000000000E+00 -0.00000000000E+00 -0.26529482306E+03  0.26529482306E+03  0.00000000000E+00 0. -1.
          5    1    1    2  502    0 -0.65674796744E+02  0.69853022834E+02 -0.86739530993E+02  0.12935935360E+03  0.41800000000E+01 0.  1.
         -5    1    1    2    0  502 -0.48271303311E+02 -0.35126894631E+02  0.81775634684E+01  0.60401675424E+02  0.41800000000E+01 0.  1.
        -11    1    1    2    0    0  0.88113134675E+02 -0.61865826111E+02 -0.44671074076E+02  0.11656247167E+03  0.00000000000E+00 0.  1.
         11    1    1    2    0    0  0.25832965380E+02  0.27139697908E+02 -0.43568802856E+02  0.57464300963E+02  0.00000000000E+00 0. -1.
</event>
<event>
 6    1  0.6597032E-006  0.9654136E+02  0.7561462E-02  0.1287742E+00
          2   -1    0    0  501    0  0.00000000000E+00  0.00000000000E+00  0.29247969806E+02  0.29247969806E+02  0.00000000000E+00 0. -1.
         -2   -1    0    0    0  501 -0.00000000000E+00 -0.00000000000E+00 -0.54179755112E+03  0.54179755112E+03  0.00000000000E+00 0.  1.
          5    1    1    2  502    0 -0.36573048779E+02 -0.28471485009E+02 -0.47994421892E+02  0.66851703706E+02  0.41800000000E+01 0. -1.
         -5    1    1    2    0  502  0.69386049890E+02 -0.22105376958E+02 -0.27965047302E+03  0.28900680108E+03  0.41800000000E+01 0. -1.
        -11    1    1    2    0    0  0.65278192419E+01  0.26914989677E+02 -0.16112022260E+03  0.16348319554E+03  0.00000000000E+00 0.  1.
         11    1    1    2    0    0 -0.39340820352E+02  0.23661872290E+02 -0.23784463800E+02  0.51703820599E+02  0.00000000000E+00 0. -1.
</event>
<event>
 6    1  0.6597032E-006  0.1096973E+03  0.7561462E-02  0.1261131E+00
         -2   -1    0    0    0  501 -0.00000000000E+00  0.00000000000E+00  0.39282797596E+02  0.39282797596E+02  0.00000000000E+00 0.  1.
          2   -1    0    0  501    0  0.00000000000E+00 -0.00000000000E+00 -0.52350470847E+03  0.52350470847E+03  0.00000000000E+00 0. -1.
          5    1    1    2  502    0 -0.10804587954E+02  0.73400577563E+01 -0.10458118640E+03  0.10547659702E+03  0.41800000000E+01 0. -1.
         -5    1    1    2    0  502  0.67874606463E+02  0.60660996517E+02 -0.41304541228E+02  0.10005126799E+03  0.41800000000E+01 0.  1.
        -11    1    1    2    0    0 -0.59457220022E+02 -0.14764803372E+02 -0.17099312481E+03  0.18163647531E+03  0.00000000000E+00 0. -1.
         11    1    1    2    0    0  0.23872015131E+01 -0.53236250901E+02 -0.16734305844E+03  0.17562316575E+03  0.00000000000E+00 0.  1.
</event>
<event>
 6    1  0.6597032E-006  0.1007136E+03  0.7561462E-02  0.1278802E+00
          1   -1    0    0  501    0  0.00000000000E+00  0.00000000000E+00  0.18182116693E+03  0.18182116693E+03  0.00000000000E+00 0. -1.
         -1   -1    0    0    0  501 -0.00000000000E+00 -0.00000000000E+00 -0.71893710822E+02  0.71893710822E+02  0.00000000000E+00 0.  1.
          5    1    1    2  502    0  0.56116984097E+02  0.22574520739E+01 -0.16164743598E+01  0.56340903288E+02  0.41800000000E+01 0. -1.
         -5    1    1    2    0  502 -0.66733382292E+02  0.17926871569E+02  0.65690184309E+02  0.95432645101E+02  0.41800000000E+01 0.  1.
        -11    1    1    2    0    0  0.30657690964E+02  0.15953999617E+02 -0.65798330151E+01  0.35181221149E+02  0.00000000000E+00 0.  1.
         11    1    1    2    0    0 -0.20041292769E+02 -0.36138323259E+02  0.52433579172E+02  0.66760108213E+02  0.00000000000E+00 0. -1.
</event>
<event>
 6    1  0.6597032E-006  0.1793771E+03  0.7561462E-02  0.1168407E+00
         -2   -1    0    0    0  501 -0.00000000000E+00  0.00000000000E+00  0.27309987812E+03  0.27309987812E+03  0.00000000000E+00 0.  1.
          2   -1    0    0  501    0  0.00000000000E+00 -0.00000000000E+00 -0.13024058992E+03  0.13024058992E+03  0.00000000000E+00 0. -1.
          5    1    1    2  502    0  0.55079057968E+02  0.30784316778E+02  0.23028111587E+02  0.67298908679E+02  0.41800000000E+01 0. -1.
         -5    1    1    2    0  502  0.73263996211E+02 -0.10720472513E+03  0.97758746322E+01  0.13028241000E+03  0.41800000000E+01 0. -1.
        -11    1    1    2    0    0 -0.83830236177E+02  0.83159160241E+01  0.24585012302E+02  0.87755830499E+02  0.00000000000E+00 0. -1.
         11    1    1    2    0    0 -0.44512818002E+02  0.68104492331E+02  0.85470289687E+02  0.11800331886E+03  0.00000000000E+00 0.  1.
</event>
<event>
 6    1  0.6597032E-006  0.1412811E+03  0.7561462E-02  0.1211615E+00
         -1   -1    0    0    0  501 -0.00000000000E+00  0.00000000000E+00  0.41848945420E+03  0.41848945420E+03  0.00000000000E+00 0.  1.
          1   -1    0    0  501    0  0.00000000000E+00 -0.00000000000E+00 -0.86489591453E+02  0.86489591453E+02  0.00000000000E+00 0. -1.
          5    1    1    2  502    0  0.34992029869E+01  0.30373729498E+02 -0.38317093340E+01  0.31096016812E+02  0.41800000000E+01 0. -1.
         -5    1    1    2    0  502  0.89028224072E+02 -0.90724878749E+02  0.30089517584E+03  0.32666865101E+03  0.41800000000E+01 0.  1.
        -11    1    1    2    0    0 -0.13208979870E+01  0.27575778089E+02 -0.21563795146E+02  0.35030923051E+02  0.00000000000E+00 0. -1.
         11    1    1    2    0    0 -0.91206529072E+02  0.32775371162E+02  0.56500191384E+02  0.11218345478E+03  0.00000000000E+00 0.  1.
</event>
<event>
 6    1  0.6597032E-006  0.2015792E+03  0.7561462E-02  0.1148413E+00
         -2   -1    0    0    0  501 -0.00000000000E+00  0.00000000000E+00  0.23642093691E+03  0.23642093691E+03  0.00000000000E+00 0. -1.
          2   -1    0    0  501    0  0.00000000000E+00 -0.00000000000E+00 -0.34119965553E+03  0.34119965553E+03  0.00000000000E+00 0.  1.
          5    1    1    2  502    0 -0.48885770794E+01  0.52309560202E+02 -0.19276326619E+02  0.56118066987E+02  0.41800000000E+01 0. -1.
         -5    1    1    2    0  502  0.50089660134E+02  0.13156828147E+03  0.15008496077E+03  0.20582068552E+03  0.41800000000E+01 0. -1.
        -11    1    1    2    0    0 -0.28149687592E+02 -0.34269601622E+01 -0.39871331193E+02  0.48927211433E+02  0.00000000000E+00 0. -1.
         11    1    1    2    0    0 -0.17051395462E+02 -0.18045088151E+03 -0.19571602157E+03  0.26675462850E+03  0.00000000000E+00 0.  1.
</event>
<event>
 6    1  0.6597032E-006  0.1168348E+03  0.7561462E-02  0.1248412E+00
         -1   -1    0    0    0  501 -0.00000000000E+00  0.00000000000E+00  0.43658361371E+03  0.43658361371E+03  0.00000000000E+00 0.  1.
          1   -1    0    0  501    0  0.00000000000E+00 -0.00000000000E+00 -0.32575310331E+02  0.32575310331E+02  0.00000000000E+00 0. -1.
          5    1    1    2  502    0 -0.67395808222E+02  0.44411694095E+02  0.17862164565E+03  0.19605549784E+03  0.41800000000E+01 0.  1.
         -5    1    1    2    0  502  0.36399698633E+02 -0.31079143946E+02  0.83267380470E+02  0.96134178622E+02  0.41800000000E+01 0.  1.
        -11    1    1    2    0    0  0.28042112156E+02  0.41393467285E+02  0.77631430545E+02  0.92338606209E+02  0.00000000000E+00 0.  1.
         11    1    1    2    0    0  0.29539974327E+01 -0.54726017434E+02  0.64487846713E+02  0.84630641370E+02  0.00000000000E+00 0. -1.
</event>
<event>
 6    1  0.6597032E-006  0.1034310E+03  0.7561462E-02  0.1273242E+00
          1   -1    0    0  501    0  0.00000000000E+00  0.00000000000E+00  0.12545693667E+03  0.12545693667E+03  0.00000000000E+00 0.  1.
         -1   -1    0    0    0  501 -0.00000000000E+00 -0.00000000000E+00 -0.12444832706E+03  0.12444832706E+03  0.00000000000E+00 0. -1.
          5    1    1    2  502    0 -0.70977434836E+02 -0.20718288686E+02 -0.11204252346E+02  0.74900276452E+02  0.41800000000E+01 0. -1.
         -5    1    1    2    0  502  0.29506735301E+02  0.53223181455E+02 -0.21882610338E+02  0.64804903422E+02  0.41800000000E+01 0. -1.
        -11    1    1    2    0    0  0.52163820683E+02 -0.21380374896E+02  0.58553349756E+02  0.81281482434E+02  0.00000000000E+00 0.  1.
         11    1    1    2    0    0 -0.10693121149E+02 -0.11124517873E+02 -0.24457877466E+02  0.28918601417E+02  0.00000000000E+00 0. -1.
</event>
<event>
 6    1  0.6597032E-006  0.1049369E+03  0.7561462E-02  0.1270244E+00
          2   -1    0    0  501    0  0.00000000000E+00  0.00000000000E+00  0.74168200741E+02  0.74168200741E+02  0.00000000000E+00 0.  1.
         -2   -1    0    0    0  501 -0.00000000000E+00 -0.00000000000E+00 -0.34062579613E+03  0.34062579613E+03  0.00000000000E+00 0. -1.
          5    1    1    2  502    0  0.70100375350E+01 -0.28681844166E+02 -0.17195637939E+03  0.17452294297E+03  0.41800000000E+01 0.  1.
         -5    1    1    2    0  502  0.39281586420E+02  0.75720083884E+02 -0.96164139582E+02  0.12861410606E+03  0.41800000000E+01 0.  1.
        -11    1    1    2    0    0  0.17546971772E+02 -0.15641927685E+02 -0.26248941978E+02  0.35235962808E+02  0.00000000000E+00 0. -1.
         11    1    1    2    0    0 -0.63838595726E+02 -0.31396312032E+02  0.27911865566E+02  0.76420985030E+02  0.00000000000E+00 0.  1.
</event>
<event>
 6    1  0.7545790E-006  0.2185350E+03  0.7561462E-02  0.1134980E+00
          2   -1    0    0  501    0  0.00000000000E+00  0.00000000000E+00  0.15373233384E+04  0.15373233384E+04  0.00000000000E+00 0. -1.
         -2   -1    0    0    0  501 -0.00000000000E+00 -0.00000000000E+00 -0.33018517818E+02  0.33018517818E+02  0.00000000000E+00 0.  1.
          5    1    1    2  502    0 -0.91234937647E+02  0.48803037293E+02  0.22507763276E+03  0.24775585455E+03  0.41800000000E+01 0. -1.
         -5    1    1    2    0  502 -0.66969265525E+01  0.12103109215E+03  0.45978295820E+03  0.47551152998E+03  0.41800000000E+01 0. -1.
        -11    1    1    2    0    0 -0.10481563148E+02 -0.48055015892E+02  0.14167205673E+03  0.14996706097E+03  0.00000000000E+00 0.  1.
         11    1    1    2    0    0  0.10841342735E+03 -0.12177911355E+03  0.67777217289E+03  0.69710741072E+03  0.00000000000E+00 0. -1.
</event>
<event>
 6    1  0.6597032E-006  0.1155650E+03  0.7561462E-02  0.1250598E+00
         -1   -1    0    0    0  501 -0.00000000000E+00  0.00000000000E+00  0.38135145226E+03  0.38135145226E+03  0.00000000000E+00 0.  1.
          1   -1    0    0  501    0  0.00000000000E+00 -0.00000000000E+00 -0.36200682916E+02  0.36200682916E+02  0.00000000000E+00 0. -1.
          5    1    1    2  502    0  0.43010159513E+02  0.10566192339E+02  0.53769758721E+02  0.69786657714E+02  0.41800000000E+01 0. -1.
         -5    1    1    2    0  502 -0.74801273367E+02 -0.51142488792E+02  0.12053876083E+03  0.15085705128E+03  0.41800000000E+01 0. -1.
        -11    1    1    2    0    0  0.25464595838E+02 -0.21627692995E+02  0.41755550896E+02  0.53476431969E+02  0.00000000000E+00 0. -1.
         11    1    1    2    0    0  0.63265180150E+01  0.62203989448E+02  0.12908669890E+03  0.14343199422E+03  0.00000000000E+00 0.  1.
</event>
<event>
 6    1  0.6597032E-006  0.9561959E+02  0.7561462E-02  0.1289787E+00
         -1   -1    0    0    0  501 -0.00000000000E+00  0.00000000000E+00  0.10949418135E+03  0.10949418135E+03  0.00000000000E+00 0.  1.
          1   -1    0    0  501    0  0.00000000000E+00 -0.00000000000E+00 -0.11060889930E+03  0.11060889930E+03  0.00000000000E+00 0. -1.
          5    1    1    2  502    0  0.19658226393E+02 -0.61017524858E+02 -0.21160686339E+02  0.67637498853E+02  0.41800000000E+01 0. -1.
         -5    1    1    2    0  502 -0.59020904649E+01  0.48794449878E+02  0.33004533472E+02  0.59350691997E+02  0.41800000000E+01 0. -1.
        -11    1    1    2    0    0  0.25976407624E+02 -0.14535329124E+02  0.19197284331E+02  0.35420125233E+02  0.00000000000E+00 0.  1.
         11    1    1    2    0    0 -0.39732543552E+02  0.26758404105E+02 -0.32155849414E+02  0.57694764571E+02  0.00000000000E+00 0. -1.
</event>
<event>
 6    1  0.6597032E-006  0.8264267E+02  0.7561462E-02  0.1321715E+00
         -1   -1    0    0    0  501 -0.00000000000E+00  0.00000000000E+00  0.11289633366E+03  0.11289633366E+03  0.00000000000E+00 0.  1.
          1   -1    0    0  501    0  0.00000000000E+00 -0.00000000000E+00 -0.13435590220E+03  0.13435590220E+03  0.00000000000E+00 0. -1.
          5    1    1    2  502    0  0.19053924560E+02  0.87537927701E+01 -0.42983676750E+02  0.48007809739E+02  0.41800000000E+01 0. -1.
         -5    1    1    2    0  502 -0.16277198247E+02 -0.56753651143E+02  0.64810559042E+02  0.87771322561E+02  0.41800000000E+01 0. -1.
        -11    1    1    2    0    0 -0.29069498249E+01  0.66325208186E+02 -0.21322764500E+01  0.66423114961E+02  0.00000000000E+00 0.  1.
         11    1    1    2    0    0  0.13022351169E+00 -0.18325349814E+02 -0.41154174378E+02  0.45049988598E+02  0.00000000000E+00 0. -1.
</event>
<event>
 6    1  0.6597032E-006  0.1361118E+03  0.7561462E-02  0.1218659E+00
          3   -1    0    0  501    0  0.00000000000E+00  0.00000000000E+00  0.11120263305E+04  0.11120263305E+04  0.00000000000E+00 0. -1.
         -3   -1    0    0    0  501 -0.00000000000E+00 -0.00000000000E+00 -0.20450028038E+02  0.20450028038E+02  0.00000000000E+00 0.  1.
          5    1    1    2  502    0  0.19922903814E+01 -0.27095452577E+02  0.25540593888E+02  0.37522354770E+02  0.41800000000E+01 0.  1.
         -5    1    1    2    0  502  0.10259105705E+03  0.29375429293E+02  0.57115328763E+03  0.58105196946E+03  0.41800000000E+01 0.  1.
        -11    1    1    2    0    0 -0.88259736246E+02 -0.39953523305E+02  0.32531823312E+03  0.33943779675E+03  0.00000000000E+00 0.  1.
         11    1    1    2    0    0 -0.16323611188E+02  0.37673546589E+02  0.16956418786E+03  0.17446423760E+03  0.00000000000E+00 0. -1.
</event>
<event>
 6    1  0.6597032E-006  0.1243035E+03  0.7561462E-02  0.1236162E+00
         -2   -1    0    0    0  501 -0.00000000000E+00  0.00000000000E+00  0.21629345601E+02  0.21629345601E+02  0.00000000000E+00 0. -1.
          2   -1    0    0  501    0  0.00000000000E+00 -0.00000000000E+00 -0.81745741356E+03  0.81745741356E+03  0.00000000000E+00 0.  1.
          5    1    1    2  502    0  0.35642524665E+02  0.41118109380E+02 -0.11814384320E+03  0.13014041866E+03  0.41800000000E+01 0. -1.
         -5    1    1    2    0  502  0.29719204752E+02 -0.81298173305E+02 -0.34371876433E+03  0.35447522546E+03  0.41800000000E+01 0. -1.
        -11    1    1    2    0    0 -0.30764166810E+02  0.60050612368E+02 -0.27582534573E+03  0.28395797462E+03  0.00000000000E+00 0.  1.
         11    1    1    2    0    0 -0.34597562607E+02 -0.19870548443E+02 -0.58140114701E+02  0.70513140415E+02  0.00000000000E+00 0. -1.
</event>
<event>
 6    1  0.6597032E-006  0.1132207E+03  0.7561462E-02  0.1254719E+00
          2   -1    0    0  501    0  0.00000000000E+00  0.00000000000E+00  0.25953470943E+03  0.25953470943E+03  0.00000000000E+00 0.  1.
         -2   -1    0    0    0  501 -0.00000000000E+00 -0.00000000000E+00 -0.10508238277E+03  0.10508238277E+03  0.00000000000E+00 0. -1.
          5    1    1    2  502    0  0.42708101365E+02  0.43596177373E+02 -0.58259472501E+02  0.84476311116E+02  0.41800000000E+01 0.  1.
         -5    1    1    2    0  502  0.33705509795E+02 -0.44504554765E+02  0.31910809436E+02  0.64439808692E+02  0.41800000000E+01 0.  1.
        -11    1    1    2    0    0 -0.48060767225E+02 -0.37911391723E+02  0.60125451656E+02  0.85803152072E+02  0.00000000000E+00 0.  1.
         11    1    1    2    0    0 -0.28352843936E+02  0.38819769116E+02  0.12067553807E+03  0.12989782031E+03  0.00000000000E+00 0. -1.
</event>
<event>
 6    1  0.6597032E-006  0.1386721E+03  0.7561462E-02  0.1215127E+00
          1   -1    0    0  501    0  0.00000000000E+00  0.00000000000E+00  0.39082524275E+03  0.39082524275E+03  0.00000000000E+00 0. -1.
         -1   -1    0    0    0  501 -0.00000000000E+00 -0.00000000000E+00 -0.52339008395E+02  0.52339008395E+02  0.00000000000E+00 0.  1.
          5    1    1    2  502    0 -0.93236655612E+02 -0.45557927669E+01  0.15197728084E+03  0.17840514423E+03  0.41800000000E+01 0.  1.
         -5    1    1    2    0  502  0.18922811057E+02 -0.50254777041E+02  0.32708933260E+02  0.63015570368E+02  0.41800000000E+01 0.  1.
        -11    1    1    2    0    0  0.26638550396E+02  0.74000122094E+02  0.10167953301E+03  0.12854710370E+03  0.00000000000E+00 0.  1.
         11    1    1    2    0    0  0.47675294160E+02 -0.19189552286E+02  0.52120487249E+02  0.73196432845E+02  0.00000000000E+00 0. -1.
</event>
<event>
 6    1  0.6597032E-006  0.9051021E+02  0.7561462E-02  0.1301621E+00
         -1   -1    0    0    0  501 -0.00000000000E+00  0.00000000000E+00  0.10127302875E+04  0.10127302875E+04  0.00000000000E+00 0.  1.
          1   -1    0    0  501    0  0.00000000000E+00 -0.00000000000E+00 -0.16580856871E+02  0.16580856871E+02  0.00000000000E+00 0. -1.
          5    1    1    2  502    0  0.25147256098E+02 -0.28598359576E+02  0.68671241992E+03  0.68778024886E+03  0.41800000000E+01 0.  1.
         -5    1    1    2    0  502 -0.33509798546E+02 -0.21359949984E+02  0.67732021883E+02  0.78640023209E+02  0.41800000000E+01 0.  1.
        -11    1    1    2    0    0 -0.38809272101E+02  0.80124352549E+01  0.79314287398E+02  0.88662928584E+02  0.00000000000E+00 0. -1.
         11    1    1    2    0    0  0.47171814548E+02  0.41945874305E+02  0.16239070142E+03  0.17422794370E+03  0.00000000000E+00 0.  1.
</event>
<event>
 6    1  0.6597032E-006  0.1413914E+03  0.7561462E-02  0.1211469E+00
          2   -1    0    0  501    0  0.00000000000E+00  0.00000000000E+00  0.41798818779E+03  0.41798818779E+03  0.00000000000E+00 0. -1.
         -2   -1    0    0    0  501 -0.00000000000E+00 -0.00000000000E+00 -0.72415385652E+02  0.72415385652E+02  0.00000000000E+00 0.  1.
          5    1    1    2  502    0  0.59307636731E+02 -0.96038296982E+02  0.13206044808E+03  0.17377624869E+03  0.41800000000E+01 0.  1.
         -5    1    1    2    0  502  0.38262500082E+02  0.12674823265E+02 -0.11599396359E+02  0.42150782356E+02  0.41800000000E+01 0.  1.
        -11    1    1    2    0    0 -0.51605013452E+02  0.33684964869E+02  0.31161659417E+02  0.69056522423E+02  0.00000000000E+00 0.  1.
         11    1    1    2    0    0 -0.45965123362E+02  0.49678508848E+02  0.19395009099E+03  0.20542001997E+03  0.00000000000E+00 0. -1.
</event>
<event>
 6    1  0.6597032E-006  0.4000986E+03  0.7561462E-02  0.1043746E+00
          2   -1    0    0  501    0  0.00000000000E+00  0.00000000000E+00  0.82846864473E+03  0.82846864473E+03  0.00000000000E+00 0. -1.
         -2   -1    0    0    0  501 -0.00000000000E+00 -0.00000000000E+00 -0.27164385886E+03  0.27164385886E+03  0.00000000000E+00 0.  1.
          5    1    1    2  502    0 -0.22196616486E+02  0.26408567882E+01  0.33305572950E+02  0.40328618840E+02  0.41800000000E+01 0. -1.
         -5    1    1    2    0  502 -0.37321155883E+03 -0.13746597823E+02 -0.28471741088E+02  0.37457168745E+03  0.41800000000E+01 0. -1.
        -11    1    1    2    0    0  0.29913322665E+03 -0.27168685497E+02  0.43890647047E+03  0.53184369375E+03  0.00000000000E+00 0. -1.
         11    1    1    2    0    0  0.96274948660E+02  0.38274426532E+02  0.11308448354E+03  0.15336850355E+03  0.00000000000E+00 0.  1.
</event>
<event>
 6    1  0.6597032E-006  0.6253192E+02  0.7561462E-02  0.1387503E+00
         -2   -1    0    0    0  501 -0.00000000000E+00  0.00000000000E+00  0.88994661297E+02  0.88994661297E+02  0.00000000000E+00 0.  1.
          2   -1    0    0  501    0  0.00000000000E+00 -0.00000000000E+00 -0.14609519508E+03  0.14609519508E+03  0.00000000000E+00 0. -1.
          5    1    1    2  502    0  0.39977927073E+01 -0.10126247896E+02 -0.71231839895E+02  0.72180126474E+02  0.41800000000E+01 0. -1.
         -5    1    1    2    0  502  0.34169325575E+02 -0.67105005987E+00  0.50047221649E+02  0.60746933365E+02  0.41800000000E+01 0. -1.
        -11    1    1    2    0    0  0.40366181591E+01 -0.23960045672E+02  0.14074701145E+02  0.28079802120E+02  0.00000000000E+00 0.  1.
         11    1    1    2    0    0 -0.42203736442E+02  0.34757343628E+02 -0.49990616679E+02  0.74082994416E+02  0.00000000000E+00 0. -1.
</event>
<event>
 6    1  0.6597032E-006  0.5375243E+02  0.7561462E-02  0.1426093E+00
          2   -1    0    0  501    0  0.00000000000E+00  0.00000000000E+00  0.53159600049E+03  0.53159600049E+03  0.00000000000E+00 0. -1.
         -2   -1    0    0    0  501 -0.00000000000E+00 -0.00000000000E+00 -0.22081265497E+02  0.22081265497E+02  0.00000000000E+00 0.  1.
          5    1    1    2  502    0 -0.15001909682E+02  0.36145772776E+01 -0.71494606834E+01  0.17513127963E+02  0.41800000000E+01 0.  1.
         -5    1    1    2    0  502  0.30744022932E+01 -0.87690027714E+01  0.31327240900E+03  0.31343806725E+03  0.41800000000E+01 0.  1.
        -11    1    1    2    0    0  0.38600175666E+02  0.26788426443E+02  0.65419857569E+02  0.80544094241E+02  0.00000000000E+00 0.  1.
         11    1    1    2    0    0 -0.26672668278E+02 -0.21634000949E+02  0.13797192911E+03  0.14218197654E+03  0.00000000000E+00 0. -1.
</event>
<event>
 6    1  0.6597032E-006  0.1435745E+03  0.7561462E-02  0.1208599E+00
          1   -1    0    0  501    0  0.00000000000E+00  0.00000000000E+00  0.11628722522E+04  0.11628722522E+04  0.00000000000E+00 0. -1.
         -1   -1    0    0    0  501 -0.00000000000E+00 -0.00000000000E+00 -0.18571141709E+02  0.18571141709E+02  0.00000000000E+00 0.  1.
          5    1    1    2  502    0  0.51355511469E+02 -0.19743649967E+02  0.30868503841E+03  0.31357794184E+03  0.41800000000E+01 0. -1.
         -5    1    1    2    0  502 -0.68066013635E+02 -0.73970295933E+02  0.42270322631E+03  0.43451130805E+03  0.41800000000E+01 0. -1.
        -11    1    1    2    0    0 -0.32075334288E+02  0.70251131395E+02  0.23204455772E+03  0.24455822477E+03  0.00000000000E+00 0.  1.
         11    1    1    2    0    0  0.48785836454E+02  0.23462814505E+02  0.18086828803E+03  0.18879591923E+03  0.00000000000E+00 0. -1.
</event>
<event>
 6    1  0.6597032E-006  0.1118765E+03  0.7561462E-02  0.1257134E+00
         -1   -1    0    0    0  501 -0.00000000000E+00  0.00000000000E+00  0.45126281383E+02  0.45126281383E+02  0.00000000000E+00 0.  1.
          1   -1    0    0  501    0  0.00000000000E+00 -0.00000000000E+00 -0.33108385797E+03  0.33108385797E+03  0.00000000000E+00 0. -1.
          5    1    1    2  502    0 -0.59959375933E+02  0.41295355352E+01 -0.24059719184E+02  0.64873124737E+02  0.41800000000E+01 0.  1.
         -5    1    1    2    0  502  0.32970012051E+02 -0.50144930950E+02 -0.11409206641E+03  0.12898064899E+03  0.41800000000E+01 0.  1.
        -11    1    1    2    0    0 -0.31154654569E+02  0.29497093717E+02 -0.39461090266E+02  0.58291240199E+02  0.00000000000E+00 0.  1.
         11    1    1    2    0    0  0.58144018450E+02  0.16518301698E+02 -0.10834470072E+03  0.12406512543E+03  0.00000000000E+00 0. -1.
</event>
<event>
 6    1  0.6597032E-006  0.1407474E+03  0.7561462E-02  0.1212327E+00
         -2   -1    0    0    0  501 -0.00000000000E+00  0.00000000000E+00  0.15495421867E+03  0.15495421867E+03  0.00000000000E+00 0.  1.
          2   -1    0    0  501    0  0.00000000000E+00 -0.00000000000E+00 -0.14950531458E+03  0.14950531458E+03  0.00000000000E+00 0. -1.
          5    1    1    2  502    0 -0.82110794529E+02 -0.93160818382E+01 -0.22625821206E+02  0.85780954437E+02  0.41800000000E+01 0. -1.
         -5    1    1    2    0  502  0.10509637928E+03 -0.26175096016E+02  0.41129995650E+02  0.11592900211E+03  0.41800000000E+01 0.  1.
        -11    1    1    2    0    0 -0.52136576466E+02  0.31571651032E+02 -0.30910781563E+02  0.68340823607E+02  0.00000000000E+00 0. -1.
         11    1    1    2    0    0  0.29150991719E+02  0.39195268222E+01  0.17855511211E+02  0.34408753091E+02  0.00000000000E+00 0.  1.
</event>
<event>
 6    1  0.6597032E-006  0.2061242E+03  0.7561462E-02  0.1144673E+00
          1   -1    0    0  501    0  0.00000000000E+00  0.00000000000E+00  0.15687926135E+03  0.15687926135E+03  0.00000000000E+00 0. -1.
         -1   -1    0    0    0  501 -0.00000000000E+00 -0.00000000000E+00 -0.30131700087E+03  0.30131700087E+03  0.00000000000E+00 0.  1.
          5    1    1    2  502    0  0.58964465753E+02 -0.18518957246E+03 -0.12964896137E+03  0.23366281594E+03  0.41800000000E+01 0. -1.
         -5    1    1    2    0  502 -0.17997538875E+02  0.12711059862E+02 -0.11801906303E+02  0.25342451357E+02  0.41800000000E+01 0. -1.
        -11    1    1    2    0    0 -0.91911014479E+01  0.16156883857E+03  0.12265896693E+02  0.16229423331E+03  0.00000000000E+00 0. -1.
         11    1    1    2    0    0 -0.31775825430E+02  0.10909674030E+02 -0.15252768537E+02  0.36896761609E+02  0.00000000000E+00 0.  1.
</event>
<event>
 6    1  0.6597032E-006  0.1023936E+03  0.7561462E-02  0.1275342E+00
         -1   -1    0    0    0  501 -0.00000000000E+00  0.00000000000E+00  0.76613530634E+02  0.76613530634E+02  0.00000000000E+00 0.  1.
          1   -1    0    0  501    0  0.00000000000E+00 -0.00000000000E+00 -0.20116919452E+03  0.20116919452E+03  0.00000000000E+00 0. -1.
          5    1    1    2  502    0 -0.53739295223E+02  0.66961874072E+01 -0.80065348248E+02  0.96750623600E+02  0.41800000000E+01 0. -1.
         -5    1    1    2    0  502  0.23307996048E+02 -0.57978318567E+02  0.13073626291E+01  0.62641277930E+02  0.41800000000E+01 0. -1.
        -11    1    1    2    0    0  0.41917750300E+00  0.57243552219E+02 -0.61482496797E+02  0.84006531846E+02  0.00000000000E+00 0. -1.
         11    1    1    2    0    0  0.30012121672E+02 -0.59614210589E+01  0.15684818534E+02  0.34384291773E+02  0.00000000000E+00 0.  1.
</event>
<event>
 6    1  0.6597032E-006  0.9781722E+02  0.7561462E-02  0.1284954E+00
         -4   -1    0    0    0  501 -0.00000000000E+00  0.00000000000E+00  0.47855366821E+03  0.47855366821E+03  0.00000000000E+00 0.  1.
          4   -1    0    0  501    0  0.00000000000E+00 -0.00000000000E+00 -0.30480673045E+02  0.30480673045E+02  0.00000000000E+00 0. -1.
          5    1    1    2  502    0 -0.35988077602E+02  0.67657961685E+02  0.74270456304E+02  0.10680034920E+03  0.41800000000E+01 0.  1.
         -5    1    1    2    0  502  0.36244958435E+02 -0.15194995664E+02  0.15161851839E+03  0.15668513786E+03  0.41800000000E+01 0.  1.
        -11    1    1    2    0    0  0.15059754094E+02  0.79570513122E+01  0.25267232191E+01  0.17219035664E+02  0.00000000000E+00 0. -1.
         11    1    1    2    0    0 -0.15316634927E+02 -0.60420017332E+02  0.21965729724E+03  0.22832981854E+03  0.00000000000E+00 0.  1.
</event>
<event>
 6    1  0.6597032E-006  0.1389296E+03  0.7561462E-02  0.1214777E+00
          2   -1    0    0  501    0  0.00000000000E+00  0.00000000000E+00  0.69489935642E+02  0.69489935642E+02  0.00000000000E+00 0. -1.
         -2   -1    0    0    0  501 -0.00000000000E+00 -0.00000000000E+00 -0.38215747266E+03  0.38215747266E+03  0.00000000000E+00 0.  1.
          5    1    1    2  502    0  0.90183618459E+02  0.95420963130E+01 -0.17375437420E+03  0.19604130073E+03  0.41800000000E+01 0.  1.
         -5    1    1    2    0  502 -0.61301825667E+01  0.70519999859E+02 -0.57159980838E+02  0.91079005966E+02  0.41800000000E+01 0.  1.
        -11    1    1    2    0    0 -0.28948466479E+02 -0.24691996913E+02  0.14362970642E+02  0.40669439985E+02  0.00000000000E+00 0. -1.
         11    1    1    2    0    0 -0.55104969414E+02 -0.55370099259E+02 -0.96116152627E+02  0.12385766162E+03  0.00000000000E+00 0.  1.
</event>
<event>
 6    1  0.6597032E-006  0.7415866E+02  0.7561462E-02  0.1346496E+00
          2   -1    0    0  501    0  0.00000000000E+00  0.00000000000E+00  0.79959169728E+02  0.79959169728E+02  0.00000000000E+00 0. -1.
         -2   -1    0    0    0  501 -0.00000000000E+00 -0.00000000000E+00 -0.31775486186E+03  0.31775486186E+03  0.00000000000E+00 0.  1.
          5    1    1    2  502    0 -0.22647553373E+02  0.14098825419E+02 -0.96235628433E+01  0.28666599272E+02  0.41800000000E+01 0. -1.
         -5    1    1    2    0  502  0.34651655019E+02 -0.32502952942E+02 -0.26544792605E+03  0.26969844825E+03  0.41800000000E+01 0.  1.
        -11    1    1    2    0    0  0.29573458845E+02  0.98669691488E+01 -0.12802926193E+02  0.33702543930E+02  0.00000000000E+00 0.  1.
         11    1    1    2    0    0 -0.41577560491E+02  0.85371583735E+01  0.50078722955E+02  0.65646440134E+02  0.00000000000E+00 0. -1.
</event>
<event>
 6    1  0.6597032E-006  0.8121825E+02  0.7561462E-02  0.1325629E+00
         -3   -1    0    0    0  501 -0.00000000000E+00  0.00000000000E+00  0.71152161665E+03  0.71152161665E+03  0.00000000000E+00 0.  1.
          3   -1    0    0  501    0  0.00000000000E+00 -0.00000000000E+00 -0.27172944236E+02  0.27172944236E+02  0.00000000000E+00 0. -1.
          5    1    1    2  502    0  0.54552689453E+02  0.29402233116E+02  0.10214028034E+03  0.11954328298E+03  0.41800000000E+01 0. -1.
         -5    1    1    2    0  502  0.42514685597E+01 -0.13527146170E+02  0.43731555988E+03  0.43756534367E+03  0.41800000000E+01 0. -1.
        -11    1    1    2    0    0  0.70373991935E+01 -0.18349997924E+02 -0.28104807856E+01  0.19853115964E+02  0.00000000000E+00 0. -1.
         11    1    1    2    0    0 -0.65841557206E+02  0.24749109776E+01  0.14770331298E+03  0.16173281827E+03  0.00000000000E+00 0.  1.
</event>
<event>
 6    1  0.6597032E-006  0.1392127E+03  0.7561462E-02  0.1214392E+00
          2   -1    0    0  501    0  0.00000000000E+00  0.00000000000E+00  0.19464420353E+03  0.19464420353E+03  0.00000000000E+00 0. -1.
         -2   -1    0    0    0  501 -0.00000000000E+00 -0.00000000000E+00 -0.17272524284E+03  0.17272524284E+03  0.00000000000E+00 0.  1.
          5    1    1    2  502    0  0.54315087054E+02 -0.18777165179E+02 -0.87337418529E+02  0.10463272762E+03  0.41800000000E+01 0.  1.
         -5    1    1    2    0  502  0.43859151568E+02  0.71097198130E+02  0.11375355208E+01  0.83649286580E+02  0.41800000000E+01 0.  1.
        -11    1    1    2    0    0 -0.89965406695E+02 -0.72393646527E+02  0.10690934986E+03  0.15736652613E+03  0.00000000000E+00 0.  1.
         11    1    1    2    0    0 -0.82088319272E+01  0.20073613576E+02  0.12094938299E+01  0.21720906034E+02  0.00000000000E+00 0. -1.
</event>
<event>
 6    1  0.6597032E-006  0.8151525E+02  0.7561462E-02  0.1324806E+00
         -1   -1    0    0    0  501 -0.00000000000E+00  0.00000000000E+00  0.10304569954E+03  0.10304569954E+03  0.00000000000E+00 0.  1.
          1   -1    0    0  501    0  0.00000000000E+00 -0.00000000000E+00 -0.54851420516E+03  0.54851420516E+03  0.00000000000E+00 0. -1.
          5    1    1    2  502    0 -0.63780044121E+00 -0.35685377317E+02 -0.35456732640E+02  0.50482722125E+02  0.41800000000E+01 0. -1.
         -5    1    1    2    0  502  0.27692798512E+02  0.15203357451E+01  0.88406678028E+02  0.92749208245E+02  0.41800000000E+01 0.  1.
        -11    1    1    2    0    0  0.32950234341E+02  0.12916368369E+02 -0.21071336208E+03  0.21366485784E+03  0.00000000000E+00 0.  1.
         11    1    1    2    0    0 -0.60005232412E+02  0.21248673203E+02 -0.28770508893E+03  0.29466311650E+03  0.00000000000E+00 0. -1.
</event>
<event>
 6    1  0.6597032E-006  0.2294354E+03  0.7561462E-02  0.1127038E+00
          1   -1    0    0  501    0  0.00000000000E+00  0.00000000000E+00  0.35822088656E+03  0.35822088656E+03  0.00000000000E+00 0. -1.
         -1   -1    0    0    0  501 -0.00000000000E+00 -0.00000000000E+00 -0.17019929298E+03  0.17019929298E+03  0.00000000000E+00 0.  1.
          5    1    1    2  502    0  0.25717171226E+01 -0.16792068484E+02 -0.17526118255E+02  0.24763370409E+02  0.41800000000E+01 0.  1.
         -5    1    1    2    0  502 -0.22077909788E+03 -0.10755479178E+02  0.87452045042E+02  0.23774865504E+03  0.41800000000E+01 0.  1.
        -11    1    1    2    0    0  0.11681009706E+03  0.21040863117E+02  0.12465926328E+02  0.11934285071E+03  0.00000000000E+00 0. -1.
         11    1    1    2    0    0  0.10139728370E+03  0.65066845448E+01  0.10562974046E+03  0.14656530338E+03  0.00000000000E+00 0.  1.
</event>
<event>
 6    1  0.6597032E-006  0.6988977E+02  0.7561462E-02  0.1360468E+00
          1   -1    0    0  501    0  0.00000000000E+00  0.00000000000E+00  0.28551114721E+03  0.28551114721E+03  0.00000000000E+00 0. -1.
         -1   -1    0    0    0  501 -0.00000000000E+00 -0.00000000000E+00 -0.64553142640E+02  0.64553142640E+02  0.00000000000E+00 0.  1.
          5    1    1    2  502    0  0.13058815529E+02 -0.24373708438E+02  0.69805944363E+02  0.75199418844E+02  0.41800000000E+01 0.  1.
         -5    1    1    2    0  502  0.14209552514E+02  0.23293827542E+02 -0.47300201622E+02  0.54765821984E+02  0.41800000000E+01 0.  1.
        -11    1    1    2    0    0 -0.45823045519E+02  0.26350140462E+02  0.16903815461E+03  0.17711007627E+03  0.00000000000E+00 0. -1.
         11    1    1    2    0    0  0.18554677476E+02 -0.25270259566E+02  0.29414107228E+02  0.42988972758E+02  0.00000000000E+00 0.  1.
</event>
<event>
 6    1  0.6597032E-006  0.1320515E+03  0.7561462E-02  0.1224443E+00
         -1   -1    0    0    0  501 -0.00000000000E+00  0.00000000000E+00  0.14297822935E+03  0.14297822935E+03  0.00000000000E+00 0.  1.
          1   -1    0    0  501    0  0.00000000000E+00 -0.00000000000E+00 -0.15553168184E+03  0.15553168184E+03  0.00000000000E+00 0. -1.
          5    1    1    2  502    0  0.78371732893E+02 -0.51838719606E+02 -0.32500737395E+02  0.99514580330E+02  0.41800000000E+01 0.  1.
         -5    1    1    2    0  502  0.18048552089E+02  0.30952330554E+02  0.48717267123E+02  0.60618821460E+02  0.41800000000E+01 0.  1.
        -11    1    1    2    0    0  0.75913197872E+01 -0.20629011861E+02 -0.12277563679E+02  0.25177824298E+02  0.00000000000E+00 0.  1.
         11    1    1    2    0    0 -0.10401160477E+03  0.41515400914E+02 -0.16492418530E+02  0.11319868510E+03  0.00000000000E+00 0. -1.
</event>
<event>
 6    1  0.6597032E-006  0.1824360E+03  0.7561462E-02  0.1165466E+00
         -2   -1    0    0    0  501 -0.00000000000E+00  0.00000000000E+00  0.64590689770E+02  0.64590689770E+02  0.00000000000E+00 0.  1.
          2   -1    0    0  501    0  0.00000000000E+00 -0.00000000000E+00 -0.67625688419E+03  0.67625688419E+03  0.00000000000E+00 0. -1.
          5    1    1    2  502    0 -0.71504954662E+02 -0.14341623778E+03 -0.13331407946E+03  0.20849770259E+03  0.41800000000E+01 0. -1.
         -5    1    1    2    0  502 -0.16601100874E+02  0.25042696934E+02 -0.89382881998E+01  0.31624335817E+02  0.41800000000E+01 0. -1.
        -11    1    1    2    0    0  0.18990365960E+02 -0.14874666439E+02 -0.60570493301E+02  0.65197195949E+02  0.00000000000E+00 0.  1.
         11    1    1    2    0    0  0.69115689575E+02  0.13324820729E+03 -0.40884333346E+03  0.43552833961E+03  0.00000000000E+00 0. -1.
</event>
<event>
 6    1  0.6597032E-006  0.1130486E+03  0.7561462E-02  0.1255026E+00
          1   -1    0    0  501    0  0.00000000000E+00  0.00000000000E+00  0.25190081690E+03  0.25190081690E+03  0.00000000000E+00 0. -1.
         -1   -1    0    0    0  501 -0.00000000000E+00 -0.00000000000E+00 -0.54394577665E+02  0.54394577665E+02  0.00000000000E+00 0.  1.
          5    1    1    2  502    0  0.64413026466E+02  0.58521561913E+02  0.52531132338E+02  0.10173889842E+03  0.41800000000E+01 0. -1.
         -5    1    1    2    0  502 -0.37235355698E+02 -0.24896764998E+02  0.33961717256E+02  0.56366579285E+02  0.41800000000E+01 0. -1.
        -11    1    1    2    0    0 -0.42659130475E+02  0.13208266178E+02  0.31607484684E+02  0.54710993377E+02  0.00000000000E+00 0.  1.
         11    1    1    2    0    0  0.15481459707E+02 -0.46833063094E+02  0.79405904959E+02  0.93478923484E+02  0.00000000000E+00 0. -1.
</event>
<event>
 6    1  0.6597032E-006  0.9632966E+02  0.7561462E-02  0.1288209E+00
          2   -1    0    0  501    0  0.00000000000E+00  0.00000000000E+00  0.14456686228E+02  0.14456686228E+02  0.00000000000E+00 0. -1.
         -2   -1    0    0    0  501 -0.00000000000E+00 -0.00000000000E+00 -0.85530132463E+03  0.85530132463E+03  0.00000000000E+00 0.  1.
          5    1    1    2  502    0 -0.50350711404E+01  0.61015944041E+02 -0.11768499255E+03  0.13272349920E+03  0.41800000000E+01 0.  1.
         -5    1    1    2    0  502 -0.48190846894E+01 -0.36812351326E+02 -0.35399391580E+03  0.35596002248E+03  0.41800000000E+01 0.  1.
        -11    1    1    2    0    0  0.46221638344E+02 -0.32658317551E+02 -0.24275914317E+03  0.24926894541E+03  0.00000000000E+00 0.  1.
         11    1    1    2    0    0 -0.36367482514E+02  0.84547248362E+01 -0.12640658688E+03  0.13180554375E+03  0.00000000000E+00 0. -1.
</event>
<event>
 6    1  0.7607275E-006  0.3421686E+03  0.7561462E-02  0.1065876E+00
         -1   -1    0    0    0  501 -0.00000000000E+00  0.00000000000E+00  0.80070145877E+02  0.80070145877E+02  0.00000000000E+00 0.  1.
          1   -1    0    0  501    0  0.00000000000E+00 -0.00000000000E+00 -0.16228941558E+04  0.16228941558E+04  0.00000000000E+00 0. -1.
          5    1    1    2  502    0 -0.14285383167E+03 -0.15612767611E+03 -0.38518428074E+03  0.43950821494E+03  0.41800000000E+01 0. -1.
         -5    1    1    2    0  502 -0.10148652170E+03 -0.80660755728E+02 -0.51139182290E+03  0.52758387062E+03  0.41800000000E+01 0. -1.
        -11    1    1    2    0    0  0.19502651649E+03  0.21098423797E+03 -0.59255752547E+03  0.65853937756E+03  0.00000000000E+00 0. -1.
         11    1    1    2    0    0  0.49313836879E+02  0.25804193865E+02 -0.53690380825E+02  0.77332838574E+02  0.00000000000E+00 0.  1.
</event>
<event>
 6    1  0.6597032E-006  0.1549375E+03  0.7561462E-02  0.1194534E+00
          1   -1    0    0  501    0  0.00000000000E+00  0.00000000000E+00  0.10633876924E+04  0.10633876924E+04  0.00000000000E+00 0. -1.
         -1   -1    0    0    0  501 -0.00000000000E+00 -0.00000000000E+00 -0.29231821030E+02  0.29231821030E+02  0.00000000000E+00 0.  1.
          5    1    1    2  502    0 -0.70306864202E+01  0.80913197197E+02  0.17767983974E+03  0.19540720018E+03  0.41800000000E+01 0. -1.
         -5    1    1    2    0  502 -0.82747633414E+02 -0.13518306611E+02  0.12010318575E+03  0.14653382912E+03  0.41800000000E+01 0. -1.
        -11    1    1    2    0    0  0.57900567750E+01 -0.60009623795E+02  0.25964377594E+03  0.26655125228E+03  0.00000000000E+00 0.  1.
         11    1    1    2    0    0  0.83988263059E+02 -0.73852667905E+01  0.47672906996E+03  0.48412723188E+03  0.00000000000E+00 0. -1.
</event>
<event>
 6    1  0.6597032E-006  0.1104945E+03  0.7561462E-02  0.1259657E+00
         -1   -1    0    0    0  501 -0.00000000000E+00  0.00000000000E+00  0.14727932330E+04  0.14727932330E+04  0.00000000000E+00 0.  1.
          1   -1    0    0  501    0  0.00000000000E+00 -0.00000000000E+00 -0.16813148916E+02  0.16813148916E+02  0.00000000000E+00 0. -1.
          5    1    1    2  502    0  0.46210038316E+02 -0.11436078376E+02  0.44181826038E+03  0.44439509351E+03  0.41800000000E+01 0. -1.
         -5    1    1    2    0  502 -0.54062019201E+02  0.57578122562E+02  0.80527712687E+03  0.80915181862E+03  0.41800000000E+01 0.  1.
        -11    1    1    2    0    0 -0.34153059842E+01 -0.68758294179E+02  0.19591338217E+03  0.20765697833E+03  0.00000000000E+00 0. -1.
         11    1    1    2    0    0  0.11267286869E+02  0.22616249993E+02  0.12971314664E+02  0.28402491462E+02  0.00000000000E+00 0.  1.
</event>
<event>
 6    1  0.6597032E-006  0.1975675E+03  0.7561462E-02  0.1151808E+00
          2   -1    0    0  501    0  0.00000000000E+00  0.00000000000E+00  0.73357941809E+03  0.73357941809E+03  0.00000000000E+00 0. -1.
         -2   -1    0    0    0  501 -0.00000000000E+00 -0.00000000000E+00 -0.57293143222E+02  0.57293143222E+02  0.00000000000E+00 0.  1.
          5    1    1    2  502    0  0.12592601513E+03  0.12410911477E+03  0.23652096865E+03  0.29533044995E+03  0.41800000000E+01 0. -1.
         -5    1    1    2    0  502  0.71941623770E+01 -0.26425013680E+02  0.18909893194E+02  0.33542417637E+02  0.41800000000E+01 0. -1.
        -11    1    1    2    0    0 -0.32835219814E+02 -0.82951959621E+02  0.19420313807E+03  0.21371485232E+03  0.00000000000E+00 0.  1.
         11    1    1    2    0    0 -0.10028495769E+03 -0.14732141472E+02  0.22665227495E+03  0.24828484141E+03  0.00000000000E+00 0. -1.
</event>
<event>
 6    1  0.6597032E-006  0.1158173E+03  0.7561462E-02  0.1250161E+00
          2   -1    0    0  501    0  0.00000000000E+00  0.00000000000E+00  0.54762833767E+02  0.54762833767E+02  0.00000000000E+00 0. -1.
         -2   -1    0    0    0  501 -0.00000000000E+00 -0.00000000000E+00 -0.40523902070E+03  0.40523902070E+03  0.00000000000E+00 0.  1.
          5    1    1    2  502    0 -0.10176687512E+03 -0.14623158501E+01 -0.57883988581E+02  0.11716084573E+03  0.41800000000E+01 0.  1.
         -5    1    1    2    0  502  0.49043693788E+00  0.96645789864E+01 -0.12976389824E+03  0.13019134496E+03  0.41800000000E+01 0.  1.
        -11    1    1    2    0    0  0.68527797295E+02 -0.34969160272E+02 -0.14978586676E+03  0.16838855974E+03  0.00000000000E+00 0.  1.
         11    1    1    2    0    0  0.32748640885E+02  0.26766897136E+02 -0.13042433350E+02  0.44261104028E+02  0.00000000000E+00 0. -1.
</event>
<event>
 6    1  0.6597032E-006  0.9821705E+02  0.7561462E-02  0.1284091E+00
          1   -1    0    0  501    0  0.00000000000E+00  0.00000000000E+00  0.33413428125E+02  0.33413428125E+02  0.00000000000E+00 0. -1.
         -1   -1    0    0    0  501 -0.00000000000E+00 -0.00000000000E+00 -0.45071005724E+03  0.45071005724E+03  0.00000000000E+00 0.  1.
          5    1    1    2  502    0 -0.16171362310E+02  0.77333687054E+02 -0.23760059242E+03  0.25042668794E+03  0.41800000000E+01 0. -1.
         -5    1    1    2    0  502  0.33190233600E+02 -0.25344304137E+02 -0.58095299118E+02  0.71669111465E+02  0.41800000000E+01 0.  1.
        -11    1    1    2    0    0 -0.35762676946E+02 -0.32874597365E+02 -0.13155257686E+02  0.50326623363E+02  0.00000000000E+00 0. -1.
         11    1    1    2    0    0  0.18743805656E+02 -0.19114785551E+02 -0.10844547989E+03  0.11170106260E+03  0.00000000000E+00 0.  1.
</event>
<event>
 6    1  0.6597032E-006  0.1241924E+03  0.7561462E-02  0.1236337E+00
         -1   -1    0    0    0  501 -0.00000000000E+00  0.00000000000E+00  0.60437078578E+02  0.60437078578E+02  0.00000000000E+00 0.  1.
          1   -1    0    0  501    0  0.00000000000E+00 -0.00000000000E+00 -0.26339265609E+03  0.26339265609E+03  0.00000000000E+00 0. -1.
          5    1    1    2  502    0 -0.40590965653E+02  0.90626041693E+02 -0.64472916248E+02  0.11846913208E+03  0.41800000000E+01 0.  1.
         -5    1    1    2    0  502  0.78637137250E+01 -0.38875506065E+02 -0.26253698876E+02  0.47748005928E+02  0.41800000000E+01 0.  1.
        -11    1    1    2    0    0 -0.29901446311E+02 -0.31160994731E+02 -0.57609401187E+02  0.71999633257E+02  0.00000000000E+00 0.  1.
         11    1    1    2    0    0  0.62628698239E+02 -0.20589540897E+02 -0.54619561203E+02  0.85612963408E+02  0.00000000000E+00 0. -1.
</event>
<event>
 6    1  0.6597032E-006  0.1492940E+03  0.7561462E-02  0.1201343E+00
         -2   -1    0    0    0  501 -0.00000000000E+00  0.00000000000E+00  0.30506451864E+03  0.30506451864E+03  0.00000000000E+00 0.  1.
          2   -1    0    0  501    0  0.00000000000E+00 -0.00000000000E+00 -0.10099030880E+03  0.10099030880E+03  0.00000000000E+00 0. -1.
          5    1    1    2  502    0 -0.27475405029E+02 -0.19563760152E+02  0.10504150841E+03  0.11040303204E+03  0.41800000000E+01 0. -1.
         -5    1    1    2    0  502  0.16597577336E+02 -0.11475707242E+03  0.36498778667E+02  0.12163181528E+03  0.41800000000E+01 0. -1.
        -11    1    1    2    0    0  0.30749645880E+02  0.12051931831E+03  0.21269621199E+02  0.12618575035E+03  0.00000000000E+00 0. -1.
         11    1    1    2    0    0 -0.19871818187E+02  0.13801514270E+02  0.41264301555E+02  0.47834229763E+02  0.00000000000E+00 0.  1.
</event>
<event>
 6    1  0.6597032E-006  0.1096419E+03  0.7561462E-02  0.1261234E+00
          2   -1    0    0  501    0  0.00000000000E+00  0.00000000000E+00  0.27005295539E+02  0.27005295539E+02  0.00000000000E+00 0. -1.
         -2   -1    0    0    0  501 -0.00000000000E+00 -0.00000000000E+00 -0.57848187845E+03  0.57848187845E+03  0.00000000000E+00 0.  1.
          5    1    1    2  502    0  0.24548438774E+02  0.67727476683E+02 -0.21854166415E+03  0.23014684077E+03  0.41800000000E+01 0.  1.
         -5    1    1    2    0  502 -0.99895068489E+00 -0.54410104068E+02 -0.22183317097E+03  0.22844886839E+03  0.41800000000E+01 0.  1.
        -11    1    1    2    0    0  0.22335018002E+02  0.24449655869E+02 -0.21885154915E+02  0.39693811947E+02  0.00000000000E+00 0. -1.
         11    1    1    2    0    0 -0.45884506091E+02 -0.37767028484E+02 -0.89216592877E+02  0.10719765289E+03  0.00000000000E+00 0.  1.
</event>
<event>
 6    1  0.6597032E-006  0.9210723E+02  0.7561462E-02  0.1297827E+00
         -1   -1    0    0    0  501 -0.00000000000E+00  0.00000000000E+00  0.35654951899E+02  0.35654951899E+02  0.00000000000E+00 0.  1.
          1   -1    0    0  501    0  0.00000000000E+00 -0.00000000000E+00 -0.40825885283E+03  0.40825885283E+03  0.00000000000E+00 0. -1.
          5    1    1    2  502    0 -0.50813870563E+01  0.48031397254E+02 -0.11258883917E+03  0.12258284840E+03  0.41800000000E+01 0. -1.
         -5    1    1    2    0  502 -0.12657124540E+02 -0.49171119307E+02 -0.70714450363E+01  0.51434225088E+02  0.41800000000E+01 0. -1.
        -11    1    1    2    0    0 -0.26451016814E+02 -0.22452767920E+02 -0.49976600789E+02  0.60839491321E+02  0.00000000000E+00 0.  1.
         11    1    1    2    0    0  0.44189528410E+02  0.23592489973E+02 -0.20296701593E+03  0.20905723992E+03  0.00000000000E+00 0. -1.
</event>
<event>
 6    1  0.6597032E-006  0.1105526E+03  0.7561462E-02  0.1259550E+00
          1   -1    0    0  501    0  0.00000000000E+00  0.00000000000E+00  0.26521645183E+03  0.26521645183E+03  0.00000000000E+00 0.  1.
         -1   -1    0    0    0  501 -0.00000000000E+00 -0.00000000000E+00 -0.89728435572E+02  0.89728435572E+02  0.00000000000E+00 0. -1.
          5    1    1    2  502    0  0.40277447697E+02 -0.88807709834E+02  0.20788157666E+02  0.99793296459E+02  0.41800000000E+01 0. -1.
         -5    1    1    2    0  502  0.22457770008E+02  0.27532650879E+02  0.68176268049E+02  0.76992689414E+02  0.41800000000E+01 0. -1.
        -11    1    1    2    0    0 -0.41401485503E+02  0.41976770406E+02 -0.24220241146E+02  0.63739723382E+02  0.00000000000E+00 0. -1.
         11    1    1    2    0    0 -0.21333732202E+02  0.19298288549E+02  0.11074383169E+03  0.11441917815E+03  0.00000000000E+00 0.  1.
</event>
<event>
 6    1  0.6597032E-006  0.7325285E+02  0.7561462E-02  0.1349368E+00
         -1   -1    0    0    0  501 -0.00000000000E+00  0.00000000000E+00  0.10895429125E+03  0.10895429125E+03  0.00000000000E+00 0.  1.
          1   -1    0    0  501    0  0.00000000000E+00 -0.00000000000E+00 -0.14346447130E+03  0.14346447130E+03  0.00000000000E+00 0. -1.
          5    1    1    2  502    0 -0.64639371372E+02  0.23142919588E+01 -0.23216528992E+02  0.68848267205E+02  0.41800000000E+01 0. -1.
         -5    1    1    2    0  502  0.33857579368E+02  0.22877436850E+02  0.50718736813E+02  0.65265423169E+02  0.41800000000E+01 0. -1.
        -11    1    1    2    0    0  0.86234253560E+01 -0.12162801921E+02 -0.83488440023E+02  0.84809296854E+02  0.00000000000E+00 0. -1.
         11    1    1    2    0    0  0.22158366648E+02 -0.13028926887E+02  0.21476052150E+02  0.33495775320E+02  0.00000000000E+00 0.  1.
</event>
<event>
 6    1  0.6597032E-006  0.1220865E+03  0.7561462E-02  0.1239694E+00
          3   -1    0    0  501    0  0.00000000000E+00  0.00000000000E+00  0.23695500465E+02  0.23695500465E+02  0.00000000000E+00 0. -1.
         -3   -1    0    0    0  501 -0.00000000000E+00 -0.00000000000E+00 -0.10870679720E+04  0.10870679720E+04  0.00000000000E+00 0.  1.
          5    1    1    2  502    0  0.80948385525E+02  0.32390368709E+02 -0.76346874020E+03  0.76844242905E+03  0.41800000000E+01 0. -1.
         -5    1    1    2    0  502  0.15953810513E+02 -0.10052597562E+02 -0.10767736311E+02  0.22113238860E+02  0.41800000000E+01 0. -1.
        -11    1    1    2    0    0 -0.11436424157E+03 -0.74219114291E+01 -0.24326411723E+03  0.26890833987E+03  0.00000000000E+00 0.  1.
         11    1    1    2    0    0  0.17462045527E+02 -0.14915859719E+02 -0.45871877831E+02  0.51299464723E+02  0.00000000000E+00 0. -1.
</event>
<event>
 6    1  0.6597032E-006  0.1270624E+03  0.7561462E-02  0.1231881E+00
         -1   -1    0    0    0  501 -0.00000000000E+00  0.00000000000E+00  0.20951648525E+03  0.20951648525E+03  0.00000000000E+00 0.  1.
          1   -1    0    0  501    0  0.00000000000E+00 -0.00000000000E+00 -0.10412723202E+03  0.10412723202E+03  0.00000000000E+00 0. -1.
          5    1    1    2  502    0 -0.45903012415E+01 -0.10386853043E+03  0.55198453677E+02  0.11778830233E+03  0.41800000000E+01 0. -1.
         -5    1    1    2    0  502  0.34973779203E+01  0.27850235973E+02  0.66945795222E+02  0.72712304281E+02  0.41800000000E+01 0. -1.
        -11    1    1    2    0    0  0.47678470296E+02  0.30744969689E+02 -0.34688241052E+01  0.56837684960E+02  0.00000000000E+00 0.  1.
         11    1    1    2    0    0 -0.46585546975E+02  0.45273324764E+02 -0.13286171564E+02  0.66305425698E+02  0.00000000000E+00 0. -1.
</event>
<event>
 6    1  0.6597032E-006  0.1482139E+03  0.7561462E-02  0.1202685E+00
         -1   -1    0    0    0  501 -0.00000000000E+00  0.00000000000E+00  0.31561492584E+03  0.31561492584E+03  0.00000000000E+00 0.  1.
          1   -1    0    0  501    0  0.00000000000E+00 -0.00000000000E+00 -0.88066481839E+02  0.88066481839E+02  0.00000000000E+00 0. -1.
          5    1    1    2  502    0 -0.49671508265E+02 -0.10104277153E+03  0.13843561512E+03  0.17849031443E+03  0.41800000000E+01 0.  1.
         -5    1    1    2    0  502 -0.39733449805E+02  0.11722895059E+02 -0.75338518071E+01  0.42313173186E+02  0.41800000000E+01 0.  1.
        -11    1    1    2    0    0  0.21521774592E+02  0.67452873296E+02  0.84982048459E+02  0.11061204933E+03  0.00000000000E+00 0.  1.
         11    1    1    2    0    0  0.67883183478E+02  0.21867003172E+02  0.11664632225E+02  0.72265870726E+02  0.00000000000E+00 0. -1.
</event>
<event>
 6    1  0.6597032E-006  0.1179565E+03  0.7561462E-02  0.1246507E+00
         -3   -1    0    0    0  501 -0.00000000000E+00  0.00000000000E+00  0.25149054744E+02  0.25149054744E+02  0.00000000000E+00 0.  1.
          3   -1    0    0  501    0  0.00000000000E+00 -0.00000000000E+00 -0.75818308287E+03  0.75818308287E+03  0.00000000000E+00 0. -1.
          5    1    1    2  502    0 -0.33998349377E+02 -0.22578884351E+02 -0.16892610464E+03  0.17383669062E+03  0.41800000000E+01 0. -1.
         -5    1    1    2    0  502  0.90912451398E+01  0.10641728915E+03 -0.24351367362E+03  0.26593922578E+03  0.41800000000E+01 0. -1.
        -11    1    1    2    0    0  0.44702528040E+01 -0.31455911897E+02 -0.19547851232E+02  0.37303834135E+02  0.00000000000E+00 0.  1.
         11    1    1    2    0    0  0.20436851433E+02 -0.52382492899E+02 -0.30104639863E+03  0.30625238707E+03  0.00000000000E+00 0. -1.
</event>
<event>
 6    1  0.6597032E-006  0.7265439E+02  0.7561462E-02  0.1351292E+00
          1   -1    0    0  501    0  0.00000000000E+00  0.00000000000E+00  0.16287077486E+03  0.16287077486E+03  0.00000000000E+00 0. -1.
         -1   -1    0    0    0  501 -0.00000000000E+00 -0.00000000000E+00 -0.78351251683E+02  0.78351251683E+02  0.00000000000E+00 0.  1.
          5    1    1    2  502    0 -0.17657588955E+02 -0.23502961763E+02 -0.49941676444E+02  0.58101833925E+02  0.41800000000E+01 0. -1.
         -5    1    1    2    0  502  0.20925674795E+02  0.21393788926E+02  0.60325916631E+02  0.67470487531E+02  0.41800000000E+01 0. -1.
        -11    1    1    2    0    0  0.38492896619E+02 -0.13536725914E+02  0.19791793461E+02  0.45350425875E+02  0.00000000000E+00 0.  1.
         11    1    1    2    0    0 -0.41760982459E+02  0.15645898751E+02  0.54343489529E+02  0.70299279213E+02  0.00000000000E+00 0. -1.
</event>
<event>
 6    1  0.6597032E-006  0.1506863E+03  0.7561462E-02  0.1199632E+00
         -1   -1    0    0    0  501 -0.00000000000E+00  0.00000000000E+00  0.15593449358E+03  0.15593449358E+03  0.00000000000E+00 0.  1.
          1   -1    0    0  501    0  0.00000000000E+00 -0.00000000000E+00 -0.23290978501E+03  0.23290978501E+03  0.00000000000E+00 0. -1.
          5    1    1    2  502    0  0.22592593349E+02 -0.46111386870E+01  0.51763704880E+02  0.56821135303E+02  0.41800000000E+01 0.  1.
         -5    1    1    2    0  502  0.58381408425E+02 -0.11750213794E+03 -0.37037427918E+02  0.13639789125E+03  0.41800000000E+01 0.  1.
        -11    1    1    2    0    0 -0.57774910093E+02  0.92273638725E+02 -0.14711964655E+02  0.10985812006E+03  0.00000000000E+00 0.  1.
         11    1    1    2    0    0 -0.23199091681E+02  0.29839637903E+02 -0.76989603734E+02  0.85767131980E+02  0.00000000000E+00 0. -1.
</event>
<event>
 6    1  0.6597032E-006  0.1137992E+03  0.7561462E-02  0.1253692E+00
         -2   -1    0    0    0  501 -0.00000000000E+00  0.00000000000E+00  0.38591093875E+02  0.38591093875E+02  0.00000000000E+00 0.  1.
          2   -1    0    0  501    0  0.00000000000E+00 -0.00000000000E+00 -0.41410029701E+03  0.41410029701E+03  0.00000000000E+00 0. -1.
          5    1    1    2  502    0  0.28161034543E+02  0.13344486366E+02 -0.14701945500E+03  0.15034397803E+03  0.41800000000E+01 0.  1.
         -5    1    1    2    0  502 -0.49399071859E+02 -0.70643021910E+02 -0.91100199571E+02  0.12548873896E+03  0.41800000000E+01 0.  1.
        -11    1    1    2    0    0  0.26883344607E+02 -0.19270633817E+02 -0.28733883997E+02  0.43814468323E+02  0.00000000000E+00 0. -1.
         11    1    1    2    0    0 -0.56453072905E+01  0.76569169361E+02 -0.10865566456E+03  0.13304420556E+03  0.00000000000E+00 0.  1.
</event>
<event>
 6    1  0.6597032E-006  0.1134723E+03  0.7561462E-02  0.1254272E+00
          1   -1    0    0  501    0  0.00000000000E+00  0.00000000000E+00  0.47394450501E+02  0.47394450501E+02  0.00000000000E+00 0. -1.
         -1   -1    0    0    0  501 -0.00000000000E+00 -0.00000000000E+00 -0.28356446253E+03  0.28356446253E+03  0.00000000000E+00 0.  1.
          5    1    1    2  502    0  0.37638245808E+01 -0.45446147303E+02 -0.38314705613E+02  0.59707685824E+02  0.41800000000E+01 0.  1.
         -5    1    1    2    0  502  0.57095370612E+01  0.82195408330E+02 -0.11954176618E+03  0.14524596458E+03  0.41800000000E+01 0.  1.
        -11    1    1    2    0    0  0.39644730334E+02 -0.28548906867E+02 -0.36567186585E+02  0.61023797500E+02  0.00000000000E+00 0.  1.
         11    1    1    2    0    0 -0.49118091976E+02 -0.82003541596E+01 -0.41746353652E+02  0.64981465134E+02  0.00000000000E+00 0. -1.
</event>
<event>
 6    1  0.6597032E-006  0.1694618E+03  0.7561462E-02  0.1178410E+00
         -2   -1    0    0    0  501 -0.00000000000E+00  0.00000000000E+00  0.36294326649E+02  0.36294326649E+02  0.00000000000E+00 0.  1.
          2   -1    0    0  501    0  0.00000000000E+00 -0.00000000000E+00 -0.10166392722E+04  0.10166392722E+04  0.00000000000E+00 0. -1.
          5    1    1    2  502    0 -0.42750706363E+02 -0.14225600447E+02 -0.74163952060E+02  0.86877815280E+02  0.41800000000E+01 0. -1.
         -5    1    1    2    0  502  0.75631794198E+02 -0.11254668125E+03 -0.19564442435E+03  0.23807800599E+03  0.41800000000E+01 0. -1.
        -11    1    1    2    0    0  0.29381205098E+02  0.59436288273E+02 -0.32344003286E+03  0.33016568937E+03  0.00000000000E+00 0.  1.
         11    1    1    2    0    0 -0.62262292933E+02  0.67335993428E+02 -0.38709653628E+03  0.39781208821E+03  0.00000000000E+00 0. -1.
</event>
<event>
 6    1  0.6597032E-006  0.1617460E+03  0.7561462E-02  0.1186740E+00
         -2   -1    0    0    0  501 -0.00000000000E+00  0.00000000000E+00  0.58428482591E+02  0.58428482591E+02  0.00000000000E+00 0.  1.
          2   -1    0    0  501    0  0.00000000000E+00 -0.00000000000E+00 -0.46101238583E+03  0.46101238583E+03  0.00000000000E+00 0. -1.
          5    1    1    2  502    0  0.34968752041E+02 -0.14771490239E+02 -0.35487645015E+02  0.52133059492E+02  0.41800000000E+01 0. -1.
         -5    1    1    2    0  502 -0.11929973658E+02  0.13530934020E+03 -0.18321432077E+03  0.22811379080E+03  0.41800000000E+01 0. -1.
        -11    1    1    2    0    0  0.16235415523E+02 -0.10644675610E+03 -0.15383521993E+03  0.18777586504E+03  0.00000000000E+00 0.  1.
         11    1    1    2    0    0 -0.39274193907E+02 -0.14091093865E+02 -0.30046717519E+02  0.51418153088E+02  0.00000000000E+00 0. -1.
</event>
<event>
 6    1  0.6597032E-006  0.9388895E+02  0.7561462E-02  0.1293698E+00
          1   -1    0    0  501    0  0.00000000000E+00  0.00000000000E+00  0.59736866847E+02  0.59736866847E+02  0.00000000000E+00 0. -1.
         -1   -1    0    0    0  501 -0.00000000000E+00 -0.00000000000E+00 -0.23992209673E+03  0.23992209673E+03  0.00000000000E+00 0.  1.
          5    1    1    2  502    0  0.41685824344E+02 -0.27070649481E+02 -0.17449372605E+02  0.52843930766E+02  0.41800000000E+01 0. -1.
         -5    1    1    2    0  502 -0.31783974012E+02  0.33755902144E+02 -0.14655342824E+03  0.15376950824E+03  0.41800000000E+01 0. -1.
        -11    1    1    2    0    0  0.31555335344E+02 -0.30204603926E+02 -0.40957609554E+01  0.43872913566E+02  0.00000000000E+00 0. -1.
         11    1    1    2    0    0 -0.41457185676E+02  0.23519351263E+02 -0.12086668079E+02  0.49172611007E+02  0.00000000000E+00 0.  1.
</event>
<event>
 6    1  0.6597032E-006  0.1370630E+03  0.7561462E-02  0.1217336E+00
          1   -1    0    0  501    0  0.00000000000E+00  0.00000000000E+00  0.22958982073E+03  0.22958982073E+03  0.00000000000E+00 0. -1.
         -1   -1    0    0    0  501 -0.00000000000E+00 -0.00000000000E+00 -0.14096315005E+03  0.14096315005E+03  0.00000000000E+00 0.  1.
          5    1    1    2  502    0  0.37436429438E+01  0.43485877968E+02 -0.57119086901E+02  0.72007631079E+02  0.41800000000E+01 0. -1.
         -5    1    1    2    0  502 -0.88226174659E+02  0.51284177992E+02  0.34167579390E+02  0.10769782119E+03  0.41800000000E+01 0. -1.
        -11    1    1    2    0    0  0.57669073635E+02 -0.76053560702E+02  0.12346354251E+03  0.15605483805E+03  0.00000000000E+00 0. -1.
         11    1    1    2    0    0  0.26813458080E+02 -0.18716495259E+02 -0.11885364318E+02  0.34792680465E+02  0.00000000000E+00 0.  1.
</event>
<event>
 6    1  0.6597032E-006  0.1434197E+03  0.7561462E-02  0.1208800E+00
          4   -1    0    0  501    0  0.00000000000E+00  0.00000000000E+00  0.30988362909E+03  0.30988362909E+03  0.00000000000E+00 0. -1.
         -4   -1    0    0    0  501 -0.00000000000E+00 -0.00000000000E+00 -0.84794956721E+02  0.84794956721E+02  0.00000000000E+00 0.  1.
          5    1    1    2  502    0  0.33564717349E+02  0.11297608012E+03  0.86756223215E+01  0.11824941333E+03  0.41800000000E+01 0.  1.
         -5    1    1    2    0  502  0.22682510481E+02 -0.22674406269E+02  0.43183386143E+02  0.53952777688E+02  0.41800000000E+01 0.  1.
        -11    1    1    2    0    0  0.75519025079E+01  0.13067576457E+02  0.36972866059E+02  0.39934766940E+02  0.00000000000E+00 0. -1.
         11    1    1    2    0    0 -0.63799130338E+02 -0.10336925031E+03  0.13625679785E+03  0.18254162786E+03  0.00000000000E+00 0.  1.
</event>
<event>
 6    1  0.6597032E-006  0.1059148E+03  0.7561462E-02  0.1268328E+00
         -4   -1    0    0    0  501 -0.00000000000E+00  0.00000000000E+00  0.33282582157E+02  0.33282582157E+02  0.00000000000E+00 0.  1.
          4   -1    0    0  501    0  0.00000000000E+00 -0.00000000000E+00 -0.41911386329E+03  0.41911386329E+03  0.00000000000E+00 0. -1.
          5    1    1    2  502    0 -0.72499060107E+02 -0.21064356289E+02 -0.61488291266E+02  0.97458212507E+02  0.41800000000E+01 0. -1.
         -5    1    1    2    0  502  0.40987780441E+02  0.20604068351E+02 -0.93174901368E+02  0.10394017714E+03  0.41800000000E+01 0. -1.
        -11    1    1    2    0    0  0.41607219996E+02 -0.34320208116E+02 -0.18269261559E+03  0.19048787162E+03  0.00000000000E+00 0. -1.
         11    1    1    2    0    0 -0.10095940331E+02  0.34780496054E+02 -0.48475472907E+02  0.60510184188E+02  0.00000000000E+00 0.  1.
</event>
<event>
 6    1  0.6597032E-006  0.8989333E+02  0.7561462E-02  0.1303110E+00
          1   -1    0    0  501    0  0.00000000000E+00  0.00000000000E+00  0.16431564076E+03  0.16431564076E+03  0.00000000000E+00 0. -1.
         -1   -1    0    0    0  501 -0.00000000000E+00 -0.00000000000E+00 -0.86904452773E+02  0.86904452773E+02  0.00000000000E+00 0.  1.
          5    1    1    2  502    0  0.27638661461E+02  0.42250950631E+02 -0.27382714639E+02  0.57587532484E+02  0.41800000000E+01 0. -1.
         -5    1    1    2    0  502 -0.60384766186E+02 -0.12815532457E+02  0.44305047947E+02  0.76098406902E+02  0.41800000000E+01 0. -1.
        -11    1    1    2    0    0  0.14594733456E+02  0.13972366112E+02  0.67050652094E+02  0.70028731287E+02  0.00000000000E+00 0. -1.
         11    1    1    2    0    0  0.18151371268E+02 -0.43407784286E+02 -0.65617974175E+01  0.47505422858E+02  0.00000000000E+00 0.  1.
</event>
<event>
 6    1  0.6597032E-006  0.1291791E+03  0.7561462E-02  0.1228679E+00
         -1   -1    0    0    0  501 -0.00000000000E+00  0.00000000000E+00  0.44390145451E+03  0.44390145451E+03  0.00000000000E+00 0.  1.
          1   -1    0    0  501    0  0.00000000000E+00 -0.00000000000E+00 -0.44931012010E+02  0.44931012010E+02  0.00000000000E+00 0. -1.
          5    1    1    2  502    0  0.56700063996E+02  0.17321137680E+01  0.15038152822E+03  0.16077927076E+03  0.41800000000E+01 0. -1.
         -5    1    1    2    0  502 -0.36347700856E+02 -0.80460186112E+02  0.13726659151E+03  0.16326232404E+03  0.41800000000E+01 0. -1.
        -11    1    1    2    0    0  0.24770010220E+02  0.58719229273E+02  0.91706516973E+02  0.11167625776E+03  0.00000000000E+00 0.  1.
         11    1    1    2    0    0 -0.45122373359E+02  0.20008843071E+02  0.19615805792E+02  0.53114613954E+02  0.00000000000E+00 0. -1.
</event>
<event>
 6    1  0.6597032E-006  0.8390195E+02  0.7561462E-02  0.1318329E+00
         -2   -1    0    0    0  501 -0.00000000000E+00  0.00000000000E+00  0.29358152751E+02  0.29358152751E+02  0.00000000000E+00 0.  1.
          2   -1    0    0  501    0  0.00000000000E+00 -0.00000000000E+00 -0.63321558763E+03  0.63321558763E+03  0.00000000000E+00 0. -1.
          5    1    1    2  502    0 -0.49425118488E+02 -0.29308367736E+02 -0.21733271882E+03  0.22483951127E+03  0.41800000000E+01 0. -1.
         -5    1    1    2    0  502 -0.61416539183E+01  0.41500754848E+01  0.17046786695E+02  0.19052778695E+02  0.41800000000E+01 0. -1.
        -11    1    1    2    0    0  0.41521584644E+02  0.54874175677E+02 -0.34232656787E+03  0.34917430635E+03  0.00000000000E+00 0. -1.
         11    1    1    2    0    0  0.14045187762E+02 -0.29715883426E+02 -0.61244934884E+02  0.69507144065E+02  0.00000000000E+00 0.  1.
</event>
<event>
 6    1  0.7939405E-006  0.4868352E+03  0.7561462E-02  0.1017273E+00
         -2   -1    0    0    0  501 -0.00000000000E+00  0.00000000000E+00  0.10401275984E+03  0.10401275984E+03  0.00000000000E+00 0.  1.
          2   -1    0    0  501    0  0.00000000000E+00 -0.00000000000E+00 -0.32642624010E+04  0.32642624010E+04  0.00000000000E+00 0. -1.
          5    1    1    2  502    0  0.22094209919E+03 -0.15453558391E+03 -0.47764871297E+03  0.54850927366E+03  0.41800000000E+01 0.  1.
         -5    1    1    2    0  502  0.14192633349E+03 -0.16053967620E+03 -0.21330172644E+03  0.30237587647E+03  0.41800000000E+01 0.  1.
        -11    1    1    2    0    0 -0.31612962583E+03  0.22438554219E+03 -0.19626217148E+04  0.20005426282E+04  0.00000000000E+00 0. -1.
         11    1    1    2    0    0 -0.46738806844E+02  0.90689717925E+02 -0.50667748691E+03  0.51684738245E+03  0.00000000000E+00 0.  1.
</event>
<event>
 6    1  0.6597032E-006  0.1019810E+03  0.7561462E-02  0.1276185E+00
         -1   -1    0    0    0  501 -0.00000000000E+00  0.00000000000E+00  0.14240823084E+04  0.14240823084E+04  0.00000000000E+00 0.  1.
          1   -1    0    0  501    0  0.00000000000E+00 -0.00000000000E+00 -0.14210128695E+02  0.14210128695E+02  0.00000000000E+00 0. -1.
          5    1    1    2  502    0 -0.36813281719E+02  0.14216929823E+02  0.87642484314E+03  0.87732281224E+03  0.41800000000E+01 0. -1.
         -5    1    1    2    0  502  0.76498106326E+01 -0.59334457236E+02  0.28781693429E+03  0.29399856714E+03  0.41800000000E+01 0.  1.
        -11    1    1    2    0    0  0.12429518748E+02 -0.27291770155E+02  0.61996757020E+02  0.68868944638E+02  0.00000000000E+00 0.  1.
         11    1    1    2    0    0  0.16733952338E+02  0.72409297567E+02  0.18363364528E+03  0.19810211309E+03  0.00000000000E+00 0. -1.
</event>
<event>
 6    1  0.6597032E-006  0.1366284E+03  0.7561462E-02  0.1217939E+00
         -1   -1    0    0    0  501 -0.00000000000E+00  0.00000000000E+00  0.32723509057E+02  0.32723509057E+02  0.00000000000E+00 0.  1.
          1   -1    0    0  501    0  0.00000000000E+00 -0.00000000000E+00 -0.78411006272E+03  0.78411006272E+03  0.00000000000E+00 0. -1.
          5    1    1    2  502    0 -0.99400036623E+02  0.42281391986E+02 -0.18708838467E+03  0.21607318082E+03  0.41800000000E+01 0. -1.
         -5    1    1    2    0  502  0.35199285899E+02  0.30064374853E+02 -0.44485564797E+02  0.64337347151E+02  0.41800000000E+01 0. -1.
        -11    1    1    2    0    0  0.26224010845E+02 -0.76123182424E+02 -0.44722014999E+03  0.45440983727E+03  0.00000000000E+00 0. -1.
         11    1    1    2    0    0  0.37976739878E+02  0.37774155851E+01 -0.72592454198E+02  0.82013206539E+02  0.00000000000E+00 0.  1.
</event>
<event>
 6    1  0.6597032E-006  0.2955869E+03  0.7561462E-02  0.1087468E+00
          2   -1    0    0  501    0  0.00000000000E+00  0.00000000000E+00  0.18845244248E+04  0.18845244248E+04  0.00000000000E+00 0. -1.
         -2   -1    0    0    0  501 -0.00000000000E+00 -0.00000000000E+00 -0.10375312695E+03  0.10375312695E+03  0.00000000000E+00 0.  1.
          5    1    1    2  502    0  0.17804695424E+03 -0.12062730570E+03  0.12462291089E+04  0.12646565261E+04  0.41800000000E+01 0. -1.
         -5    1    1    2    0  502 -0.28517451779E+02  0.19058387240E+03  0.42655918652E+02  0.19741443025E+03  0.41800000000E+01 0.  1.
        -11    1    1    2    0    0 -0.14237102954E+03 -0.85595543096E+02  0.40702090401E+03  0.43961588160E+03  0.00000000000E+00 0. -1.
         11    1    1    2    0    0 -0.71584729146E+01  0.15638976396E+02  0.84865366291E+02  0.86590713780E+02  0.00000000000E+00 0.  1.
</event>
<event>
 6    1  0.6597032E-006  0.7368687E+02  0.7561462E-02  0.1347986E+00
         -2   -1    0    0    0  501 -0.00000000000E+00  0.00000000000E+00  0.71211659386E+02  0.71211659386E+02  0.00000000000E+00 0.  1.
          2   -1    0    0  501    0  0.00000000000E+00 -0.00000000000E+00 -0.30974236395E+03  0.30974236395E+03  0.00000000000E+00 0. -1.
          5    1    1    2  502    0 -0.31275481596E+02 -0.19659105717E+02 -0.69422260208E+02  0.78749976502E+02  0.41800000000E+01 0. -1.
         -5    1    1    2    0  502  0.27856576129E+02  0.13937125827E+02  0.53119150553E+02  0.61719922759E+02  0.41800000000E+01 0.  1.
        -11    1    1    2    0    0  0.39962970788E+02 -0.59565751929E+01 -0.51284154476E+02  0.65288470058E+02  0.00000000000E+00 0.  1.
         11    1    1    2    0    0 -0.36544065322E+02  0.11678555083E+02 -0.17094344043E+03  0.17519565401E+03  0.00000000000E+00 0. -1.
</event>
<event>
 6    1  0.6597032E-006  0.1712808E+03  0.7561462E-02  0.1176519E+00
         -4   -1    0    0    0  501 -0.00000000000E+00  0.00000000000E+00  0.20244384893E+03  0.20244384893E+03  0.00000000000E+00 0.  1.
          4   -1    0    0  501    0  0.00000000000E+00 -0.00000000000E+00 -0.18078006019E+03  0.18078006019E+03  0.00000000000E+00 0. -1.
          5    1    1    2  502    0 -0.21717471968E+01 -0.88079310923E+01 -0.37751653137E+02  0.39050683101E+02  0.41800000000E+01 0.  1.
         -5    1    1    2    0  502 -0.13987089627E+03 -0.58586604011E+02  0.59911468070E+02  0.16310461122E+03  0.41800000000E+01 0.  1.
        -11    1    1    2    0    0  0.97514798198E+02  0.88415642156E+02  0.34039372087E+01  0.13167402338E+03  0.00000000000E+00 0.  1.
         11    1    1    2    0    0  0.44527845273E+02 -0.21021107053E+02 -0.38999634033E+01  0.49394591414E+02  0.00000000000E+00 0. -1.
</event>
<event>
 6    1  0.6597032E-006  0.1759548E+03  0.7561462E-02  0.1171776E+00
         -1   -1    0    0    0  501 -0.00000000000E+00  0.00000000000E+00  0.86170395245E+02  0.86170395245E+02  0.00000000000E+00 0.  1.
          1   -1    0    0  501    0  0.00000000000E+00 -0.00000000000E+00 -0.36639554409E+03  0.36639554409E+03  0.00000000000E+00 0. -1.
          5    1    1    2  502    0  0.13164055869E+03  0.92450621595E+02 -0.10608558234E+03  0.19273810549E+03  0.41800000000E+01 0.  1.
         -5    1    1    2    0  502 -0.25230595163E+02 -0.30015396489E+01 -0.22621702511E+02  0.34275443061E+02  0.41800000000E+01 0.  1.
        -11    1    1    2    0    0 -0.28539861339E+02  0.17101497805E+02 -0.18039540598E+02  0.37847191936E+02  0.00000000000E+00 0.  1.
         11    1    1    2    0    0 -0.77870102187E+02 -0.10655057975E+03 -0.13347832340E+03  0.18770519885E+03  0.00000000000E+00 0. -1.
</event>
<event>
 6    1  0.6597032E-006  0.1165184E+03  0.7561462E-02  0.1248954E+00
         -1   -1    0    0    0  501 -0.00000000000E+00  0.00000000000E+00  0.14468487892E+04  0.14468487892E+04  0.00000000000E+00 0.  1.
          1   -1    0    0  501    0  0.00000000000E+00 -0.00000000000E+00 -0.17922427497E+02  0.17922427497E+02  0.00000000000E+00 0. -1.
          5    1    1    2  502    0 -0.45550665426E+02  0.72711749347E+02  0.45260192389E+03  0.46068192446E+03  0.41800000000E+01 0. -1.
         -5    1    1    2    0  502  0.21819107817E+02  0.10459503241E+02  0.70463923412E+03  0.70506694529E+03  0.41800000000E+01 0.  1.
        -11    1    1    2    0    0 -0.27402151635E+02 -0.60947802778E+02  0.11904402613E+03  0.13651737155E+03  0.00000000000E+00 0. -1.
         11    1    1    2    0    0  0.51133709244E+02 -0.22223449811E+02  0.15264117755E+03  0.16250497539E+03  0.00000000000E+00 0.  1.
</event>
<event>
 6    1  0.6597032E-006  0.1688438E+03  0.7561462E-02  0.1179059E+00
          1   -1    0    0  501    0  0.00000000000E+00  0.00000000000E+00  0.15560744392E+03  0.15560744392E+03  0.00000000000E+00 0. -1.
         -1   -1    0    0    0  501 -0.00000000000E+00 -0.00000000000E+00 -0.20038964481E+03  0.20038964481E+03  0.00000000000E+00 0.  1.
          5    1    1    2  502    0 -0.59254574808E+02 -0.46971129996E+02 -0.16854370017E+02  0.77581788310E+02  0.41800000000E+01 0.  1.
         -5    1    1    2    0  502 -0.74913220968E+02  0.77205354333E+02  0.12515478564E+02  0.10838250328E+03  0.41800000000E+01 0.  1.
        -11    1    1    2    0    0  0.79041937618E+02 -0.52456518836E+02  0.53288368926E+01  0.95014266157E+02  0.00000000000E+00 0. -1.
         11    1    1    2    0    0  0.55125858158E+02  0.22222294498E+02 -0.45772146330E+02  0.75018530978E+02  0.00000000000E+00 0.  1.
</event>
<event>
 6    1  0.6597032E-006  0.9834271E+02  0.7561462E-02  0.1283820E+00
          2   -1    0    0  501    0  0.00000000000E+00  0.00000000000E+00  0.19567490258E+03  0.19567490258E+03  0.00000000000E+00 0. -1.
         -2   -1    0    0    0  501 -0.00000000000E+00 -0.00000000000E+00 -0.85366683932E+02  0.85366683932E+02  0.00000000000E+00 0.  1.
          5    1    1    2  502    0  0.27955329836E+02 -0.14025192536E+02 -0.29314351617E+02  0.43069828217E+02  0.41800000000E+01 0.  1.
         -5    1    1    2    0  502 -0.76228066967E+02  0.34647330466E+02  0.40341163862E+02  0.93037828885E+02  0.41800000000E+01 0.  1.
        -11    1    1    2    0    0  0.16163510434E+02  0.22392518626E+02 -0.46064406728E+01  0.27998272369E+02  0.00000000000E+00 0.  1.
         11    1    1    2    0    0  0.32109226697E+02 -0.43014656555E+02  0.10388784707E+03  0.11693565704E+03  0.00000000000E+00 0. -1.
</event>
<event>
 6    1  0.6597032E-006  0.1157912E+03  0.7561462E-02  0.1250206E+00
          2   -1    0    0  501    0  0.00000000000E+00  0.00000000000E+00  0.41357487279E+03  0.41357487279E+03  0.00000000000E+00 0. -1.
         -2   -1    0    0    0  501 -0.00000000000E+00 -0.00000000000E+00 -0.41772861764E+02  0.41772861764E+02  0.00000000000E+00 0.  1.
          5    1    1    2  502    0  0.33262612904E+02  0.85966479249E+01  0.83912801788E+02  0.90769678178E+02  0.41800000000E+01 0. -1.
         -5    1    1    2    0  502 -0.89976606774E+02  0.15107087850E+02  0.58301674820E+02  0.10835391805E+03  0.41800000000E+01 0. -1.
        -11    1    1    2    0    0 -0.50507752014E+01  0.25922661587E+02  0.10737577633E+03  0.11057600127E+03  0.00000000000E+00 0. -1.
         11    1    1    2    0    0  0.61764769071E+02 -0.49626397362E+02  0.12221175808E+03  0.14564813705E+03  0.00000000000E+00 0.  1.
</event>
<event>
 6    1  0.6597032E-006  0.7767435E+02  0.7561462E-02  0.1335784E+00
          2   -1    0    0  501    0  0.00000000000E+00  0.00000000000E+00  0.36739490625E+03  0.36739490625E+03  0.00000000000E+00 0.  1.
         -2   -1    0    0    0  501 -0.00000000000E+00 -0.00000000000E+00 -0.20046014460E+02  0.20046014460E+02  0.00000000000E+00 0. -1.
          5    1    1    2  502    0 -0.89234000350E+01  0.64090323374E+02  0.14281639853E+03  0.15684767358E+03  0.41800000000E+01 0.  1.
         -5    1    1    2    0  502  0.29632524819E+02 -0.34833271660E+02  0.43383048325E+02  0.63174398482E+02  0.41800000000E+01 0. -1.
        -11    1    1    2    0    0  0.17464192693E+01 -0.20350007076E+02  0.58431468003E+02  0.61898378180E+02  0.00000000000E+00 0. -1.
         11    1    1    2    0    0 -0.22455544053E+02 -0.89070446384E+01  0.10271797693E+03  0.10552047046E+03  0.00000000000E+00 0.  1.
</event>
<event>
 6    1  0.6597032E-006  0.2289673E+03  0.7561462E-02  0.1127369E+00
         -4   -1    0    0    0  501 -0.00000000000E+00  0.00000000000E+00  0.40787622454E+03  0.40787622454E+03  0.00000000000E+00 0.  1.
          4   -1    0    0  501    0  0.00000000000E+00 -0.00000000000E+00 -0.17749867962E+03  0.17749867962E+03  0.00000000000E+00 0. -1.
          5    1    1    2  502    0  0.15945290640E+02  0.38847994903E+02  0.11733656071E+03  0.12469466661E+03  0.41800000000E+01 0. -1.
         -5    1    1    2    0  502 -0.82694404084E+02  0.16567187230E+03  0.13080260284E+03  0.22674286548E+03  0.41800000000E+01 0. -1.
        -11    1    1    2    0    0  0.43137795501E+02 -0.25829184180E+02 -0.18831737365E+02  0.53690320248E+02  0.00000000000E+00 0. -1.
         11    1    1    2    0    0  0.23611317943E+02 -0.17869068302E+03  0.10701187343E+01  0.18024705181E+03  0.00000000000E+00 0.  1.
</event>
<event>
 6    1  0.6597032E-006  0.1109426E+03  0.7561462E-02  0.1258834E+00
          1   -1    0    0  501    0  0.00000000000E+00  0.00000000000E+00  0.55864930610E+02  0.55864930610E+02  0.00000000000E+00 0. -1.
         -1   -1    0    0    0  501 -0.00000000000E+00 -0.00000000000E+00 -0.36917983836E+03  0.36917983836E+03  0.00000000000E+00 0.  1.
          5    1    1    2  502    0  0.36917737990E+02 -0.28901572382E+02 -0.19781201407E+03  0.20333540168E+03  0.41800000000E+01 0.  1.
         -5    1    1    2    0  502 -0.64876098191E+02 -0.29728159808E+02 -0.74238353046E+02  0.10306055048E+03  0.41800000000E+01 0.  1.
        -11    1    1    2    0    0 -0.19482284853E+02 -0.83944719216E+01  0.82489056880E+01  0.22761173674E+02  0.00000000000E+00 0. -1.
         11    1    1    2    0    0  0.47440645054E+02  0.67024204111E+02 -0.49513446317E+02  0.95887643136E+02  0.00000000000E+00 0.  1.
</event>
<event>
 6    1  0.6597032E-006  0.1037382E+03  0.7561462E-02  0.1272626E+00
         -3   -1    0    0    0  501 -0.00000000000E+00  0.00000000000E+00  0.31399469438E+03  0.31399469438E+03  0.00000000000E+00 0.  1.
          3   -1    0    0  501    0  0.00000000000E+00 -0.00000000000E+00 -0.50879709272E+02  0.50879709272E+02  0.00000000000E+00 0. -1.
          5    1    1    2  502    0  0.43952272525E+02 -0.64707988692E+01  0.15970271739E+03  0.16581949174E+03  0.41800000000E+01 0. -1.
         -5    1    1    2    0  502 -0.40991025412E+02  0.52480755273E+02  0.53008807723E+02  0.85216782001E+02  0.41800000000E+01 0. -1.
        -11    1    1    2    0    0 -0.27061493363E+02  0.14711419279E+02  0.35179706380E+02  0.46758550247E+02  0.00000000000E+00 0.  1.
         11    1    1    2    0    0  0.24100246250E+02 -0.60721375683E+02  0.15223753616E+02  0.67079579667E+02  0.00000000000E+00 0. -1.
</event>
<event>
 6    1  0.6597032E-006  0.1312297E+03  0.7561462E-02  0.1225642E+00
          2   -1    0    0  501    0  0.00000000000E+00  0.00000000000E+00  0.25780138065E+02  0.25780138065E+02  0.00000000000E+00 0. -1.
         -2   -1    0    0    0  501 -0.00000000000E+00 -0.00000000000E+00 -0.79113118258E+03  0.79113118258E+03  0.00000000000E+00 0.  1.
          5    1    1    2  502    0 -0.12249470630E+03 -0.35666335144E+01 -0.35209793809E+03  0.37283790628E+03  0.41800000000E+01 0. -1.
         -5    1    1    2    0  502  0.31613806495E+02  0.13775333101E+01 -0.83413230349E+02  0.89311644013E+02  0.41800000000E+01 0. -1.
        -11    1    1    2    0    0  0.42179249416E+02 -0.27996546176E+02 -0.58166250624E+02  0.77111661833E+02  0.00000000000E+00 0. -1.
         11    1    1    2    0    0  0.48701650392E+02  0.30185646381E+02 -0.27167362545E+03  0.27765010853E+03  0.00000000000E+00 0.  1.
</event>
<event>
 6    1  0.6597032E-006  0.9693183E+02  0.7561462E-02  0.1286883E+00
          1   -1    0    0  501    0  0.00000000000E+00  0.00000000000E+00  0.26463508815E+02  0.26463508815E+02  0.00000000000E+00 0. -1.
         -1   -1    0    0    0  501 -0.00000000000E+00 -0.00000000000E+00 -0.54083257920E+03  0.54083257920E+03  0.00000000000E+00 0.  1.
          5    1    1    2  502    0  0.55302788035E+02 -0.65161643544E+02 -0.96476967898E+02  0.12895625572E+03  0.41800000000E+01 0.  1.
         -5    1    1    2    0  502 -0.31238418025E+02  0.62608933513E+01 -0.16206417653E+03  0.16521896762E+03  0.41800000000E+01 0.  1.
        -11    1    1    2    0    0  0.10611862409E+02  0.42332632279E+01 -0.25577592059E+01  0.11707872288E+02  0.00000000000E+00 0. -1.
         11    1    1    2    0    0 -0.34676232419E+02  0.54667486964E+02 -0.25327016675E+03  0.26141299240E+03  0.00000000000E+00 0.  1.
</event>
<event>
 6    1  0.6597032E-006  0.8911498E+02  0.7561462E-02  0.1305009E+00
          1   -1    0    0  501    0  0.00000000000E+00  0.00000000000E+00  0.90251573755E+02  0.90251573755E+02  0.00000000000E+00 0. -1.
         -1   -1    0    0    0  501 -0.00000000000E+00 -0.00000000000E+00 -0.28009736405E+03  0.28009736405E+03  0.00000000000E+00 0.  1.
          5    1    1    2  502    0  0.14945260436E+02 -0.76371046124E+01 -0.15864912912E+03  0.15958917491E+03  0.41800000000E+01 0.  1.
         -5    1    1    2    0  502 -0.75328611051E+02  0.23071573969E+02 -0.56734940078E+02  0.97175218004E+02  0.41800000000E+01 0.  1.
        -11    1    1    2    0    0  0.39590864858E+02 -0.35477087743E+02  0.52036780225E+02  0.74390099013E+02  0.00000000000E+00 0. -1.
         11    1    1    2    0    0  0.20792485758E+02  0.20042618386E+02 -0.26498501321E+02  0.39194445882E+02  0.00000000000E+00 0.  1.
</event>
<event>
 6    1  0.6597032E-006  0.2958746E+03  0.7561462E-02  0.1087321E+00
         -1   -1    0    0    0  501 -0.00000000000E+00  0.00000000000E+00  0.11698843991E+03  0.11698843991E+03  0.00000000000E+00 0.  1.
          1   -1    0    0  501    0  0.00000000000E+00 -0.00000000000E+00 -0.77625849734E+03  0.77625849734E+03  0.00000000000E+00 0. -1.
          5    1    1    2  502    0 -0.15054772115E+03 -0.13975271200E+03 -0.29465636956E+03  0.35921481787E+03  0.41800000000E+01 0. -1.
         -5    1    1    2    0  502 -0.96212904125E+02  0.12954553950E+02 -0.10408128342E+03  0.14239076286E+03  0.41800000000E+01 0. -1.
        -11    1    1    2    0    0  0.12760887344E+03  0.20108712806E+02 -0.87575706876E+02  0.15607014239E+03  0.00000000000E+00 0. -1.
         11    1    1    2    0    0  0.11915175184E+03  0.10668944524E+03 -0.17295669757E+03  0.23557121413E+03  0.00000000000E+00 0.  1.
</event>
<event>
 6    1  0.6597032E-006  0.1026169E+03  0.7561462E-02  0.1274887E+00
         -1   -1    0    0    0  501 -0.00000000000E+00  0.00000000000E+00  0.64284222149E+03  0.64284222149E+03  0.00000000000E+00 0.  1.
          1   -1    0    0  501    0  0.00000000000E+00 -0.00000000000E+00 -0.18466446547E+02  0.18466446547E+02  0.00000000000E+00 0. -1.
          5    1    1    2  502    0 -0.28157254820E+02 -0.58817775061E+02  0.11034795004E+03  0.12824392438E+03  0.41800000000E+01 0. -1.
         -5    1    1    2    0  502  0.18589015302E+02  0.49374313668E+02  0.19384581308E+03  0.20094040407E+03  0.41800000000E+01 0. -1.
        -11    1    1    2    0    0 -0.29457449312E+02  0.30683951168E+02  0.12837133707E+03  0.13523478236E+03  0.00000000000E+00 0.  1.
         11    1    1    2    0    0  0.39025688830E+02 -0.21240489775E+02  0.19181067474E+03  0.19688955721E+03  0.00000000000E+00 0. -1.
</event>
<event>
 6    1  0.6597032E-006  0.1192539E+03  0.7561462E-02  0.1244333E+00
          2   -1    0    0  501    0  0.00000000000E+00  0.00000000000E+00  0.33995382629E+03  0.33995382629E+03  0.00000000000E+00 0.  1.
         -2   -1    0    0    0  501 -0.00000000000E+00 -0.00000000000E+00 -0.62480098959E+02  0.62480098959E+02  0.00000000000E+00 0. -1.
          5    1    1    2  502    0  0.61901149232E+02  0.96903388696E+02  0.10824306672E+03  0.15797484898E+03  0.41800000000E+01 0.  1.
         -5    1    1    2    0  502 -0.40978418330E+01 -0.26435528738E+02 -0.57197715656E+01  0.27673410959E+02  0.41800000000E+01 0.  1.
        -11    1    1    2    0    0 -0.12597900496E+02 -0.39790535085E+02  0.98536145412E+01  0.42884583463E+02  0.00000000000E+00 0. -1.
         11    1    1    2    0    0 -0.45205406903E+02 -0.30677324873E+02  0.16509681763E+03  0.17390108184E+03  0.00000000000E+00 0.  1.
</event>
<event>
 6    1  0.6597032E-006  0.1325022E+03  0.7561462E-02  0.1223789E+00
          1   -1    0    0  501    0  0.00000000000E+00  0.00000000000E+00  0.66139220986E+03  0.66139220986E+03  0.00000000000E+00 0. -1.
         -1   -1    0    0    0  501 -0.00000000000E+00 -0.00000000000E+00 -0.40114726450E+02  0.40114726450E+02  0.00000000000E+00 0.  1.
          5    1    1    2  502    0 -0.33892793549E+02  0.12261594288E+02  0.60776521606E+02  0.70783657207E+02  0.41800000000E+01 0. -1.
         -5    1    1    2    0  502  0.10313856071E+03  0.29900937000E+02  0.77044678317E+02  0.13223079670E+03  0.41800000000E+01 0. -1.
        -11    1    1    2    0    0 -0.40136204070E+02 -0.70183049608E+02  0.33729255837E+03  0.34684700556E+03  0.00000000000E+00 0. -1.
         11    1    1    2    0    0 -0.29109563088E+02  0.28020518320E+02  0.14616372511E+03  0.15164547685E+03  0.00000000000E+00 0.  1.
</event>
<event>
 6    1  0.6597032E-006  0.1306290E+03  0.7561462E-02  0.1226525E+00
          2   -1    0    0  501    0  0.00000000000E+00  0.00000000000E+00  0.40286604579E+03  0.40286604579E+03  0.00000000000E+00 0. -1.
         -2   -1    0    0    0  501 -0.00000000000E+00 -0.00000000000E+00 -0.45150634799E+02  0.45150634799E+02  0.00000000000E+00 0.  1.
          5    1    1    2  502    0  0.92798822217E+02 -0.85357878553E+01  0.13759457429E+03  0.16623543651E+03  0.41800000000E+01 0. -1.
         -5    1    1    2    0  502 -0.50379499105E+02 -0.35971195342E+02  0.48475857556E+02  0.78736281282E+02  0.41800000000E+01 0.  1.
        -11    1    1    2    0    0  0.11107955059E+02  0.50830364511E+02  0.10620936597E+03  0.11826893946E+03  0.00000000000E+00 0. -1.
         11    1    1    2    0    0 -0.53527278172E+02 -0.63233813133E+01  0.65435613173E+02  0.84776023326E+02  0.00000000000E+00 0.  1.
</event>
<event>
 6    1  0.6597032E-006  0.7836075E+02  0.7561462E-02  0.1333769E+00
         -1   -1    0    0    0  501 -0.00000000000E+00  0.00000000000E+00  0.51010843039E+02  0.51010843039E+02  0.00000000000E+00 0.  1.
          1   -1    0    0  501    0  0.00000000000E+00 -0.00000000000E+00 -0.27590029289E+03  0.27590029289E+03  0.00000000000E+00 0. -1.
          5    1    1    2  502    0  0.28502748909E+02  0.92062774954E+01  0.11737051920E+02  0.32440607708E+02  0.41800000000E+01 0. -1.
         -5    1    1    2    0  502 -0.64710503559E+02  0.22890806676E+02 -0.12691165359E+03  0.14434499824E+03  0.41800000000E+01 0. -1.
        -11    1    1    2    0    0  0.14322749569E+02 -0.32825723076E+02 -0.12050483661E+03  0.12571429870E+03  0.00000000000E+00 0. -1.
         11    1    1    2    0    0  0.21885005081E+02  0.72863890392E+00  0.10789988432E+02  0.24411231276E+02  0.00000000000E+00 0.  1.
</event>
<event>
 6    1  0.6597032E-006  0.8021808E+02  0.7561462E-02  0.1328434E+00
         -2   -1    0    0    0  501 -0.00000000000E+00  0.00000000000E+00  0.14444088570E+03  0.14444088570E+03  0.00000000000E+00 0.  1.
          2   -1    0    0  501    0  0.00000000000E+00 -0.00000000000E+00 -0.11019232012E+03  0.11019232012E+03  0.00000000000E+00 0. -1.
          5    1    1    2  502    0 -0.51062144547E+02 -0.39075654133E+01 -0.28612844473E+02  0.58811384460E+02  0.41800000000E+01 0.  1.
         -5    1    1    2    0  502  0.22438158294E+01 -0.80867512917E-01  0.87895141189E+02  0.88023119086E+02  0.41800000000E+01 0.  1.
        -11    1    1    2    0    0  0.27675225242E+02 -0.43937483175E+02 -0.17936621807E+02  0.54937627559E+02  0.00000000000E+00 0. -1.
         11    1    1    2    0    0  0.21143103476E+02  0.47925916101E+02 -0.70971093250E+01  0.52861074710E+02  0.00000000000E+00 0.  1.
</event>
<event>
 6    1  0.6597032E-006  0.1484871E+03  0.7561462E-02  0.1202344E+00
          3   -1    0    0  501    0  0.00000000000E+00  0.00000000000E+00  0.65541319289E+02  0.65541319289E+02  0.00000000000E+00 0. -1.
         -3   -1    0    0    0  501 -0.00000000000E+00 -0.00000000000E+00 -0.41696817388E+03  0.41696817388E+03  0.00000000000E+00 0.  1.
          5    1    1    2  502    0  0.87718189155E+02  0.19362921162E+02 -0.57075124409E+02  0.10651030772E+03  0.41800000000E+01 0.  1.
         -5    1    1    2    0  502  0.54956662072E+01  0.58577671474E+02 -0.16907657331E+03  0.17906955628E+03  0.41800000000E+01 0.  1.
        -11    1    1    2    0    0 -0.25112078017E+02 -0.75883889981E+02 -0.89423920592E+02  0.11994006334E+03  0.00000000000E+00 0.  1.
         11    1    1    2    0    0 -0.68101777345E+02 -0.20567026552E+01 -0.35851236279E+02  0.76989565826E+02  0.00000000000E+00 0. -1.
</event>
<event>
 6    1  0.6597032E-006  0.1231533E+03  0.7561462E-02  0.1237984E+00
         -2   -1    0    0    0  501 -0.00000000000E+00  0.00000000000E+00  0.64520924278E+02  0.64520924278E+02  0.00000000000E+00 0.  1.
          2   -1    0    0  501    0  0.00000000000E+00 -0.00000000000E+00 -0.24642957243E+03  0.24642957243E+03  0.00000000000E+00 0. -1.
          5    1    1    2  502    0 -0.82766738407E+02 -0.43723757736E+02 -0.65141561811E+02  0.11411833968E+03  0.41800000000E+01 0.  1.
         -5    1    1    2    0  502  0.42737160481E+02 -0.10900541943E+01 -0.11731537710E+02  0.44528131346E+02  0.41800000000E+01 0.  1.
        -11    1    1    2    0    0  0.64257036558E+02  0.53806251761E+02 -0.86921597812E+02  0.12074536696E+03  0.00000000000E+00 0.  1.
         11    1    1    2    0    0 -0.24227458632E+02 -0.89924398308E+01 -0.18113950821E+02  0.31558658720E+02  0.00000000000E+00 0. -1.
</event>
<event>
 6    1  0.6597032E-006  0.1455500E+03  0.7561462E-02  0.1206050E+00
          3   -1    0    0  501    0  0.00000000000E+00  0.00000000000E+00  0.13956853691E+03  0.13956853691E+03  0.00000000000E+00 0. -1.
         -3   -1    0    0    0  501 -0.00000000000E+00 -0.00000000000E+00 -0.21471342294E+03  0.21471342294E+03  0.00000000000E+00 0.  1.
          5    1    1    2  502    0 -0.41450280039E+02  0.53020522856E+02 -0.70330744833E+02  0.97432990450E+02  0.41800000000E+01 0.  1.
         -5    1    1    2    0  502  0.76995032419E+02  0.61808946630E+02 -0.31447877241E+02  0.10370642354E+03  0.41800000000E+01 0.  1.
        -11    1    1    2    0    0  0.63048122054E+00 -0.54493993923E+02  0.54872882481E+02  0.77337094024E+02  0.00000000000E+00 0. -1.
         11    1    1    2    0    0 -0.36175233601E+02 -0.60335475563E+02 -0.28239146436E+02  0.75805451842E+02  0.00000000000E+00 0.  1.
</event>
<event>
 6    1  0.6597032E-006  0.8477226E+02  0.7561462E-02  0.1316029E+00
          2   -1    0    0  501    0  0.00000000000E+00  0.00000000000E+00  0.92519148990E+02  0.92519148990E+02  0.00000000000E+00 0.  1.
         -2   -1    0    0    0  501 -0.00000000000E+00 -0.00000000000E+00 -0.17578058971E+03  0.17578058971E+03  0.00000000000E+00 0. -1.
          5    1    1    2  502    0  0.62758704863E+02  0.28312155407E+02  0.10588025333E+02  0.69784037289E+02  0.41800000000E+01 0. -1.
         -5    1    1    2    0  502 -0.71744211388E+01 -0.73129626091E+01 -0.88346532890E+02  0.89036700379E+02  0.41800000000E+01 0. -1.
        -11    1    1    2    0    0  0.35525066977E+01 -0.29540564861E+02  0.28102144444E+02  0.40926712530E+02  0.00000000000E+00 0.  1.
         11    1    1    2    0    0 -0.59136790422E+02  0.85413720623E+01 -0.33605077610E+02  0.68552288505E+02  0.00000000000E+00 0. -1.
</event>
<event>
 6    1  0.6597032E-006  0.1458164E+03  0.7561462E-02  0.1205710E+00
          2   -1    0    0  501    0  0.00000000000E+00  0.00000000000E+00  0.74751726195E+03  0.74751726195E+03  0.00000000000E+00 0. -1.
         -2   -1    0    0    0  501 -0.00000000000E+00 -0.00000000000E+00 -0.50267815557E+02  0.50267815557E+02  0.00000000000E+00 0.  1.
          5    1    1    2  502    0  0.33020708217E+02  0.24296225997E+02  0.15972202029E+03  0.16495232625E+03  0.41800000000E+01 0. -1.
         -5    1    1    2    0  502  0.70993118343E+02  0.61854530311E+02  0.28851259233E+02  0.98569129708E+02  0.41800000000E+01 0. -1.
        -11    1    1    2    0    0 -0.73439217291E+02 -0.10005318373E+02  0.32079509807E+03  0.32924598704E+03  0.00000000000E+00 0. -1.
         11    1    1    2    0    0 -0.30574609268E+02 -0.76145437935E+02  0.18788106880E+03  0.20501763452E+03  0.00000000000E+00 0.  1.
</event>
<event>
 6    1  0.6597032E-006  0.8229243E+02  0.7561462E-02  0.1322669E+00
          2   -1    0    0  501    0  0.00000000000E+00  0.00000000000E+00  0.49969412465E+02  0.49969412465E+02  0.00000000000E+00 0. -1.
         -2   -1    0    0    0  501 -0.00000000000E+00 -0.00000000000E+00 -0.24704864069E+03  0.24704864069E+03  0.00000000000E+00 0.  1.
          5    1    1    2  502    0 -0.10750531469E+02  0.39612650080E+02 -0.13123684392E+03  0.13756931917E+03  0.41800000000E+01 0.  1.
         -5    1    1    2    0  502  0.29743053829E+02 -0.22076498447E+02  0.99425054948E+01  0.38579098619E+02  0.41800000000E+01 0.  1.
        -11    1    1    2    0    0  0.50834129973E+01 -0.47410816470E+02 -0.65732953446E+02  0.81206205272E+02  0.00000000000E+00 0.  1.
         11    1    1    2    0    0 -0.24075935358E+02  0.29874664837E+02 -0.10051936350E+02  0.39663430095E+02  0.00000000000E+00 0. -1.
</event>
<event>
 6    1  0.6597032E-006  0.2184077E+03  0.7561462E-02  0.1135076E+00
         -1   -1    0    0    0  501 -0.00000000000E+00  0.00000000000E+00  0.37656812623E+02  0.37656812623E+02  0.00000000000E+00 0.  1.
          1   -1    0    0  501    0  0.00000000000E+00 -0.00000000000E+00 -0.14598540679E+04  0.14598540679E+04  0.00000000000E+00 0. -1.
          5    1    1    2  502    0 -0.85145445208E+02  0.59114222863E+01 -0.14317196144E+03  0.16673444364E+03  0.41800000000E+01 0.  1.
         -5    1    1    2    0  502 -0.46708422737E+02  0.13234371686E+03 -0.33162949721E+03  0.36012793833E+03  0.41800000000E+01 0.  1.
        -11    1    1    2    0    0  0.10886157484E+03 -0.50072473430E+02 -0.51553926944E+03  0.52928143119E+03  0.00000000000E+00 0. -1.
         11    1    1    2    0    0  0.22992293104E+02 -0.88182665714E+02 -0.43185652715E+03  0.44136706732E+03  0.00000000000E+00 0.  1.
</event>
<event>
 6    1  0.6597032E-006  0.1104780E+03  0.7561462E-02  0.1259687E+00
          1   -1    0    0  501    0  0.00000000000E+00  0.00000000000E+00  0.24141397247E+03  0.24141397247E+03  0.00000000000E+00 0. -1.
         -1   -1    0    0    0  501 -0.00000000000E+00 -0.00000000000E+00 -0.12493981203E+03  0.12493981203E+03  0.00000000000E+00 0.  1.
          5    1    1    2  502    0 -0.59613504175E+02  0.55426634314E+02 -0.64234605298E+02  0.10377590563E+03  0.41800000000E+01 0.  1.
         -5    1    1    2    0  502  0.24831188305E+02 -0.38551684845E+02 -0.11257882305E+02  0.47402875767E+02  0.41800000000E+01 0.  1.
        -11    1    1    2    0    0 -0.21344684020E+02  0.17486233972E+02  0.32321636099E+02  0.42497671402E+02  0.00000000000E+00 0.  1.
         11    1    1    2    0    0  0.56126999891E+02 -0.34361183441E+02  0.15964501195E+03  0.17267733170E+03  0.00000000000E+00 0. -1.
</event>
<event>
 6    1  0.6597032E-006  0.1636850E+03  0.7561462E-02  0.1184598E+00
         -1   -1    0    0    0  501 -0.00000000000E+00  0.00000000000E+00  0.13252362126E+03  0.13252362126E+03  0.00000000000E+00 0.  1.
          1   -1    0    0  501    0  0.00000000000E+00 -0.00000000000E+00 -0.26253561573E+03  0.26253561573E+03  0.00000000000E+00 0. -1.
          5    1    1    2  502    0 -0.14951970521E+02 -0.16764493740E+02 -0.19557542449E+02  0.30076228810E+02  0.41800000000E+01 0.  1.
         -5    1    1    2    0  502  0.12074385046E+02  0.15059204231E+03  0.25195032633E+02  0.15321885018E+03  0.41800000000E+01 0.  1.
        -11    1    1    2    0    0 -0.12859088131E+01 -0.14316148041E+03 -0.14037481325E+03  0.20050424243E+03  0.00000000000E+00 0. -1.
         11    1    1    2    0    0  0.41634942875E+01  0.93339318466E+01  0.47253285915E+01  0.11259915572E+02  0.00000000000E+00 0.  1.
</event>
<event>
 6    1  0.6597032E-006  0.8664633E+02  0.7561462E-02  0.1311182E+00
         -1   -1    0    0    0  501 -0.00000000000E+00  0.00000000000E+00  0.94392865126E+02  0.94392865126E+02  0.00000000000E+00 0.  1.
          1   -1    0    0  501    0  0.00000000000E+00 -0.00000000000E+00 -0.17990585872E+03  0.17990585872E+03  0.00000000000E+00 0. -1.
          5    1    1    2  502    0 -0.34831806647E+02 -0.62604409298E+02 -0.27599284755E+01  0.71816825487E+02  0.41800000000E+01 0.  1.
         -5    1    1    2    0  502  0.26121954555E+02  0.43257135912E+02  0.26696428416E+02  0.57303647416E+02  0.41800000000E+01 0.  1.
        -11    1    1    2    0    0 -0.18784340946E+02  0.12258700858E+02  0.84036739818E+01  0.23953057172E+02  0.00000000000E+00 0.  1.
         11    1    1    2    0    0  0.27494193038E+02  0.70885725283E+01 -0.11785316752E+03  0.12122519377E+03  0.00000000000E+00 0. -1.
</event>
<event>
 6    1  0.6597032E-006  0.1866904E+03  0.7561462E-02  0.1161481E+00
         -1   -1    0    0    0  501 -0.00000000000E+00  0.00000000000E+00  0.18832589415E+03  0.18832589415E+03  0.00000000000E+00 0.  1.
          1   -1    0    0  501    0  0.00000000000E+00 -0.00000000000E+00 -0.29191959299E+03  0.29191959299E+03  0.00000000000E+00 0. -1.
          5    1    1    2  502    0 -0.68621076100E+02  0.16160326517E+03  0.89759551950E+02  0.19722757659E+03  0.41800000000E+01 0. -1.
         -5    1    1    2    0  502  0.18844155947E+02 -0.81824351323E+01 -0.82712653673E+01  0.22537539547E+02  0.41800000000E+01 0. -1.
        -11    1    1    2    0    0  0.60036798658E+02 -0.15517890296E+03 -0.18654585478E+03  0.24996852813E+03  0.00000000000E+00 0. -1.
         11    1    1    2    0    0 -0.10259878504E+02  0.17580729219E+01  0.14638693568E+01  0.10511842884E+02  0.00000000000E+00 0.  1.
</event>
<event>
 6    1  0.6597032E-006  0.1572799E+03  0.7561462E-02  0.1191802E+00
         -2   -1    0    0    0  501 -0.00000000000E+00  0.00000000000E+00  0.37286633108E+02  0.37286633108E+02  0.00000000000E+00 0.  1.
          2   -1    0    0  501    0  0.00000000000E+00 -0.00000000000E+00 -0.96743070669E+03  0.96743070669E+03  0.00000000000E+00 0. -1.
          5    1    1    2  502    0 -0.58783135894E+02 -0.52722613384E+01 -0.23806782372E+03  0.24531003831E+03  0.41800000000E+01 0.  1.
         -5    1    1    2    0  502 -0.68321808994E+02  0.67795201126E+02 -0.82614583197E+02  0.12691217687E+03  0.41800000000E+01 0.  1.
        -11    1    1    2    0    0  0.60454525224E+02 -0.69410781227E+02 -0.24078621042E+03  0.25778014916E+03  0.00000000000E+00 0. -1.
         11    1    1    2    0    0  0.66650419664E+02  0.68878414395E+01 -0.36867545624E+03  0.37471497546E+03  0.00000000000E+00 0.  1.
</event>
<event>
 6    1  0.6597032E-006  0.1129215E+03  0.7561462E-02  0.1255253E+00
          2   -1    0    0  501    0  0.00000000000E+00  0.00000000000E+00  0.39103081513E+02  0.39103081513E+02  0.00000000000E+00 0. -1.
         -2   -1    0    0    0  501 -0.00000000000E+00 -0.00000000000E+00 -0.48466801442E+03  0.48466801442E+03  0.00000000000E+00 0.  1.
          5    1    1    2  502    0 -0.15348164117E+02 -0.68411609263E+02 -0.25151938283E+03  0.26114208157E+03  0.41800000000E+01 0.  1.
         -5    1    1    2    0  502  0.60875637860E+02  0.31333146592E+01 -0.70005946777E+02  0.92919136510E+02  0.41800000000E+01 0.  1.
        -11    1    1    2    0    0 -0.56041677054E+02  0.45816528003E+02 -0.12817836506E+03  0.14720569647E+03  0.00000000000E+00 0.  1.
         11    1    1    2    0    0  0.10514203312E+02  0.19461766601E+02  0.41387617667E+01  0.22504181378E+02  0.00000000000E+00 0. -1.
</event>
<event>
 6    1  0.6597032E-006  0.7672387E+02  0.7561462E-02  0.1338614E+00
          3   -1    0    0  501    0  0.00000000000E+00  0.00000000000E+00  0.23408420009E+03  0.23408420009E+03  0.00000000000E+00 0. -1.
         -3   -1    0    0    0  501 -0.00000000000E+00 -0.00000000000E+00 -0.59146016322E+02  0.59146016322E+02  0.00000000000E+00 0.  1.
          5    1    1    2  502    0  0.29073063903E+02 -0.56992247119E+02  0.82090800506E+02  0.10416204301E+03  0.41800000000E+01 0. -1.
         -5    1    1    2    0  502 -0.20967846871E+02  0.23292131083E+02 -0.22353465623E+02  0.38721102750E+02  0.41800000000E+01 0. -1.
        -11    1    1    2    0    0 -0.27011299747E+02  0.25361320477E+02  0.12284816467E+03  0.12831398386E+03  0.00000000000E+00 0. -1.
         11    1    1    2    0    0  0.18906082715E+02  0.83387955589E+01 -0.76473157840E+01  0.22033086795E+02  0.00000000000E+00 0.  1.
</event>
<event>
 6    1  0.6597032E-006  0.1552919E+03  0.7561462E-02  0.1194117E+00
          2   -1    0    0  501    0  0.00000000000E+00  0.00000000000E+00  0.51981395060E+03  0.51981395060E+03  0.00000000000E+00 0. -1.
         -2   -1    0    0    0  501 -0.00000000000E+00 -0.00000000000E+00 -0.57460250400E+02  0.57460250400E+02  0.00000000000E+00 0.  1.
          5    1    1    2  502    0 -0.37767506600E+02 -0.15367766076E+02  0.68990407097E+01  0.41564671918E+02  0.41800000000E+01 0.  1.
         -5    1    1    2    0  502  0.64598623307E+01 -0.10203815341E+03  0.23809344848E+03  0.25915145607E+03  0.41800000000E+01 0.  1.
        -11    1    1    2    0    0  0.70789843249E+02  0.10353086000E+03  0.13559645599E+03  0.18470581950E+03  0.00000000000E+00 0.  1.
         11    1    1    2    0    0 -0.39482198980E+02  0.13875059484E+02  0.81764755022E+02  0.91852253515E+02  0.00000000000E+00 0. -1.
</event>
<event>
 6    1  0.6597032E-006  0.9796197E+02  0.7561462E-02  0.1284641E+00
         -2   -1    0    0    0  501 -0.00000000000E+00  0.00000000000E+00  0.10548014977E+03  0.10548014977E+03  0.00000000000E+00 0.  1.
          2   -1    0    0  501    0  0.00000000000E+00 -0.00000000000E+00 -0.14441125142E+03  0.14441125142E+03  0.00000000000E+00 0. -1.
          5    1    1    2  502    0  0.49520070930E+02 -0.10948874448E+02 -0.13749656882E+02  0.52712813822E+02  0.41800000000E+01 0.  1.
         -5    1    1    2    0  502 -0.57266162969E+02 -0.41626445813E+02  0.53655130040E+02  0.88929858832E+02  0.41800000000E+01 0.  1.
        -11    1    1    2    0    0  0.26597526938E+02  0.47748104860E+02 -0.56135567798E+02  0.78348656204E+02  0.00000000000E+00 0.  1.
         11    1    1    2    0    0 -0.18851434900E+02  0.48272154010E+01 -0.22701007013E+02  0.29900072336E+02  0.00000000000E+00 0. -1.
</event>
<event>
 6    1  0.6597032E-006  0.2052322E+03  0.7561462E-02  0.1145398E+00
         -2   -1    0    0    0  501 -0.00000000000E+00  0.00000000000E+00  0.12723861017E+03  0.12723861017E+03  0.00000000000E+00 0.  1.
          2   -1    0    0  501    0  0.00000000000E+00 -0.00000000000E+00 -0.44011604472E+03  0.44011604472E+03  0.00000000000E+00 0. -1.
          5    1    1    2  502    0 -0.41981044243E+02 -0.15061922521E+03  0.21658318382E+01  0.15643120631E+03  0.41800000000E+01 0. -1.
         -5    1    1    2    0  502  0.40476823906E+02 -0.36195651560E+02 -0.48938702582E+02  0.73218627929E+02  0.41800000000E+01 0. -1.
        -11    1    1    2    0    0  0.35518711681E+02  0.10962223826E+03 -0.10520740056E+03  0.15603592898E+03  0.00000000000E+00 0.  1.
         11    1    1    2    0    0 -0.34014491344E+02  0.77192638513E+02 -0.16089716324E+03  0.18166889167E+03  0.00000000000E+00 0. -1.
</event>
<event>
 6    1  0.6597032E-006  0.1328965E+03  0.7561462E-02  0.1223220E+00
         -4   -1    0    0    0  501 -0.00000000000E+00  0.00000000000E+00  0.10707484925E+04  0.10707484925E+04  0.00000000000E+00 0. -1.
          4   -1    0    0  501    0  0.00000000000E+00 -0.00000000000E+00 -0.20625290596E+02  0.20625290596E+02  0.00000000000E+00 0.  1.
          5    1    1    2  502    0  0.19163589621E+02 -0.11098311238E+03  0.31366304824E+03  0.33329637656E+03  0.41800000000E+01 0. -1.
         -5    1    1    2    0  502 -0.17185185967E+02  0.11421773257E+02  0.30389846361E+03  0.30462688014E+03  0.41800000000E+01 0. -1.
        -11    1    1    2    0    0  0.26900033730E+02 -0.14882142100E+01  0.14040056559E+03  0.14296204186E+03  0.00000000000E+00 0.  1.
         11    1    1    2    0    0 -0.28878437383E+02  0.10104955333E+03  0.29216112449E+03  0.31048848455E+03  0.00000000000E+00 0. -1.
</event>
<event>
 6    1  0.6597032E-006  0.9572659E+02  0.7561462E-02  0.1289548E+00
         -3   -1    0    0    0  501 -0.00000000000E+00  0.00000000000E+00  0.58078767444E+02  0.58078767444E+02  0.00000000000E+00 0.  1.
          3   -1    0    0  501    0  0.00000000000E+00 -0.00000000000E+00 -0.22819027462E+03  0.22819027462E+03  0.00000000000E+00 0. -1.
          5    1    1    2  502    0  0.32424142248E+02 -0.63430903437E+02  0.25126626033E+01  0.71404414322E+02  0.41800000000E+01 0.  1.
         -5    1    1    2    0  502 -0.18262204103E+02  0.22093912007E+02 -0.73304617885E+02  0.78820609296E+02  0.41800000000E+01 0.  1.
        -11    1    1    2    0    0 -0.29586505422E+02 -0.14676702261E+02 -0.23547062540E+02  0.40561447787E+02  0.00000000000E+00 0.  1.
         11    1    1    2    0    0  0.15424567276E+02  0.56013693691E+02 -0.75772489353E+02  0.95482570657E+02  0.00000000000E+00 0. -1.
</event>
<event>
 6    1  0.6597032E-006  0.1717087E+03  0.7561462E-02  0.1176078E+00
         -2   -1    0    0    0  501 -0.00000000000E+00  0.00000000000E+00  0.16361069647E+03  0.16361069647E+03  0.00000000000E+00 0. -1.
          2   -1    0    0  501    0  0.00000000000E+00 -0.00000000000E+00 -0.23117320751E+03  0.23117320751E+03  0.00000000000E+00 0.  1.
          5    1    1    2  502    0 -0.29348847971E+02 -0.52067042289E+02 -0.39285928021E+02  0.71646272132E+02  0.41800000000E+01 0.  1.
         -5    1    1    2    0  502 -0.12159379385E+03  0.96149922922E+01  0.41635348667E+02  0.12895143830E+03  0.41800000000E+01 0.  1.
        -11    1    1    2    0    0  0.41006252723E+02  0.30019902395E+02 -0.66238666111E+02  0.83488132034E+02  0.00000000000E+00 0.  1.
         11    1    1    2    0    0  0.10993638910E+03  0.12432147602E+02 -0.36732655752E+01  0.11069806151E+03  0.00000000000E+00 0. -1.
</event>
<event>
 6    1  0.6597032E-006  0.1709886E+03  0.7561462E-02  0.1176821E+00
         -2   -1    0    0    0  501 -0.00000000000E+00  0.00000000000E+00  0.17497457967E+03  0.17497457967E+03  0.00000000000E+00 0. -1.
          2   -1    0    0  501    0  0.00000000000E+00 -0.00000000000E+00 -0.19495019734E+03  0.19495019734E+03  0.00000000000E+00 0.  1.
          5    1    1    2  502    0  0.91451727634E+02  0.11300981174E+03  0.39678057479E+02  0.15075296575E+03  0.41800000000E+01 0.  1.
         -5    1    1    2    0  502  0.24911276460E+02 -0.33253424309E+02 -0.74755482305E+00  0.41765933024E+02  0.41800000000E+01 0.  1.
        -11    1    1    2    0    0 -0.11375738429E+03 -0.48913584035E+02 -0.16525381815E+02  0.12492545548E+03  0.00000000000E+00 0. -1.
         11    1    1    2    0    0 -0.26056198082E+01 -0.30842803392E+02 -0.42380738513E+02  0.52480422756E+02  0.00000000000E+00 0.  1.
</event>
<event>
 6    1  0.6597032E-006  0.1246778E+03  0.7561462E-02  0.1235574E+00
         -1   -1    0    0    0  501 -0.00000000000E+00  0.00000000000E+00  0.20077706427E+03  0.20077706427E+03  0.00000000000E+00 0.  1.
          1   -1    0    0  501    0  0.00000000000E+00 -0.00000000000E+00 -0.94384555314E+02  0.94384555314E+02  0.00000000000E+00 0. -1.
          5    1    1    2  502    0  0.10616775143E+03 -0.15283162340E+02  0.76229314623E+02  0.13165693033E+03  0.41800000000E+01 0.  1.
         -5    1    1    2    0  502 -0.31794606832E+02 -0.19793596754E+02  0.32325767149E+01  0.37823345282E+02  0.41800000000E+01 0.  1.
        -11    1    1    2    0    0 -0.36372865272E+01  0.33373166991E+02 -0.21565368426E+02  0.39900667208E+02  0.00000000000E+00 0. -1.
         11    1    1    2    0    0 -0.70735858075E+02  0.17035921030E+01  0.48495986043E+02  0.85780676764E+02  0.00000000000E+00 0.  1.
</event>
<event>
 6    1  0.6597032E-006  0.1696375E+03  0.7561462E-02  0.1178226E+00
         -2   -1    0    0    0  501 -0.00000000000E+00  0.00000000000E+00  0.25998494323E+03  0.25998494323E+03  0.00000000000E+00 0.  1.
          2   -1    0    0  501    0  0.00000000000E+00 -0.00000000000E+00 -0.19683442422E+03  0.19683442422E+03  0.00000000000E+00 0. -1.
          5    1    1    2  502    0  0.14510191688E+03  0.70995661690E+01  0.14849221605E+03  0.20777964470E+03  0.41800000000E+01 0.  1.
         -5    1    1    2    0  502 -0.10981138289E+02  0.40943284737E+02  0.26137742216E+02  0.49975913512E+02  0.41800000000E+01 0.  1.
        -11    1    1    2    0    0 -0.12148371991E+03 -0.23496439275E+02 -0.53419395478E+02  0.13477391689E+03  0.00000000000E+00 0.  1.
         11    1    1    2    0    0 -0.12637058689E+02 -0.24546411631E+02 -0.58060043770E+02  0.64289892354E+02  0.00000000000E+00 0. -1.
</event>
<event>
 6    1  0.6597032E-006  0.1686270E+03  0.7561462E-02  0.1179287E+00
          4   -1    0    0  501    0  0.00000000000E+00  0.00000000000E+00  0.57161593129E+02  0.57161593129E+02  0.00000000000E+00 0. -1.
         -4   -1    0    0    0  501 -0.00000000000E+00 -0.00000000000E+00 -0.70143527985E+03  0.70143527985E+03  0.00000000000E+00 0.  1.
          5    1    1    2  502    0  0.67272782980E+02  0.14069606678E+02 -0.94011587500E+02  0.11652996244E+03  0.41800000000E+01 0. -1.
         -5    1    1    2    0  502  0.75226013898E+02 -0.56827133230E+02 -0.40075373009E+03  0.41171507238E+03  0.41800000000E+01 0.  1.
        -11    1    1    2    0    0 -0.51516347668E+02 -0.28124803739E+02 -0.37962154882E+02  0.69900385304E+02  0.00000000000E+00 0.  1.
         11    1    1    2    0    0 -0.90982449210E+02  0.70882330291E+02 -0.11154621424E+03  0.16045145286E+03  0.00000000000E+00 0. -1.
</event>
<event>
 6    1  0.6597032E-006  0.1974376E+03  0.7561462E-02  0.1151919E+00
          2   -1    0    0  501    0  0.00000000000E+00  0.00000000000E+00  0.47856150388E+03  0.47856150388E+03  0.00000000000E+00 0. -1.
         -2   -1    0    0    0  501 -0.00000000000E+00 -0.00000000000E+00 -0.87880740653E+02  0.87880740653E+02  0.00000000000E+00 0.  1.
          5    1    1    2  502    0 -0.17285883452E+03 -0.36722113526E+02  0.12045234889E+03  0.21390402298E+03  0.41800000000E+01 0.  1.
         -5    1    1    2    0  502  0.77163964457E+01  0.28164111373E+02  0.10401805914E+02  0.31279864287E+02  0.41800000000E+01 0.  1.
        -11    1    1    2    0    0  0.14546911581E+03 -0.27017508982E+02  0.19579281988E+03  0.24540993819E+03  0.00000000000E+00 0.  1.
         11    1    1    2    0    0  0.19673322262E+02  0.35575511135E+02  0.64033788551E+02  0.75848419084E+02  0.00000000000E+00 0. -1.
</event>
<event>
 6    1  0.6597032E-006  0.6631963E+02  0.7561462E-02  0.1373075E+00
          2   -1    0    0  501    0  0.00000000000E+00  0.00000000000E+00  0.54805898143E+03  0.54805898143E+03  0.00000000000E+00 0. -1.
         -2   -1    0    0    0  501 -0.00000000000E+00 -0.00000000000E+00 -0.27657192986E+02  0.27657192986E+02  0.00000000000E+00 0.  1.
          5    1    1    2  502    0  0.33773672191E+01 -0.15668071791E+02  0.15655913786E+03  0.15743294169E+03  0.41800000000E+01 0. -1.
         -5    1    1    2    0  502 -0.30290535875E+02 -0.16233590213E+02 -0.58216207547E+01  0.35105693029E+02  0.41800000000E+01 0.  1.
        -11    1    1    2    0    0  0.18714042541E+02  0.54389864603E+02  0.34107438152E+03  0.34589045446E+03  0.00000000000E+00 0. -1.
         11    1    1    2    0    0  0.81991261152E+01 -0.22488202599E+02  0.28589889828E+02  0.37287085238E+02  0.00000000000E+00 0.  1.
</event>
<event>
 6    1  0.6597032E-006  0.1155773E+03  0.7561462E-02  0.1250577E+00
         -1   -1    0    0    0  501 -0.00000000000E+00  0.00000000000E+00  0.12977812581E+03  0.12977812581E+03  0.00000000000E+00 0.  1.
          1   -1    0    0  501    0  0.00000000000E+00 -0.00000000000E+00 -0.13623143463E+03  0.13623143463E+03  0.00000000000E+00 0. -1.
          5    1    1    2  502    0 -0.56700649006E+02 -0.39545187316E+02  0.63346721374E+01  0.69544129218E+02  0.41800000000E+01 0.  1.
         -5    1    1    2    0  502  0.56703106401E+01  0.62323181801E+02  0.43115451916E+02  0.76110091358E+02  0.41800000000E+01 0.  1.
        -11    1    1    2    0    0  0.49843982050E+02  0.21930529863E+02 -0.52272922539E+02  0.75483965963E+02  0.00000000000E+00 0. -1.
         11    1    1    2    0    0  0.11863563161E+01 -0.44708524348E+02 -0.36305103382E+01  0.44871373904E+02  0.00000000000E+00 0.  1.
</event>
<event>
 6    1  0.6597032E-006  0.1096651E+03  0.7561462E-02  0.1261191E+00
          2   -1    0    0  501    0  0.00000000000E+00  0.00000000000E+00  0.71144613169E+03  0.71144613169E+03  0.00000000000E+00 0. -1.
         -2   -1    0    0    0  501 -0.00000000000E+00 -0.00000000000E+00 -0.20671042967E+02  0.20671042967E+02  0.00000000000E+00 0.  1.
          5    1    1    2  502    0 -0.44375378759E+02 -0.46063819501E+02  0.19588397189E+03  0.20610446999E+03  0.41800000000E+01 0.  1.
         -5    1    1    2    0  502  0.57485992138E+02  0.99633640067E+01  0.78681102226E+02  0.98041298247E+02  0.41800000000E+01 0.  1.
        -11    1    1    2    0    0  0.38283529366E+02  0.13472539018E+02  0.22718205999E+03  0.23077873886E+03  0.00000000000E+00 0. -1.
         11    1    1    2    0    0 -0.51394142745E+02  0.22627916476E+02  0.18902795462E+03  0.19719266757E+03  0.00000000000E+00 0.  1.
</event>
<event>
 6    1  0.6597032E-006  0.1072376E+03  0.7561462E-02  0.1265773E+00
          1   -1    0    0  501    0  0.00000000000E+00  0.00000000000E+00  0.10680444796E+04  0.10680444796E+04  0.00000000000E+00 0. -1.
         -1   -1    0    0    0  501 -0.00000000000E+00 -0.00000000000E+00 -0.18560959848E+02  0.18560959848E+02  0.00000000000E+00 0.  1.
          5    1    1    2  502    0 -0.36118221253E+02 -0.71150130194E+01  0.35756439111E+02  0.51489267373E+02  0.41800000000E+01 0.  1.
         -5    1    1    2    0  502 -0.48183245975E+02 -0.18641382342E+02  0.60800855509E+03  0.61021389839E+03  0.41800000000E+01 0.  1.
        -11    1    1    2    0    0  0.79836254751E+02 -0.17810401239E+02  0.24328377329E+03  0.25666716251E+03  0.00000000000E+00 0.  1.
         11    1    1    2    0    0  0.44652124763E+01  0.43566796600E+02  0.16243475223E+03  0.16823511114E+03  0.00000000000E+00 0. -1.
</event>
<event>
 6    1  0.6597032E-006  0.9473808E+02  0.7561462E-02  0.1291767E+00
          1   -1    0    0  501    0  0.00000000000E+00  0.00000000000E+00  0.68272224677E+02  0.68272224677E+02  0.00000000000E+00 0. -1.
         -1   -1    0    0    0  501 -0.00000000000E+00 -0.00000000000E+00 -0.26420409108E+03  0.26420409108E+03  0.00000000000E+00 0.  1.
          5    1    1    2  502    0 -0.77767977621E+02 -0.86573941045E+01 -0.51292163467E+02  0.93654510031E+02  0.41800000000E+01 0. -1.
         -5    1    1    2    0  502  0.22007541617E+02  0.36287081824E+02 -0.12022676612E+03  0.12756579434E+03  0.41800000000E+01 0. -1.
        -11    1    1    2    0    0  0.25247220172E+02  0.27711604130E+01 -0.53540210154E+02  0.59259223415E+02  0.00000000000E+00 0. -1.
         11    1    1    2    0    0  0.30513215832E+02 -0.30400848132E+02  0.29127273331E+02  0.51996787971E+02  0.00000000000E+00 0.  1.
</event>
<event>
 6    1  0.6597032E-006  0.2586271E+03  0.7561462E-02  0.1107971E+00
          2   -1    0    0  501    0  0.00000000000E+00  0.00000000000E+00  0.75796767719E+03  0.75796767719E+03  0.00000000000E+00 0.  1.
         -2   -1    0    0    0  501 -0.00000000000E+00 -0.00000000000E+00 -0.10540333584E+03  0.10540333584E+03  0.00000000000E+00 0. -1.
          5    1    1    2  502    0  0.12584703418E+02 -0.20617016671E+02 -0.10542556447E+02  0.26684340595E+02  0.41800000000E+01 0.  1.
         -5    1    1    2    0  502  0.10080819288E+03 -0.20879578870E+03  0.30315881047E+03  0.38168142462E+03  0.41800000000E+01 0.  1.
        -11    1    1    2    0    0 -0.65375450918E+02  0.18191285883E+03  0.32698411431E+03  0.37984845505E+03  0.00000000000E+00 0.  1.
         11    1    1    2    0    0 -0.48017445377E+02  0.47499946539E+02  0.32963973009E+02  0.75156792762E+02  0.00000000000E+00 0. -1.
</event>
<event>
 6    1  0.6597032E-006  0.1123396E+03  0.7561462E-02  0.1256298E+00
         -2   -1    0    0    0  501 -0.00000000000E+00  0.00000000000E+00  0.29642746090E+02  0.29642746090E+02  0.00000000000E+00 0.  1.
          2   -1    0    0  501    0  0.00000000000E+00 -0.00000000000E+00 -0.62603675302E+03  0.62603675302E+03  0.00000000000E+00 0. -1.
          5    1    1    2  502    0  0.57278751829E+02  0.29495529439E+02 -0.38540730383E+02  0.75191102974E+02  0.41800000000E+01 0. -1.
         -5    1    1    2    0  502 -0.41226493254E+02  0.27133446058E+02 -0.15450937616E+03  0.16225432926E+03  0.41800000000E+01 0. -1.
        -11    1    1    2    0    0 -0.51918282153E+02 -0.11920897950E+02 -0.19041527796E+03  0.19772605774E+03  0.00000000000E+00 0.  1.
         11    1    1    2    0    0  0.35866023578E+02 -0.44708077546E+02 -0.21292862242E+03  0.22050800913E+03  0.00000000000E+00 0. -1.
</event>
<event>
 6    1  0.6597032E-006  0.6659718E+02  0.7561462E-02  0.1372062E+00
          2   -1    0    0  501    0  0.00000000000E+00  0.00000000000E+00  0.41243284118E+02  0.41243284118E+02  0.00000000000E+00 0. -1.
         -2   -1    0    0    0  501 -0.00000000000E+00 -0.00000000000E+00 -0.20900962192E+03  0.20900962192E+03  0.00000000000E+00 0.  1.
          5    1    1    2  502    0 -0.53686154399E+02 -0.11155246406E+02  0.14994450446E-01  0.54991956879E+02  0.41800000000E+01 0. -1.
         -5    1    1    2    0  502  0.45231766401E+02  0.16200752965E+02 -0.15337122044E+03  0.16077493819E+03  0.41800000000E+01 0.  1.
        -11    1    1    2    0    0  0.96990669751E+01  0.10549628617E+02 -0.19030329821E+01  0.14456420673E+02  0.00000000000E+00 0. -1.
         11    1    1    2    0    0 -0.12446789764E+01 -0.15595135176E+02 -0.12507078831E+02  0.20029590305E+02  0.00000000000E+00 0.  1.
</event>
<event>
 6    1  0.6597032E-006  0.9761197E+02  0.7561462E-02  0.1285399E+00
          3   -1    0    0  501    0  0.00000000000E+00  0.00000000000E+00  0.35137658523E+03  0.35137658523E+03  0.00000000000E+00 0.  1.
         -3   -1    0    0    0  501 -0.00000000000E+00 -0.00000000000E+00 -0.52835484559E+02  0.52835484559E+02  0.00000000000E+00 0. -1.
          5    1    1    2  502    0 -0.72289109130E+01 -0.16628718782E+02  0.13479747154E+03  0.13607572221E+03  0.41800000000E+01 0.  1.
         -5    1    1    2    0  502 -0.33622029741E+02 -0.50088679058E+02 -0.47136819838E+01  0.60654825459E+02  0.41800000000E+01 0.  1.
        -11    1    1    2    0    0  0.12186916743E+02  0.82518911307E+02  0.91291093285E+02  0.12366064603E+03  0.00000000000E+00 0. -1.
         11    1    1    2    0    0  0.28664023911E+02 -0.15801513468E+02  0.77166217836E+02  0.83820876098E+02  0.00000000000E+00 0.  1.
</event>
<event>
 6    1  0.6597032E-006  0.1270080E+03  0.7561462E-02  0.1231964E+00
          2   -1    0    0  501    0  0.00000000000E+00  0.00000000000E+00  0.15803442350E+03  0.15803442350E+03  0.00000000000E+00 0. -1.
         -2   -1    0    0    0  501 -0.00000000000E+00 -0.00000000000E+00 -0.14548830615E+03  0.14548830615E+03  0.00000000000E+00 0.  1.
          5    1    1    2  502    0  0.54928680171E+02 -0.52172195461E+02  0.35868588104E+02  0.83923333448E+02  0.41800000000E+01 0.  1.
         -5    1    1    2    0  502 -0.22368601916E+02 -0.43024751488E+02 -0.61855124457E+02  0.78708401164E+02  0.41800000000E+01 0.  1.
        -11    1    1    2    0    0 -0.41970526314E+02  0.92067692145E+01 -0.63527234627E+01  0.43435547352E+02  0.00000000000E+00 0.  1.
         11    1    1    2    0    0  0.94104480593E+01  0.85990177734E+02  0.44885377168E+02  0.97455447682E+02  0.00000000000E+00 0. -1.
</event>
<event>
 6    1  0.6597032E-006  0.1490402E+03  0.7561462E-02  0.1201657E+00
          1   -1    0    0  501    0  0.00000000000E+00  0.00000000000E+00  0.60383266231E+02  0.60383266231E+02  0.00000000000E+00 0. -1.
         -1   -1    0    0    0  501 -0.00000000000E+00 -0.00000000000E+00 -0.49810504701E+03  0.49810504701E+03  0.00000000000E+00 0.  1.
          5    1    1    2  502    0  0.21404380514E+02  0.25935480384E+02 -0.18276277334E+03  0.18587764892E+03  0.41800000000E+01 0.  1.
         -5    1    1    2    0  502 -0.93139771953E+02  0.66858580715E+02 -0.15408324191E+03  0.19210467139E+03  0.41800000000E+01 0.  1.
        -11    1    1    2    0    0  0.91184554772E+02 -0.53753815855E+02 -0.75844658403E+02  0.13021715692E+03  0.00000000000E+00 0. -1.
         11    1    1    2    0    0 -0.19449163333E+02 -0.39040245243E+02 -0.25031107124E+02  0.50288836006E+02  0.00000000000E+00 0.  1.
</event>
<event>
 6    1  0.6597032E-006  0.1017901E+03  0.7561462E-02  0.1276576E+00
          1   -1    0    0  501    0  0.00000000000E+00  0.00000000000E+00  0.20111218426E+03  0.20111218426E+03  0.00000000000E+00 0. -1.
         -1   -1    0    0    0  501 -0.00000000000E+00 -0.00000000000E+00 -0.93504631841E+02  0.93504631841E+02  0.00000000000E+00 0.  1.
          5    1    1    2  502    0 -0.16694082543E+02 -0.22928907209E+02 -0.49443689593E+02  0.57153985148E+02  0.41800000000E+01 0. -1.
         -5    1    1    2    0  502  0.65031139902E+02 -0.12667946121E+02  0.47481515685E+02  0.81617968288E+02  0.41800000000E+01 0. -1.
        -11    1    1    2    0    0 -0.26243268789E+02  0.65952273497E+02  0.86022968143E+02  0.11152740732E+03  0.00000000000E+00 0. -1.
         11    1    1    2    0    0 -0.22093788569E+02 -0.30355420166E+02  0.23546758182E+02  0.44317455339E+02  0.00000000000E+00 0.  1.
</event>
<event>
 6    1  0.6597032E-006  0.9930002E+02  0.7561462E-02  0.1281775E+00
          2   -1    0    0  501    0  0.00000000000E+00  0.00000000000E+00  0.14010960431E+02  0.14010960431E+02  0.00000000000E+00 0.  1.
         -2   -1    0    0    0  501 -0.00000000000E+00 -0.00000000000E+00 -0.92410007421E+03  0.92410007421E+03  0.00000000000E+00 0. -1.
          5    1    1    2  502    0 -0.46078270909E+02  0.22244675862E+02 -0.27586015705E+03  0.28059638505E+03  0.41800000000E+01 0. -1.
         -5    1    1    2    0  502  0.72594129243E+02 -0.21474553089E+02 -0.32635877034E+03  0.33505012074E+03  0.41800000000E+01 0. -1.
        -11    1    1    2    0    0  0.21857965044E+02  0.58291348484E+01 -0.19130663469E+02  0.29626537659E+02  0.00000000000E+00 0.  1.
         11    1    1    2    0    0 -0.48373823377E+02 -0.65992576210E+01 -0.28873952292E+03  0.29283799119E+03  0.00000000000E+00 0. -1.
</event>
<event>
 6    1  0.6597032E-006  0.1034589E+03  0.7561462E-02  0.1273186E+00
          2   -1    0    0  501    0  0.00000000000E+00  0.00000000000E+00  0.71403190843E+02  0.71403190843E+02  0.00000000000E+00 0.  1.
         -2   -1    0    0    0  501 -0.00000000000E+00 -0.00000000000E+00 -0.26785035350E+03  0.26785035350E+03  0.00000000000E+00 0. -1.
          5    1    1    2  502    0  0.10309922827E+02  0.80589760223E+02 -0.18340076574E+03  0.20063478571E+03  0.41800000000E+01 0.  1.
         -5    1    1    2    0  502 -0.49642414923E+01 -0.86616355557E+01  0.16705275791E+02  0.19904930629E+02  0.41800000000E+01 0.  1.
        -11    1    1    2    0    0  0.35315985622E+02 -0.39589935783E+01 -0.12344149041E+02  0.37620080889E+02  0.00000000000E+00 0.  1.
         11    1    1    2    0    0 -0.40661666956E+02 -0.67969131089E+02 -0.17407523662E+02  0.81093747112E+02  0.00000000000E+00 0. -1.
</event>
<event>
 6    1  0.6597032E-006  0.2365109E+03  0.7561462E-02  0.1122139E+00
         -3   -1    0    0    0  501 -0.00000000000E+00  0.00000000000E+00  0.21623864128E+03  0.21623864128E+03  0.00000000000E+00 0.  1.
          3   -1    0    0  501    0  0.00000000000E+00 -0.00000000000E+00 -0.29694919996E+03  0.29694919996E+03  0.00000000000E+00 0. -1.
          5    1    1    2  502    0 -0.13686507067E+03  0.77605922876E+02  0.27464995758E+02  0.15977022635E+03  0.41800000000E+01 0. -1.
         -5    1    1    2    0  502 -0.78096200816E+02 -0.49318239457E+02  0.44843310049E+01  0.92568282632E+02  0.41800000000E+01 0. -1.
        -11    1    1    2    0    0  0.15570124970E+03  0.38661086490E+01 -0.11465265624E+03  0.19339870097E+03  0.00000000000E+00 0. -1.
         11    1    1    2    0    0  0.59260021783E+02 -0.32153792068E+02  0.19927707869E+01  0.67450631291E+02  0.00000000000E+00 0.  1.
</event>
<event>
 6    1  0.6597032E-006  0.8838236E+02  0.7561462E-02  0.1306817E+00
         -1   -1    0    0    0  501 -0.00000000000E+00  0.00000000000E+00  0.91392570104E+02  0.91392570104E+02  0.00000000000E+00 0.  1.
          1   -1    0    0  501    0  0.00000000000E+00 -0.00000000000E+00 -0.18756272260E+03  0.18756272260E+03  0.00000000000E+00 0. -1.
          5    1    1    2  502    0 -0.77770129711E+02  0.27038937137E+02 -0.27497903025E+02  0.86907446560E+02  0.41800000000E+01 0. -1.
         -5    1    1    2    0  502  0.26041749440E+02 -0.21837095209E+02  0.34694626307E+02  0.48746496651E+02  0.41800000000E+01 0. -1.
        -11    1    1    2    0    0  0.19243587362E+02 -0.16842218227E+02 -0.10566690532E+03  0.10871738982E+03  0.00000000000E+00 0. -1.
         11    1    1    2    0    0  0.32484792908E+02  0.11640376300E+02  0.23000295430E+01  0.34583959672E+02  0.00000000000E+00 0.  1.
</event>
<event>
 6    1  0.6597032E-006  0.2304212E+03  0.7561462E-02  0.1126344E+00
         -2   -1    0    0    0  501 -0.00000000000E+00  0.00000000000E+00  0.26724267356E+03  0.26724267356E+03  0.00000000000E+00 0.  1.
          2   -1    0    0  501    0  0.00000000000E+00 -0.00000000000E+00 -0.33018947604E+03  0.33018947604E+03  0.00000000000E+00 0. -1.
          5    1    1    2  502    0  0.49271739809E+02  0.84307151557E+02  0.11418850727E+03  0.15030598039E+03  0.41800000000E+01 0. -1.
         -5    1    1    2    0  502 -0.36202198875E+02  0.12583946379E+03  0.31811040483E+02  0.13481685557E+03  0.41800000000E+01 0. -1.
        -11    1    1    2    0    0  0.35839950422E+02 -0.15172947305E+03 -0.14245828092E+03  0.21118877064E+03  0.00000000000E+00 0.  1.
         11    1    1    2    0    0 -0.48909491356E+02 -0.58417142293E+02 -0.66488069310E+02  0.10112054301E+03  0.00000000000E+00 0. -1.
</event>
<event>
 6    1  0.6597032E-006  0.1131396E+03  0.7561462E-02  0.1254864E+00
          1   -1    0    0  501    0  0.00000000000E+00  0.00000000000E+00  0.17487690436E+03  0.17487690436E+03  0.00000000000E+00 0. -1.
         -1   -1    0    0    0  501 -0.00000000000E+00 -0.00000000000E+00 -0.13245046098E+03  0.13245046098E+03  0.00000000000E+00 0.  1.
          5    1    1    2  502    0 -0.42168360433E+02  0.39797366386E+02  0.54048952006E+02  0.79377343151E+02  0.41800000000E+01 0.  1.
         -5    1    1    2    0  502 -0.19123624075E+01  0.48844685651E+02 -0.63747913099E+02  0.80440843300E+02  0.41800000000E+01 0.  1.
        -11    1    1    2    0    0  0.61656653332E+02 -0.73031591399E+02  0.69586535646E+02  0.11822623307E+03  0.00000000000E+00 0. -1.
         11    1    1    2    0    0 -0.17575930491E+02 -0.15610460638E+02 -0.17461131168E+02  0.29282945815E+02  0.00000000000E+00 0.  1.
</event>
<event>
 6    1  0.6597032E-006  0.1251004E+03  0.7561462E-02  0.1234912E+00
         -1   -1    0    0    0  501 -0.00000000000E+00  0.00000000000E+00  0.14054754051E+03  0.14054754051E+03  0.00000000000E+00 0.  1.
          1   -1    0    0  501    0  0.00000000000E+00 -0.00000000000E+00 -0.18122719693E+03  0.18122719693E+03  0.00000000000E+00 0. -1.
          5    1    1    2  502    0 -0.18499127320E+02 -0.28818223947E+01 -0.23927708892E+02  0.30668065879E+02  0.41800000000E+01 0. -1.
         -5    1    1    2    0  502  0.11666863995E+03 -0.34176319470E+01  0.65094270803E+02  0.13370859452E+03  0.41800000000E+01 0. -1.
        -11    1    1    2    0    0 -0.58407420052E+02 -0.25086890670E+02 -0.85578049829E+02  0.10660385271E+03  0.00000000000E+00 0.  1.
         11    1    1    2    0    0 -0.39762092580E+02  0.31386345012E+02  0.37318314958E+01  0.50794224336E+02  0.00000000000E+00 0. -1.
</event>
<event>
 6    1  0.6597032E-006  0.6765578E+02  0.7561462E-02  0.1368251E+00
         -2   -1    0    0    0  501 -0.00000000000E+00  0.00000000000E+00  0.84394598561E+02  0.84394598561E+02  0.00000000000E+00 0.  1.
          2   -1    0    0  501    0  0.00000000000E+00 -0.00000000000E+00 -0.15495685296E+03  0.15495685296E+03  0.00000000000E+00 0. -1.
          5    1    1    2  502    0 -0.32523591077E+02  0.38887599319E+02 -0.57946155876E+02  0.77105503942E+02  0.41800000000E+01 0. -1.
         -5    1    1    2    0  502  0.31785134569E+02 -0.13559930341E+02  0.38613031997E+02  0.51986586062E+02  0.41800000000E+01 0. -1.
        -11    1    1    2    0    0 -0.20257767742E+02 -0.18827821583E+02 -0.73765528155E+02  0.78779547875E+02  0.00000000000E+00 0. -1.
         11    1    1    2    0    0  0.20996224250E+02 -0.64998473939E+01  0.22536397631E+02  0.31479813645E+02  0.00000000000E+00 0.  1.
</event>
<event>
 6    1  0.6597032E-006  0.7119501E+02  0.7561462E-02  0.1356076E+00
          2   -1    0    0  501    0  0.00000000000E+00  0.00000000000E+00  0.10040090445E+03  0.10040090445E+03  0.00000000000E+00 0. -1.
         -2   -1    0    0    0  501 -0.00000000000E+00 -0.00000000000E+00 -0.27380659624E+03  0.27380659624E+03  0.00000000000E+00 0.  1.
          5    1    1    2  502    0  0.13183342756E+02 -0.85180864616E+01 -0.19080449428E+03  0.19149461026E+03  0.41800000000E+01 0.  1.
         -5    1    1    2    0  502 -0.50001347009E+02 -0.33760605613E+02 -0.27846581725E+02  0.66579409038E+02  0.41800000000E+01 0.  1.
        -11    1    1    2    0    0 -0.47129197910E+01  0.15630773337E+02  0.61928706538E+02  0.64044495326E+02  0.00000000000E+00 0. -1.
         11    1    1    2    0    0  0.41530924045E+02  0.26647918738E+02 -0.16683322325E+02  0.52088986061E+02  0.00000000000E+00 0.  1.
</event>
<event>
 6    1  0.6597032E-006  0.3714882E+02  0.7561462E-02  0.1530306E+00
          2   -1    0    0  501    0  0.00000000000E+00  0.00000000000E+00  0.14739370667E+03  0.14739370667E+03  0.00000000000E+00 0. -1.
         -2   -1    0    0    0  501 -0.00000000000E+00 -0.00000000000E+00 -0.35743191177E+02  0.35743191177E+02  0.00000000000E+00 0.  1.
          5    1    1    2  502    0  0.18620993687E+01  0.83854695421E+01  0.10135390942E+03  0.10180309852E+03  0.41800000000E+01 0. -1.
         -5    1    1    2    0  502 -0.30176411841E+02 -0.16585787090E+02 -0.18825559101E+02  0.39466165769E+02  0.41800000000E+01 0.  1.
        -11    1    1    2    0    0  0.11908837296E+02  0.45871044296E+00  0.10770465126E+02  0.16063428652E+02  0.00000000000E+00 0.  1.
         11    1    1    2    0    0  0.16405475177E+02  0.77416071052E+01  0.18351700053E+02  0.25804204912E+02  0.00000000000E+00 0. -1.
</event>
<event>
 6    1  0.6597032E-006  0.1088670E+03  0.7561462E-02  0.1262683E+00
          3   -1    0    0  501    0  0.00000000000E+00  0.00000000000E+00  0.24964261080E+02  0.24964261080E+02  0.00000000000E+00 0. -1.
         -3   -1    0    0    0  501 -0.00000000000E+00 -0.00000000000E+00 -0.53436273446E+03  0.53436273446E+03  0.00000000000E+00 0.  1.
          5    1    1    2  502    0 -0.35201624500E+02  0.23739704914E+02 -0.65875279330E+02  0.78484092552E+02  0.41800000000E+01 0. -1.
         -5    1    1    2    0  502  0.71226257875E+02  0.11104753481E+02 -0.26045105501E+03  0.27027526675E+03  0.41800000000E+01 0.  1.
        -11    1    1    2    0    0 -0.51340884577E+02  0.12719577452E+02 -0.78320932571E+02  0.94508425859E+02  0.00000000000E+00 0. -1.
         11    1    1    2    0    0  0.15316251202E+02 -0.47564035848E+02 -0.10475120647E+03  0.11605921038E+03  0.00000000000E+00 0.  1.
</event>
<event>
 6    1  0.6597032E-006  0.1343803E+03  0.7561462E-02  0.1221097E+00
         -1   -1    0    0    0  501 -0.00000000000E+00  0.00000000000E+00  0.52320198530E+02  0.52320198530E+02  0.00000000000E+00 0.  1.
          1   -1    0    0  501    0  0.00000000000E+00 -0.00000000000E+00 -0.47589490392E+03  0.47589490392E+03  0.00000000000E+00 0. -1.
          5    1    1    2  502    0 -0.84851964163E+02 -0.31185549652E+02 -0.16106612092E+03  0.18474891620E+03  0.41800000000E+01 0. -1.
         -5    1    1    2    0  502 -0.20758116166E+02  0.33098037982E+02  0.71801773004E+01  0.39942544375E+02  0.41800000000E+01 0. -1.
        -11    1    1    2    0    0  0.12043481016E+03  0.86855098915E+01 -0.24056978729E+03  0.26917244313E+03  0.00000000000E+00 0.  1.
         11    1    1    2    0    0 -0.14824729828E+02 -0.10597998222E+02 -0.29118974472E+02  0.34351198743E+02  0.00000000000E+00 0. -1.
</event>
<event>
 6    1  0.6597032E-006  0.7328990E+02  0.7561462E-02  0.1349250E+00
          2   -1    0    0  501    0  0.00000000000E+00  0.00000000000E+00  0.65798225265E+03  0.65798225265E+03  0.00000000000E+00 0. -1.
         -2   -1    0    0    0  501 -0.00000000000E+00 -0.00000000000E+00 -0.25310100954E+02  0.25310100954E+02  0.00000000000E+00 0.  1.
          5    1    1    2  502    0 -0.31214599315E+01 -0.56853928323E+01  0.16253962723E+03  0.16272267827E+03  0.41800000000E+01 0. -1.
         -5    1    1    2    0  502 -0.10046056670E+02 -0.33874358742E+02 -0.32551925878E+01  0.35727637951E+02  0.41800000000E+01 0.  1.
        -11    1    1    2    0    0 -0.40696117374E+02  0.10268156265E+02  0.23353632403E+03  0.23727794597E+03  0.00000000000E+00 0.  1.
         11    1    1    2    0    0  0.53863633975E+02  0.29291595309E+02  0.23985139302E+03  0.24756409141E+03  0.00000000000E+00 0. -1.
</event>
<event>
 6    1  0.8092560E-006  0.3366000E+03  0.7561462E-02  0.1068253E+00
          2   -1    0    0  501    0  0.00000000000E+00  0.00000000000E+00  0.95933513003E+03  0.95933513003E+03  0.00000000000E+00 0. -1.
         -2   -1    0    0    0  501 -0.00000000000E+00 -0.00000000000E+00 -0.13731790771E+03  0.13731790771E+03  0.00000000000E+00 0.  1.
          5    1    1    2  502    0 -0.15717749226E+03  0.19958243318E+03  0.24352790364E+03  0.35193923333E+03  0.41800000000E+01 0.  1.
         -5    1    1    2    0  502 -0.81169990742E+02  0.29282385400E+02  0.19572077952E+02  0.88580833859E+02  0.41800000000E+01 0.  1.
        -11    1    1    2    0    0  0.19475588525E+03 -0.16416080784E+03  0.34806335401E+03  0.43130815443E+03  0.00000000000E+00 0.  1.
         11    1    1    2    0    0  0.43591597746E+02 -0.64704010739E+02  0.21085388673E+03  0.22482481613E+03  0.00000000000E+00 0. -1.
</event>
<event>
 6    1  0.6597032E-006  0.1182116E+03  0.7561462E-02  0.1246077E+00
          1   -1    0    0  501    0  0.00000000000E+00  0.00000000000E+00  0.28629100388E+03  0.28629100388E+03  0.00000000000E+00 0. -1.
         -1   -1    0    0    0  501 -0.00000000000E+00 -0.00000000000E+00 -0.54909606559E+02  0.54909606559E+02  0.00000000000E+00 0.  1.
          5    1    1    2  502    0 -0.35333637975E+02  0.18422096806E+02  0.20741217633E+02  0.45116628112E+02  0.41800000000E+01 0. -1.
         -5    1    1    2    0  502  0.82704174957E+02 -0.51614626509E+02  0.62914837848E+02  0.11610253850E+03  0.41800000000E+01 0. -1.
        -11    1    1    2    0    0 -0.59847299775E+02 -0.35728481885E+01  0.11287581688E+03  0.12781007226E+03  0.00000000000E+00 0.  1.
         11    1    1    2    0    0  0.12476762793E+02  0.36765377892E+02  0.34849524963E+02  0.52171371570E+02  0.00000000000E+00 0. -1.
</event>
<event>
 6    1  0.6597032E-006  0.1786536E+03  0.7561462E-02  0.1169113E+00
         -1   -1    0    0    0  501 -0.00000000000E+00  0.00000000000E+00  0.91831736004E+02  0.91831736004E+02  0.00000000000E+00 0.  1.
          1   -1    0    0  501    0  0.00000000000E+00 -0.00000000000E+00 -0.41177722120E+03  0.41177722120E+03  0.00000000000E+00 0. -1.
          5    1    1    2  502    0 -0.13266834879E+03 -0.11779312462E+03 -0.94953452042E+02  0.20127031930E+03  0.41800000000E+01 0. -1.
         -5    1    1    2    0  502  0.15039264991E+02  0.12418006801E+02 -0.29250899015E+02  0.35404433022E+02  0.41800000000E+01 0. -1.
        -11    1    1    2    0    0  0.77505129785E+02  0.84519271799E+02 -0.18920406621E+03  0.22124360130E+03  0.00000000000E+00 0. -1.
         11    1    1    2    0    0  0.40123954010E+02  0.20855846017E+02 -0.65370679357E+01  0.45690603582E+02  0.00000000000E+00 0.  1.
</event>
<event>
 6    1  0.6597032E-006  0.1029398E+03  0.7561462E-02  0.1274233E+00
         -1   -1    0    0    0  501 -0.00000000000E+00  0.00000000000E+00  0.29243934815E+02  0.29243934815E+02  0.00000000000E+00 0.  1.
          1   -1    0    0  501    0  0.00000000000E+00 -0.00000000000E+00 -0.48181311790E+03  0.48181311790E+03  0.00000000000E+00 0. -1.
          5    1    1    2  502    0 -0.84843791427E+01  0.47837984019E+02 -0.27406939629E+02  0.55938092069E+02  0.41800000000E+01 0. -1.
         -5    1    1    2    0  502  0.30185525249E+02 -0.58840184799E+02 -0.13601610364E+03  0.15129833486E+03  0.41800000000E+01 0. -1.
        -11    1    1    2    0    0  0.28108059397E+02 -0.17843452079E+02 -0.14120228756E+03  0.14507424925E+03  0.00000000000E+00 0. -1.
         11    1    1    2    0    0 -0.49809205503E+02  0.28845652859E+02 -0.14794385226E+03  0.15874637654E+03  0.00000000000E+00 0.  1.
</event>
<event>
 6    1  0.6597032E-006  0.2763754E+03  0.7561462E-02  0.1097685E+00
         -1   -1    0    0    0  501 -0.00000000000E+00  0.00000000000E+00  0.13859999420E+03  0.13859999420E+03  0.00000000000E+00 0.  1.
          1   -1    0    0  501    0  0.00000000000E+00 -0.00000000000E+00 -0.68645614883E+03  0.68645614883E+03  0.00000000000E+00 0. -1.
          5    1    1    2  502    0 -0.31171494303E+02 -0.22427196992E+03 -0.22239497126E+03  0.31740600843E+03  0.41800000000E+01 0. -1.
         -5    1    1    2    0  502 -0.60919187706E+02  0.18745272679E+03 -0.53716554845E+02  0.20433456114E+03  0.41800000000E+01 0.  1.
        -11    1    1    2    0    0  0.58156346184E+02  0.63398686864E+02 -0.13633129768E+03  0.16120724805E+03  0.00000000000E+00 0. -1.
         11    1    1    2    0    0  0.33934335824E+02 -0.26579443742E+02 -0.13541333085E+03  0.14210832540E+03  0.00000000000E+00 0.  1.
</event>
<event>
 6    1  0.6597032E-006  0.8513408E+02  0.7561462E-02  0.1315082E+00
         -2   -1    0    0    0  501 -0.00000000000E+00  0.00000000000E+00  0.32392023069E+02  0.32392023069E+02  0.00000000000E+00 0.  1.
          2   -1    0    0  501    0  0.00000000000E+00 -0.00000000000E+00 -0.36670769438E+03  0.36670769438E+03  0.00000000000E+00 0. -1.
          5    1    1    2  502    0  0.37049500284E+02  0.73978762664E+00 -0.10526797890E+03  0.11167825455E+03  0.41800000000E+01 0. -1.
         -5    1    1    2    0  502 -0.51234316124E+02 -0.49120308682E+01 -0.13890742206E+02  0.53474370637E+02  0.41800000000E+01 0.  1.
        -11    1    1    2    0    0  0.27087338924E+02  0.37120675742E+02 -0.17254262287E+03  0.17855706428E+03  0.00000000000E+00 0.  1.
         11    1    1    2    0    0 -0.12902523083E+02 -0.32948432501E+02 -0.42614327339E+02  0.55390027990E+02  0.00000000000E+00 0. -1.
</event>
<event>
 6    1  0.6597032E-006  0.1046997E+03  0.7561462E-02  0.1270712E+00
          1   -1    0    0  501    0  0.00000000000E+00  0.00000000000E+00  0.26461817985E+02  0.26461817985E+02  0.00000000000E+00 0. -1.
         -1   -1    0    0    0  501 -0.00000000000E+00 -0.00000000000E+00 -0.56887632153E+03  0.56887632153E+03  0.00000000000E+00 0.  1.
          5    1    1    2  502    0 -0.93731041257E+02 -0.14980486947E+02 -0.23962347368E+03  0.25777277712E+03  0.41800000000E+01 0. -1.
         -5    1    1    2    0  502  0.39174494781E+02  0.12131234227E+02 -0.12012119271E+03  0.12699756385E+03  0.41800000000E+01 0. -1.
        -11    1    1    2    0    0  0.14050028542E+02  0.23741558406E+02 -0.15459628292E+03  0.15703845258E+03  0.00000000000E+00 0.  1.
         11    1    1    2    0    0  0.40506517935E+02 -0.20892305686E+02 -0.28073554234E+02  0.53529345965E+02  0.00000000000E+00 0. -1.
</event>
<event>
 6    1  0.6597032E-006  0.1629386E+03  0.7561462E-02  0.1185418E+00
         -1   -1    0    0    0  501 -0.00000000000E+00  0.00000000000E+00  0.15880746480E+03  0.15880746480E+03  0.00000000000E+00 0.  1.
          1   -1    0    0  501    0  0.00000000000E+00 -0.00000000000E+00 -0.16802247513E+03  0.16802247513E+03  0.00000000000E+00 0. -1.
          5    1    1    2  502    0  0.10597086951E+03  0.10554550089E+03  0.14162793274E+01  0.14963006446E+03  0.41800000000E+01 0.  1.
         -5    1    1    2    0  502 -0.73785597995E+01 -0.26701067375E+02  0.25818779403E+01  0.28134118742E+02  0.41800000000E+01 0.  1.
        -11    1    1    2    0    0 -0.24736962710E+02 -0.69528508371E+02 -0.23374630988E+01  0.73834914059E+02  0.00000000000E+00 0.  1.
         11    1    1    2    0    0 -0.73855346996E+02 -0.93159251466E+01 -0.10875704501E+02  0.75230842675E+02  0.00000000000E+00 0. -1.
</event>
<event>
 6    1  0.6597032E-006  0.1232846E+03  0.7561462E-02  0.1237775E+00
          1   -1    0    0  501    0  0.00000000000E+00  0.00000000000E+00  0.11638105590E+03  0.11638105590E+03  0.00000000000E+00 0. -1.
         -1   -1    0    0    0  501 -0.00000000000E+00 -0.00000000000E+00 -0.14380152253E+03  0.14380152253E+03  0.00000000000E+00 0.  1.
          5    1    1    2  502    0  0.60882238713E+02 -0.72939271739E+02 -0.93482138033E+01  0.95559645531E+02  0.41800000000E+01 0. -1.
         -5    1    1    2    0  502 -0.99539883934E+01  0.37039887922E+02 -0.32151905365E+02  0.50222033021E+02  0.41800000000E+01 0. -1.
        -11    1    1    2    0    0 -0.32624332341E+02 -0.30104533462E+02 -0.39383909323E+00  0.44393525484E+02  0.00000000000E+00 0.  1.
         11    1    1    2    0    0 -0.18303917979E+02  0.66003917279E+02  0.14473491632E+02  0.70007374394E+02  0.00000000000E+00 0. -1.
</event>
<event>
 6    1  0.6597032E-006  0.1184197E+03  0.7561462E-02  0.1245727E+00
         -4   -1    0    0    0  501 -0.00000000000E+00  0.00000000000E+00  0.51545341282E+02  0.51545341282E+02  0.00000000000E+00 0.  1.
          4   -1    0    0  501    0  0.00000000000E+00 -0.00000000000E+00 -0.30897154344E+03  0.30897154344E+03  0.00000000000E+00 0. -1.
          5    1    1    2  502    0 -0.74256156698E+02  0.23487779372E+02 -0.81482070810E+02  0.11279385112E+03  0.41800000000E+01 0.  1.
         -5    1    1    2    0  502  0.23359414423E+02 -0.51541254450E+02 -0.27815144276E+02  0.63192703721E+02  0.41800000000E+01 0.  1.
        -11    1    1    2    0    0  0.36285788179E+02 -0.26945517614E+02 -0.32537559968E+02  0.55690323683E+02  0.00000000000E+00 0.  1.
         11    1    1    2    0    0  0.14610954096E+02  0.54998992692E+02 -0.11559142710E+03  0.12884000620E+03  0.00000000000E+00 0. -1.
</event>
<event>
 6    1  0.6597032E-006  0.1482542E+03  0.7561462E-02  0.1202635E+00
          2   -1    0    0  501    0  0.00000000000E+00  0.00000000000E+00  0.65157275912E+03  0.65157275912E+03  0.00000000000E+00 0. -1.
         -2   -1    0    0    0  501 -0.00000000000E+00 -0.00000000000E+00 -0.70189925420E+02  0.70189925420E+02  0.00000000000E+00 0.  1.
          5    1    1    2  502    0  0.11151158911E+03  0.49307363280E+02  0.19381791904E+03  0.22901726730E+03  0.41800000000E+01 0. -1.
         -5    1    1    2    0  502 -0.67163153085E+01 -0.35485185980E+02 -0.33420762631E+02  0.49383469807E+02  0.41800000000E+01 0.  1.
        -11    1    1    2    0    0 -0.10751727779E+03  0.15567720680E+02  0.30855537243E+03  0.32712189900E+03  0.00000000000E+00 0. -1.
         11    1    1    2    0    0  0.27220039963E+01 -0.29389897980E+02  0.11243030486E+03  0.11624004843E+03  0.00000000000E+00 0.  1.
</event>
<event>
 6    1  0.6597032E-006  0.1343612E+03  0.7561462E-02  0.1221124E+00
          2   -1    0    0  501    0  0.00000000000E+00  0.00000000000E+00  0.94995394073E+03  0.94995394073E+03  0.00000000000E+00 0. -1.
         -2   -1    0    0    0  501 -0.00000000000E+00 -0.00000000000E+00 -0.22410031212E+02  0.22410031212E+02  0.00000000000E+00 0.  1.
          5    1    1    2  502    0 -0.37799410053E+02 -0.66019095151E+02  0.13790319238E+03  0.15755024340E+03  0.41800000000E+01 0. -1.
         -5    1    1    2    0  502  0.64124286998E+02 -0.22185351145E+02  0.28427504081E+03  0.29229075458E+03  0.41800000000E+01 0. -1.
        -11    1    1    2    0    0  0.25288844294E+02  0.61374385768E+02  0.35780356473E+03  0.36390896087E+03  0.00000000000E+00 0. -1.
         11    1    1    2    0    0 -0.51613721239E+02  0.26830060527E+02  0.14756211160E+03  0.15861401309E+03  0.00000000000E+00 0.  1.
</event>
<event>
 6    1  0.6597032E-006  0.9614916E+02  0.7561462E-02  0.1288609E+00
          2   -1    0    0  501    0  0.00000000000E+00  0.00000000000E+00  0.38883070862E+03  0.38883070862E+03  0.00000000000E+00 0.  1.
         -2   -1    0    0    0  501 -0.00000000000E+00 -0.00000000000E+00 -0.42213870374E+02  0.42213870374E+02  0.00000000000E+00 0. -1.
          5    1    1    2  502    0  0.64567627925E+02  0.36330525464E+02  0.16381962939E+03  0.17984223372E+03  0.41800000000E+01 0. -1.
         -5    1    1    2    0  502 -0.74800667958E+01 -0.11060715756E+02 -0.17582043017E+02  0.22469790141E+02  0.41800000000E+01 0. -1.
        -11    1    1    2    0    0 -0.71003904305E+02 -0.41878259721E+02  0.12072941726E+03  0.14618801338E+03  0.00000000000E+00 0. -1.
         11    1    1    2    0    0  0.13916343176E+02  0.16608450013E+02  0.79649834616E+02  0.82544541755E+02  0.00000000000E+00 0.  1.
</event>
<event>
 6    1  0.6597032E-006  0.8352699E+02  0.7561462E-02  0.1319330E+00
          2   -1    0    0  501    0  0.00000000000E+00  0.00000000000E+00  0.21087417329E+03  0.21087417329E+03  0.00000000000E+00 0. -1.
         -2   -1    0    0    0  501 -0.00000000000E+00 -0.00000000000E+00 -0.88740300294E+02  0.88740300294E+02  0.00000000000E+00 0.  1.
          5    1    1    2  502    0  0.28113123457E+02  0.13230996069E+02  0.42391531491E+02  0.52724959077E+02  0.41800000000E+01 0.  1.
         -5    1    1    2    0  502 -0.25123387415E+02 -0.34670370712E+02 -0.62404752315E+02  0.75796073196E+02  0.41800000000E+01 0.  1.
        -11    1    1    2    0    0  0.68968666080E+01  0.56160365045E+02  0.66792073757E+02  0.87537046373E+02  0.00000000000E+00 0.  1.
         11    1    1    2    0    0 -0.98866026501E+01 -0.34720990402E+02  0.75355020064E+02  0.83556394939E+02  0.00000000000E+00 0. -1.
</event>
<event>
 6    1  0.6597032E-006  0.7018610E+02  0.7561462E-02  0.1359461E+00
         -4   -1    0    0    0  501 -0.00000000000E+00  0.00000000000E+00  0.78024596533E+02  0.78024596533E+02  0.00000000000E+00 0.  1.
          4   -1    0    0  501    0  0.00000000000E+00 -0.00000000000E+00 -0.15414714519E+03  0.15414714519E+03  0.00000000000E+00 0. -1.
          5    1    1    2  502    0 -0.10673873224E+01  0.59593101980E+02  0.12357077229E+02  0.61013497498E+02  0.41800000000E+01 0.  1.
         -5    1    1    2    0  502  0.16802160692E+02 -0.42440668504E+02 -0.58529334329E+02  0.74341632508E+02  0.41800000000E+01 0.  1.
        -11    1    1    2    0    0 -0.18872939799E+02 -0.16223414530E+01  0.29628939730E+02  0.35166659181E+02  0.00000000000E+00 0.  1.
         11    1    1    2    0    0  0.31381664293E+01 -0.15530092023E+02 -0.59579231288E+02  0.61649952535E+02  0.00000000000E+00 0. -1.
</event>
<event>
 6    1  0.6597032E-006  0.9483039E+02  0.7561462E-02  0.1291559E+00
          1   -1    0    0  501    0  0.00000000000E+00  0.00000000000E+00  0.17301351462E+03  0.17301351462E+03  0.00000000000E+00 0. -1.
         -1   -1    0    0    0  501 -0.00000000000E+00 -0.00000000000E+00 -0.93994270938E+02  0.93994270938E+02  0.00000000000E+00 0.  1.
          5    1    1    2  502    0  0.55751808584E+02 -0.23105232373E+01  0.22956116089E+01  0.56003079475E+02  0.41800000000E+01 0.  1.
         -5    1    1    2    0  502 -0.58225521742E+02  0.53111163533E+02 -0.39875106470E+01  0.79021387707E+02  0.41800000000E+01 0.  1.
        -11    1    1    2    0    0  0.97443927376E+01 -0.12762197841E+02  0.90601422875E+02  0.92013285511E+02  0.00000000000E+00 0. -1.
         11    1    1    2    0    0 -0.72706795793E+01 -0.38038442454E+02 -0.98902801525E+01  0.39970032867E+02  0.00000000000E+00 0.  1.
</event>
<event>
 6    1  0.6597032E-006  0.1241859E+03  0.7561462E-02  0.1236347E+00
         -2   -1    0    0    0  501 -0.00000000000E+00  0.00000000000E+00  0.69064437434E+03  0.69064437434E+03  0.00000000000E+00 0.  1.
          2   -1    0    0  501    0  0.00000000000E+00 -0.00000000000E+00 -0.24171105592E+02  0.24171105592E+02  0.00000000000E+00 0. -1.
          5    1    1    2  502    0 -0.26671002627E+02  0.89310101085E+02  0.25288517542E+03  0.26954780816E+03  0.41800000000E+01 0.  1.
         -5    1    1    2    0  502  0.34563374475E+02 -0.26205477661E+02  0.19491636487E+03  0.19972785386E+03  0.41800000000E+01 0.  1.
        -11    1    1    2    0    0 -0.48905162573E+02 -0.22678714931E+02  0.11280305583E+03  0.12502227178E+03  0.00000000000E+00 0.  1.
         11    1    1    2    0    0  0.41012790725E+02 -0.40425908493E+02  0.10586867263E+03  0.12051754613E+03  0.00000000000E+00 0. -1.
</event>
<event>
 6    1  0.6597032E-006  0.1051627E+03  0.7561462E-02  0.1269799E+00
         -2   -1    0    0    0  501 -0.00000000000E+00  0.00000000000E+00  0.16710284786E+03  0.16710284786E+03  0.00000000000E+00 0.  1.
          2   -1    0    0  501    0  0.00000000000E+00 -0.00000000000E+00 -0.10255161150E+03  0.10255161150E+03  0.00000000000E+00 0. -1.
          5    1    1    2  502    0  0.83744711364E+01  0.25681073624E+02  0.49519715600E+02  0.56562566618E+02  0.41800000000E+01 0.  1.
         -5    1    1    2    0  502 -0.76446742958E+02 -0.47987556970E+02 -0.15174579008E+02  0.91622324686E+02  0.41800000000E+01 0.  1.
        -11    1    1    2    0    0 -0.10186920475E+02  0.82823482070E+01  0.39309721576E+02  0.41444237850E+02  0.00000000000E+00 0.  1.
         11    1    1    2    0    0  0.78259192297E+02  0.14024135140E+02 -0.91036218078E+01  0.80025330211E+02  0.00000000000E+00 0. -1.
</event>
<event>
 6    1  0.6597032E-006  0.9457611E+02  0.7561462E-02  0.1292134E+00
         -1   -1    0    0    0  501 -0.00000000000E+00  0.00000000000E+00  0.45628588546E+03  0.45628588546E+03  0.00000000000E+00 0.  1.
          1   -1    0    0  501    0  0.00000000000E+00 -0.00000000000E+00 -0.19345157794E+03  0.19345157794E+03  0.00000000000E+00 0. -1.
          5    1    1    2  502    0 -0.22064844256E+02  0.33437831393E+02  0.48840801180E+02  0.63307520724E+02  0.41800000000E+01 0. -1.
         -5    1    1    2    0  502  0.36278859135E+02 -0.71955519589E+02  0.38137659609E+03  0.38981961580E+03  0.41800000000E+01 0.  1.
        -11    1    1    2    0    0  0.11223220708E+02  0.41107510139E+02 -0.16558320648E+03  0.17097832126E+03  0.00000000000E+00 0. -1.
         11    1    1    2    0    0 -0.25437235587E+02 -0.25898219442E+01 -0.17998832708E+01  0.25632005614E+02  0.00000000000E+00 0.  1.
</event>
<event>
 6    1  0.6597032E-006  0.1474450E+03  0.7561462E-02  0.1203648E+00
          2   -1    0    0  501    0  0.00000000000E+00  0.00000000000E+00  0.43342986091E+03  0.43342986091E+03  0.00000000000E+00 0. -1.
         -2   -1    0    0    0  501 -0.00000000000E+00 -0.00000000000E+00 -0.72579016354E+02  0.72579016354E+02  0.00000000000E+00 0.  1.
          5    1    1    2  502    0  0.92262708375E+02 -0.80691475247E+02  0.95807920259E+02  0.15562824782E+03  0.41800000000E+01 0. -1.
         -5    1    1    2    0  502 -0.23015185109E+02 -0.11460829415E+02 -0.17756764707E+02  0.31524981354E+02  0.41800000000E+01 0. -1.
        -11    1    1    2    0    0  0.14815427086E+02  0.50022957242E+02  0.82979198630E+02  0.98017042070E+02  0.00000000000E+00 0.  1.
         11    1    1    2    0    0 -0.84062950352E+02  0.42129347420E+02  0.19982049037E+03  0.22083860602E+03  0.00000000000E+00 0. -1.
</event>
<event>
 6    1  0.6597032E-006  0.1257906E+03  0.7561462E-02  0.1233839E+00
         -2   -1    0    0    0  501 -0.00000000000E+00  0.00000000000E+00  0.21068565427E+03  0.21068565427E+03  0.00000000000E+00 0.  1.
          2   -1    0    0  501    0  0.00000000000E+00 -0.00000000000E+00 -0.37917878947E+03  0.37917878947E+03  0.00000000000E+00 0. -1.
          5    1    1    2  502    0 -0.28255377046E+02 -0.16609806589E+02  0.34747484699E+01  0.33223459842E+02  0.41800000000E+01 0. -1.
         -5    1    1    2    0  502  0.65700423708E+02 -0.64208307265E+02  0.16923067017E+03  0.19260255586E+03  0.41800000000E+01 0.  1.
        -11    1    1    2    0    0  0.97643310408E+00  0.87564684092E+02 -0.24793023466E+03  0.26294092223E+03  0.00000000000E+00 0. -1.
         11    1    1    2    0    0 -0.38421479766E+02 -0.67465702378E+01 -0.93268319187E+02  0.10109750581E+03  0.00000000000E+00 0.  1.
</event>
<event>
 6    1  0.6597032E-006  0.9353369E+02  0.7561462E-02  0.1294513E+00
         -2   -1    0    0    0  501 -0.00000000000E+00  0.00000000000E+00  0.23827844783E+02  0.23827844783E+02  0.00000000000E+00 0.  1.
          2   -1    0    0  501    0  0.00000000000E+00 -0.00000000000E+00 -0.58767597823E+03  0.58767597823E+03  0.00000000000E+00 0. -1.
          5    1    1    2  502    0 -0.19733213362E+02  0.22025779946E+02 -0.18618944605E+03  0.18856966063E+03  0.41800000000E+01 0.  1.
         -5    1    1    2    0  502  0.37097886722E+02 -0.52735730219E+02 -0.52654296432E+02  0.83350211599E+02  0.41800000000E+01 0.  1.
        -11    1    1    2    0    0 -0.21103131695E+02 -0.27273446933E+02 -0.69865532300E+02  0.77912615657E+02  0.00000000000E+00 0.  1.
         11    1    1    2    0    0  0.37384583351E+01  0.57983397206E+02 -0.25513885866E+03  0.26167133512E+03  0.00000000000E+00 0. -1.
</event>
<event>
 6    1  0.6597032E-006  0.1603285E+03  0.7561462E-02  0.1188326E+00
          2   -1    0    0  501    0  0.00000000000E+00  0.00000000000E+00  0.29040281712E+03  0.29040281712E+03  0.00000000000E+00 0.  1.
         -2   -1    0    0    0  501 -0.00000000000E+00 -0.00000000000E+00 -0.10200303582E+03  0.10200303582E+03  0.00000000000E+00 0. -1.
          5    1    1    2  502    0 -0.62283111626E+02  0.25947639949E+02  0.29043712170E+02  0.73576325197E+02  0.41800000000E+01 0.  1.
         -5    1    1    2    0  502  0.45353005928E+02  0.10316496027E+03  0.37264805994E+02  0.11876886098E+03  0.41800000000E+01 0.  1.
        -11    1    1    2    0    0  0.15621793223E+02 -0.53464564163E+01 -0.97894490717E+01  0.19195268501E+02  0.00000000000E+00 0. -1.
         11    1    1    2    0    0  0.13083124757E+01 -0.12376614380E+03  0.13188071221E+03  0.18086539825E+03  0.00000000000E+00 0.  1.
</event>
<event>
 6    1  0.6597032E-006  0.2272661E+03  0.7561462E-02  0.1128579E+00
         -4   -1    0    0    0  501 -0.00000000000E+00  0.00000000000E+00  0.20892349938E+04  0.20892349938E+04  0.00000000000E+00 0.  1.
          4   -1    0    0  501    0  0.00000000000E+00 -0.00000000000E+00 -0.30916616999E+02  0.30916616999E+02  0.00000000000E+00 0. -1.
          5    1    1    2  502    0 -0.53611508284E+02  0.20229567719E+03  0.13936898409E+04  0.14093213189E+04  0.41800000000E+01 0.  1.
         -5    1    1    2    0  502  0.15900413148E+02  0.71812296281E+01  0.25478213168E+02  0.31160952223E+02  0.41800000000E+01 0.  1.
        -11    1    1    2    0    0  0.21541302457E+02 -0.49462955289E+01  0.32828497649E+02  0.39575292910E+02  0.00000000000E+00 0. -1.
         11    1    1    2    0    0  0.16169792679E+02 -0.20453061129E+03  0.60632182505E+03  0.64009404675E+03  0.00000000000E+00 0.  1.
</event>
<event>
 6    1  0.6597032E-006  0.1088916E+03  0.7561462E-02  0.1262636E+00
          3   -1    0    0  501    0  0.00000000000E+00  0.00000000000E+00  0.85027650647E+02  0.85027650647E+02  0.00000000000E+00 0. -1.
         -3   -1    0    0    0  501 -0.00000000000E+00 -0.00000000000E+00 -0.16001359878E+03  0.16001359878E+03  0.00000000000E+00 0.  1.
          5    1    1    2  502    0 -0.32047349277E+02 -0.35994620577E+02 -0.32860174715E+02  0.58479986222E+02  0.41800000000E+01 0. -1.
         -5    1    1    2    0  502  0.34552276648E+02  0.73122228917E+02 -0.29785540204E+02  0.86286563199E+02  0.41800000000E+01 0. -1.
        -11    1    1    2    0    0  0.30994602430E+02 -0.44397890837E+02  0.15270398252E+02  0.56258538493E+02  0.00000000000E+00 0. -1.
         11    1    1    2    0    0 -0.33499529801E+02  0.72702824972E+01 -0.27610631470E+02  0.44016161517E+02  0.00000000000E+00 0.  1.
</event>
<event>
 6    1  0.6597032E-006  0.2275357E+03  0.7561462E-02  0.1128386E+00
          1   -1    0    0  501    0  0.00000000000E+00  0.00000000000E+00  0.37255406960E+03  0.37255406960E+03  0.00000000000E+00 0. -1.
         -1   -1    0    0    0  501 -0.00000000000E+00 -0.00000000000E+00 -0.15616676742E+03  0.15616676742E+03  0.00000000000E+00 0.  1.
          5    1    1    2  502    0 -0.58202709500E+02  0.95438437579E+02 -0.81697921086E+01  0.11216179681E+03  0.41800000000E+01 0. -1.
         -5    1    1    2    0  502 -0.76946742899E+01  0.10971947027E+03  0.11423823761E+03  0.15863611664E+03  0.41800000000E+01 0. -1.
        -11    1    1    2    0    0 -0.11913419662E+02 -0.10804013301E+03  0.51566997662E+02  0.12030692065E+03  0.00000000000E+00 0.  1.
         11    1    1    2    0    0  0.77810803453E+02 -0.97117774845E+02  0.58751859014E+02  0.13761600293E+03  0.00000000000E+00 0. -1.
</event>
<event>
 6    1  0.6597032E-006  0.1001415E+03  0.7561462E-02  0.1279999E+00
          2   -1    0    0  501    0  0.00000000000E+00  0.00000000000E+00  0.70470995214E+02  0.70470995214E+02  0.00000000000E+00 0. -1.
         -2   -1    0    0    0  501 -0.00000000000E+00 -0.00000000000E+00 -0.27668084196E+03  0.27668084196E+03  0.00000000000E+00 0.  1.
          5    1    1    2  502    0 -0.92120864396E+01  0.93524001200E+02 -0.90821217044E+02  0.13075766594E+03  0.41800000000E+01 0.  1.
         -5    1    1    2    0  502 -0.42405298121E+01 -0.33206886968E+02 -0.10068136302E+03  0.10618327879E+03  0.41800000000E+01 0.  1.
        -11    1    1    2    0    0 -0.12183844039E+02 -0.32195440398E+02 -0.48394545826E+02  0.59388757385E+02  0.00000000000E+00 0.  1.
         11    1    1    2    0    0  0.25636460291E+02 -0.28121673833E+02  0.33687279146E+02  0.50822135056E+02  0.00000000000E+00 0. -1.
</event>
<event>
 6    1  0.6597032E-006  0.1177024E+03  0.7561462E-02  0.1246936E+00
         -2   -1    0    0    0  501 -0.00000000000E+00  0.00000000000E+00  0.17900319485E+03  0.17900319485E+03  0.00000000000E+00 0.  1.
          2   -1    0    0  501    0  0.00000000000E+00 -0.00000000000E+00 -0.10840039313E+03  0.10840039313E+03  0.00000000000E+00 0. -1.
          5    1    1    2  502    0 -0.73765551497E+02  0.38082943376E+02  0.84432927936E+02  0.11848231465E+03  0.41800000000E+01 0. -1.
         -5    1    1    2    0  502  0.23652586543E+02  0.31748890160E+02 -0.97741232667E+01  0.40993203854E+02  0.41800000000E+01 0.  1.
        -11    1    1    2    0    0  0.69123411331E+02 -0.56043227704E+02  0.23187594474E+02  0.91959523178E+02  0.00000000000E+00 0.  1.
         11    1    1    2    0    0 -0.19010446377E+02 -0.13788605832E+02 -0.27243597420E+02  0.35968546296E+02  0.00000000000E+00 0. -1.
</event>
<event>
 6    1  0.6597032E-006  0.9080001E+02  0.7561462E-02  0.1300926E+00
         -1   -1    0    0    0  501 -0.00000000000E+00  0.00000000000E+00  0.18768167439E+04  0.18768167439E+04  0.00000000000E+00 0.  1.
          1   -1    0    0  501    0  0.00000000000E+00 -0.00000000000E+00 -0.13903359601E+02  0.13903359601E+02  0.00000000000E+00 0. -1.
          5    1    1    2  502    0  0.25355046121E+02  0.10330073358E+02  0.92907678588E+02  0.96947913438E+02  0.41800000000E+01 0.  1.
         -5    1    1    2    0  502 -0.74203612193E+02  0.30378678888E+02  0.14946424784E+04  0.14967974649E+04  0.41800000000E+01 0.  1.
        -11    1    1    2    0    0  0.41147443719E+02 -0.47851709269E+02  0.27885378674E+03  0.28590616045E+03  0.00000000000E+00 0.  1.
         11    1    1    2    0    0  0.77011223534E+01  0.71429570226E+01 -0.34905594253E+01  0.11068564750E+02  0.00000000000E+00 0. -1.
</event>
<event>
 6    1  0.6597032E-006  0.1389311E+03  0.7561462E-02  0.1214774E+00
         -1   -1    0    0    0  501 -0.00000000000E+00  0.00000000000E+00  0.24618391256E+02  0.24618391256E+02  0.00000000000E+00 0.  1.
          1   -1    0    0  501    0  0.00000000000E+00 -0.00000000000E+00 -0.85847505248E+03  0.85847505248E+03  0.00000000000E+00 0. -1.
          5    1    1    2  502    0 -0.41730820367E+02 -0.97994962647E+02 -0.21889423442E+03  0.24346792876E+03  0.41800000000E+01 0.  1.
         -5    1    1    2    0  502  0.40336533377E+02  0.17672486178E+01 -0.20207033294E+03  0.20610689204E+03  0.41800000000E+01 0.  1.
        -11    1    1    2    0    0 -0.43289090792E+02  0.53885780462E+02 -0.25012354690E+03  0.25949838426E+03  0.00000000000E+00 0. -1.
         11    1    1    2    0    0  0.44683377782E+02  0.42341933567E+02 -0.16276854696E+03  0.17402023867E+03  0.00000000000E+00 0.  1.
</event>
<event>
 6    1  0.6597032E-006  0.1609566E+03  0.7561462E-02  0.1187621E+00
          1   -1    0    0  501    0  0.00000000000E+00  0.00000000000E+00  0.11732576686E+03  0.11732576686E+03  0.00000000000E+00 0. -1.
         -1   -1    0    0    0  501 -0.00000000000E+00 -0.00000000000E+00 -0.33165020581E+03  0.33165020581E+03  0.00000000000E+00 0.  1.
          5    1    1    2  502    0  0.45860274032E+02 -0.12629967215E+03 -0.10468615061E+03  0.17038613339E+03  0.41800000000E+01 0. -1.
         -5    1    1    2    0  502 -0.64417239476E+02  0.55672519383E+02 -0.13585199154E+03  0.16038156428E+03  0.41800000000E+01 0.  1.
        -11    1    1    2    0    0  0.14289324517E+02 -0.12508886099E+02  0.29287779930E+02  0.34906032141E+02  0.00000000000E+00 0. -1.
         11    1    1    2    0    0  0.42676409272E+01  0.83136038867E+02 -0.30740767320E+01  0.83302242859E+02  0.00000000000E+00 0.  1.
</event>
<event>
 6    1  0.6597032E-006  0.1026396E+03  0.7561462E-02  0.1274841E+00
         -2   -1    0    0    0  501 -0.00000000000E+00  0.00000000000E+00  0.65030657242E+02  0.65030657242E+02  0.00000000000E+00 0.  1.
          2   -1    0    0  501    0  0.00000000000E+00 -0.00000000000E+00 -0.34243701878E+03  0.34243701878E+03  0.00000000000E+00 0. -1.
          5    1    1    2  502    0  0.37040583595E+02  0.80592936049E+02  0.26524481760E+00  0.88796221366E+02  0.41800000000E+01 0. -1.
         -5    1    1    2    0  502 -0.35127058902E+02  0.48597723143E+00 -0.64441769938E+02  0.73514356106E+02  0.41800000000E+01 0. -1.
        -11    1    1    2    0    0 -0.16346369890E+01 -0.53680518814E+02 -0.21093141988E+03  0.21766105309E+03  0.00000000000E+00 0. -1.
         11    1    1    2    0    0 -0.27888770410E+00 -0.27398394466E+02 -0.22984165394E+01  0.27496045466E+02  0.00000000000E+00 0.  1.
</event>
<event>
 6    1  0.6597032E-006  0.1402992E+03  0.7561462E-02  0.1212927E+00
         -1   -1    0    0    0  501 -0.00000000000E+00  0.00000000000E+00  0.11411377760E+03  0.11411377760E+03  0.00000000000E+00 0.  1.
          1   -1    0    0  501    0  0.00000000000E+00 -0.00000000000E+00 -0.47537079725E+03  0.47537079725E+03  0.00000000000E+00 0. -1.
          5    1    1    2  502    0  0.31098954149E+02  0.41375250924E+01 -0.58434003701E+02  0.66455016753E+02  0.41800000000E+01 0. -1.
         -5    1    1    2    0  502  0.77319289025E+02 -0.66846259932E+02  0.67003071889E+02  0.12228482721E+03  0.41800000000E+01 0.  1.
        -11    1    1    2    0    0  0.11568903804E+02  0.11118560266E+02 -0.12632668484E+02  0.20421709787E+02  0.00000000000E+00 0.  1.
         11    1    1    2    0    0 -0.11998714698E+03  0.51590174573E+02 -0.35719341935E+03  0.38032302110E+03  0.00000000000E+00 0. -1.
</event>
<event>
 6    1  0.6597032E-006  0.9597944E+02  0.7561462E-02  0.1288985E+00
         -1   -1    0    0    0  501 -0.00000000000E+00  0.00000000000E+00  0.44650949613E+02  0.44650949613E+02  0.00000000000E+00 0.  1.
          1   -1    0    0  501    0  0.00000000000E+00 -0.00000000000E+00 -0.31137307850E+03  0.31137307850E+03  0.00000000000E+00 0. -1.
          5    1    1    2  502    0  0.66695901446E+02 -0.15613881335E+02 -0.41812327632E+02  0.80360933930E+02  0.41800000000E+01 0.  1.
         -5    1    1    2    0  502 -0.57576832931E+02 -0.13626040968E+02 -0.53255899441E+02  0.79714640488E+02  0.41800000000E+01 0.  1.
        -11    1    1    2    0    0 -0.32491184058E+02  0.10773997352E+02 -0.16571107500E+02  0.38031009245E+02  0.00000000000E+00 0.  1.
         11    1    1    2    0    0  0.23372115543E+02  0.18465924951E+02 -0.15508279431E+03  0.15791744445E+03  0.00000000000E+00 0. -1.
</event>
<event>
 6    1  0.6597032E-006  0.9370813E+02  0.7561462E-02  0.1294112E+00
         -1   -1    0    0    0  501 -0.00000000000E+00  0.00000000000E+00  0.18087254391E+02  0.18087254391E+02  0.00000000000E+00 0.  1.
          1   -1    0    0  501    0  0.00000000000E+00 -0.00000000000E+00 -0.77268764503E+03  0.77268764503E+03  0.00000000000E+00 0. -1.
          5    1    1    2  502    0 -0.15346155466E+02 -0.54336822791E+02 -0.67511792368E+02  0.88109643668E+02  0.41800000000E+01 0. -1.
         -5    1    1    2    0  502  0.35332120102E+02  0.23595245652E+02 -0.27639981851E+03  0.27967736126E+03  0.41800000000E+01 0. -1.
        -11    1    1    2    0    0  0.21278073410E+02 -0.15355189590E+02 -0.44910526490E+02  0.52014359988E+02  0.00000000000E+00 0.  1.
         11    1    1    2    0    0 -0.41264038045E+02  0.46096766729E+02 -0.36577825328E+03  0.37097353451E+03  0.00000000000E+00 0. -1.
</event>
<event>
 6    1  0.6597032E-006  0.1043030E+03  0.7561462E-02  0.1271499E+00
         -4   -1    0    0    0  501 -0.00000000000E+00  0.00000000000E+00  0.15013569640E+03  0.15013569640E+03  0.00000000000E+00 0. -1.
          4   -1    0    0  501    0  0.00000000000E+00 -0.00000000000E+00 -0.15432562447E+03  0.15432562447E+03  0.00000000000E+00 0.  1.
          5    1    1    2  502    0  0.75270019984E+01  0.92417949479E+02  0.16449661808E+02  0.94264505083E+02  0.41800000000E+01 0. -1.
         -5    1    1    2    0  502  0.10045806055E+01 -0.22687173544E+02  0.68896161122E+02  0.72662717008E+02  0.41800000000E+01 0. -1.
        -11    1    1    2    0    0 -0.19586833091E+02  0.23915546089E+01 -0.51711112857E+02  0.55348014932E+02  0.00000000000E+00 0.  1.
         11    1    1    2    0    0  0.11055250487E+02 -0.72122330544E+02 -0.37824638149E+02  0.82186083844E+02  0.00000000000E+00 0. -1.
</event>
<event>
 6    1  0.6597032E-006  0.1284822E+03  0.7561462E-02  0.1229725E+00
         -1   -1    0    0    0  501 -0.00000000000E+00  0.00000000000E+00  0.11238588512E+03  0.11238588512E+03  0.00000000000E+00 0.  1.
          1   -1    0    0  501    0  0.00000000000E+00 -0.00000000000E+00 -0.23047238301E+03  0.23047238301E+03  0.00000000000E+00 0. -1.
          5    1    1    2  502    0 -0.98184934795E+01 -0.55806483345E+02  0.29926279507E+00  0.56818380439E+02  0.41800000000E+01 0.  1.
         -5    1    1    2    0  502  0.81045147751E+02  0.30780424428E+02  0.34255394759E+02  0.93309458106E+02  0.41800000000E+01 0.  1.
        -11    1    1    2    0    0 -0.73969768452E+00  0.41058609801E+02 -0.81742918265E+02  0.91478201108E+02  0.00000000000E+00 0. -1.
         11    1    1    2    0    0 -0.70486956587E+02 -0.16032550884E+02 -0.70898237179E+02  0.10125222848E+03  0.00000000000E+00 0.  1.
</event>
<event>
 6    1  0.6597032E-006  0.1204126E+03  0.7561462E-02  0.1242418E+00
          1   -1    0    0  501    0  0.00000000000E+00  0.00000000000E+00  0.63285608703E+03  0.63285608703E+03  0.00000000000E+00 0. -1.
         -1   -1    0    0    0  501 -0.00000000000E+00 -0.00000000000E+00 -0.36529930209E+02  0.36529930209E+02  0.00000000000E+00 0.  1.
          5    1    1    2  502    0 -0.79062958896E+02 -0.29195005818E+02  0.58957760889E+02  0.10294071014E+03  0.41800000000E+01 0. -1.
         -5    1    1    2    0  502 -0.11004720407E+02 -0.21117210862E+02  0.20800924728E+03  0.20940955045E+03  0.41800000000E+01 0. -1.
        -11    1    1    2    0    0  0.93358555794E+02  0.67218754256E+02  0.24145020968E+03  0.26745538809E+03  0.00000000000E+00 0.  1.
         11    1    1    2    0    0 -0.32908764911E+01 -0.16906537576E+02  0.87908938973E+02  0.89580368565E+02  0.00000000000E+00 0. -1.
</event>
<event>
 6    1  0.6597032E-006  0.1272841E+03  0.7561462E-02  0.1231542E+00
         -1   -1    0    0    0  501 -0.00000000000E+00  0.00000000000E+00  0.21256473265E+02  0.21256473265E+02  0.00000000000E+00 0.  1.
          1   -1    0    0  501    0  0.00000000000E+00 -0.00000000000E+00 -0.86270086799E+03  0.86270086799E+03  0.00000000000E+00 0. -1.
          5    1    1    2  502    0 -0.63147321422E+02 -0.28751248060E+02 -0.24174366303E+03  0.25153864411E+03  0.41800000000E+01 0. -1.
         -5    1    1    2    0  502  0.60133357039E+02 -0.50171029704E+02 -0.27347489561E+03  0.28449805584E+03  0.41800000000E+01 0. -1.
        -11    1    1    2    0    0  0.34572370761E+02  0.61583221015E+02 -0.28291417180E+03  0.29159590281E+03  0.00000000000E+00 0. -1.
         11    1    1    2    0    0 -0.31558406379E+02  0.17339056749E+02 -0.43311664281E+02  0.56324738481E+02  0.00000000000E+00 0.  1.
</event>
<event>
 6    1  0.6597032E-006  0.1469520E+03  0.7561462E-02  0.1204269E+00
          3   -1    0    0  501    0  0.00000000000E+00  0.00000000000E+00  0.22236435317E+03  0.22236435317E+03  0.00000000000E+00 0. -1.
         -3   -1    0    0    0  501 -0.00000000000E+00 -0.00000000000E+00 -0.13687772423E+03  0.13687772423E+03  0.00000000000E+00 0.  1.
          5    1    1    2  502    0 -0.81266069970E+02 -0.90024228399E+02 -0.35645185723E+02  0.12647761657E+03  0.41800000000E+01 0.  1.
         -5    1    1    2    0  502  0.36997963625E+02 -0.17117187456E+02  0.18435725944E+02  0.44935462720E+02  0.41800000000E+01 0.  1.
        -11    1    1    2    0    0  0.24150200265E+02  0.16778588389E+01 -0.15031716281E+02  0.28495611547E+02  0.00000000000E+00 0.  1.
         11    1    1    2    0    0  0.20117906081E+02  0.10546355702E+03  0.11772780500E+03  0.15933338656E+03  0.00000000000E+00 0. -1.
</event>
<event>
 6    1  0.6597032E-006  0.2446935E+03  0.7561462E-02  0.1116705E+00
         -1   -1    0    0    0  501 -0.00000000000E+00  0.00000000000E+00  0.78154139662E+03  0.78154139662E+03  0.00000000000E+00 0.  1.
          1   -1    0    0  501    0  0.00000000000E+00 -0.00000000000E+00 -0.11563357019E+03  0.11563357019E+03  0.00000000000E+00 0. -1.
          5    1    1    2  502    0  0.10178430441E+03 -0.10976327074E+02  0.17725044784E+03  0.20473328513E+03  0.41800000000E+01 0. -1.
         -5    1    1    2    0  502  0.72560335995E+02 -0.12757362467E+03  0.41662348372E+03  0.44173819357E+03  0.41800000000E+01 0. -1.
        -11    1    1    2    0    0 -0.10929451459E+03  0.29635768442E+02  0.32017929946E+02  0.11768057413E+03  0.00000000000E+00 0. -1.
         11    1    1    2    0    0 -0.65050125819E+02  0.10891418330E+03  0.40015964922E+02  0.13302291397E+03  0.00000000000E+00 0.  1.
</event>
<event>
 6    1  0.6597032E-006  0.1404845E+03  0.7561462E-02  0.1212679E+00
         -2   -1    0    0    0  501 -0.00000000000E+00  0.00000000000E+00  0.32741325621E+03  0.32741325621E+03  0.00000000000E+00 0.  1.
          2   -1    0    0  501    0  0.00000000000E+00 -0.00000000000E+00 -0.95585783094E+02  0.95585783094E+02  0.00000000000E+00 0. -1.
          5    1    1    2  502    0  0.39708361042E+02  0.45250967452E+02  0.11190112974E+03  0.12713669505E+03  0.41800000000E+01 0. -1.
         -5    1    1    2    0  502 -0.76240963919E+02 -0.46530622709E+02  0.13603323787E+03  0.16278912014E+03  0.41800000000E+01 0.  1.
        -11    1    1    2    0    0 -0.45545593292E+02 -0.14141384465E+02  0.15380578599E+01  0.47715253797E+02  0.00000000000E+00 0.  1.
         11    1    1    2    0    0  0.82078196169E+02  0.15421039722E+02 -0.17644952359E+02  0.85357970314E+02  0.00000000000E+00 0. -1.
</event>
<event>
 6    1  0.6597032E-006  0.1099901E+03  0.7561462E-02  0.1260588E+00
         -1   -1    0    0    0  501 -0.00000000000E+00  0.00000000000E+00  0.77442254208E+03  0.77442254208E+03  0.00000000000E+00 0.  1.
          1   -1    0    0  501    0  0.00000000000E+00 -0.00000000000E+00 -0.38630697498E+02  0.38630697498E+02  0.00000000000E+00 0. -1.
          5    1    1    2  502    0  0.15650370333E+02  0.31140785962E+02  0.55956323161E+02  0.66055016036E+02  0.41800000000E+01 0. -1.
         -5    1    1    2    0  502 -0.73962532953E+02 -0.49758131869E+01  0.61351175790E+03  0.61798815885E+03  0.41800000000E+01 0. -1.
        -11    1    1    2    0    0 -0.24298413920E+02 -0.10857378250E+02  0.17143540142E+02  0.31657488057E+02  0.00000000000E+00 0. -1.
         11    1    1    2    0    0  0.82610576540E+02 -0.15307594525E+02  0.49180223387E+02  0.97352576642E+02  0.00000000000E+00 0.  1.
</event>
<event>
 6    1  0.6597032E-006  0.1075197E+03  0.7561462E-02  0.1265233E+00
         -1   -1    0    0    0  501 -0.00000000000E+00  0.00000000000E+00  0.12116704042E+03  0.12116704042E+03  0.00000000000E+00 0.  1.
          1   -1    0    0  501    0  0.00000000000E+00 -0.00000000000E+00 -0.12263168717E+03  0.12263168717E+03  0.00000000000E+00 0. -1.
          5    1    1    2  502    0  0.54841640505E+02 -0.52646442426E+02  0.36593447654E+02  0.84473701497E+02  0.41800000000E+01 0. -1.
         -5    1    1    2    0  502 -0.12858634038E+01  0.47543044426E+02 -0.21821296241E+02  0.52494150985E+02  0.41800000000E+01 0. -1.
        -11    1    1    2    0    0 -0.32415974655E+02  0.39307539391E+02 -0.35646577305E+02  0.62181641498E+02  0.00000000000E+00 0. -1.
         11    1    1    2    0    0 -0.21139802446E+02 -0.34204141391E+02  0.19409779148E+02  0.44649233614E+02  0.00000000000E+00 0.  1.
</event>
<event>
 6    1  0.6597032E-006  0.1259956E+03  0.7561462E-02  0.1233521E+00
         -1   -1    0    0    0  501 -0.00000000000E+00  0.00000000000E+00  0.11434604337E+03  0.11434604337E+03  0.00000000000E+00 0.  1.
          1   -1    0    0  501    0  0.00000000000E+00 -0.00000000000E+00 -0.29072649380E+03  0.29072649380E+03  0.00000000000E+00 0. -1.
          5    1    1    2  502    0 -0.49762275914E+02  0.86355156437E+02  0.62767206633E+02  0.11785877895E+03  0.41800000000E+01 0. -1.
         -5    1    1    2    0  502 -0.92707687618E+01  0.13207977097E+01 -0.45667092329E+02  0.46804352167E+02  0.41800000000E+01 0. -1.
        -11    1    1    2    0    0  0.32921288883E+01 -0.86157267834E+02 -0.10555683057E+03  0.13629437770E+03  0.00000000000E+00 0.  1.
         11    1    1    2    0    0  0.55740915788E+02 -0.15186863128E+01 -0.87923734160E+02  0.10411502836E+03  0.00000000000E+00 0. -1.
</event>
<event>
 6    1  0.6597032E-006  0.1215534E+03  0.7561462E-02  0.1240556E+00
          1   -1    0    0  501    0  0.00000000000E+00  0.00000000000E+00  0.45180458523E+02  0.45180458523E+02  0.00000000000E+00 0. -1.
         -1   -1    0    0    0  501 -0.00000000000E+00 -0.00000000000E+00 -0.55517947940E+03  0.55517947940E+03  0.00000000000E+00 0.  1.
          5    1    1    2  502    0 -0.37226507126E+02  0.11526728930E+02 -0.15673826206E+01  0.39225086372E+02  0.41800000000E+01 0. -1.
         -5    1    1    2    0  502 -0.21560204416E+02  0.85933817423E+02 -0.23827272577E+03  0.25424560495E+03  0.41800000000E+01 0. -1.
        -11    1    1    2    0    0  0.17787132213E+02 -0.46663255859E+02 -0.21709226863E+03  0.22276196852E+03  0.00000000000E+00 0.  1.
         11    1    1    2    0    0  0.40999579328E+02 -0.50797290493E+02 -0.53066643849E+02  0.84127278073E+02  0.00000000000E+00 0. -1.
</event>
<event>
 6    1  0.6597032E-006  0.1984477E+03  0.7561462E-02  0.1151055E+00
          2   -1    0    0  501    0  0.00000000000E+00  0.00000000000E+00  0.32685860126E+03  0.32685860126E+03  0.00000000000E+00 0. -1.
         -2   -1    0    0    0  501 -0.00000000000E+00 -0.00000000000E+00 -0.15233360722E+03  0.15233360722E+03  0.00000000000E+00 0.  1.
          5    1    1    2  502    0  0.57603152332E+02  0.12070635426E+03  0.39546661345E+02  0.13953335781E+03  0.41800000000E+01 0. -1.
         -5    1    1    2    0  502  0.63929752903E+02  0.42308859690E+01 -0.38777143846E+02  0.75007019586E+02  0.41800000000E+01 0. -1.
        -11    1    1    2    0    0 -0.40061187200E+02  0.99654693987E+01  0.27157606300E+02  0.49414015018E+02  0.00000000000E+00 0. -1.
         11    1    1    2    0    0 -0.81471718034E+02 -0.13490270963E+03  0.14659787024E+03  0.21523781606E+03  0.00000000000E+00 0.  1.
</event>
<event>
 6    1  0.6597032E-006  0.1621733E+03  0.7561462E-02  0.1186265E+00
         -1   -1    0    0    0  501 -0.00000000000E+00  0.00000000000E+00  0.12614303516E+03  0.12614303516E+03  0.00000000000E+00 0.  1.
          1   -1    0    0  501    0  0.00000000000E+00 -0.00000000000E+00 -0.23069964884E+03  0.23069964884E+03  0.00000000000E+00 0. -1.
          5    1    1    2  502    0  0.68593624616E+02  0.88689003124E+02 -0.42584882520E+02  0.12000737157E+03  0.41800000000E+01 0.  1.
         -5    1    1    2    0  502  0.54254726873E+02 -0.42094803173E+02 -0.16032589098E+02  0.70640386150E+02  0.41800000000E+01 0.  1.
        -11    1    1    2    0    0 -0.31522176626E+01 -0.20633626900E+02 -0.38127401576E+02  0.43467019523E+02  0.00000000000E+00 0. -1.
         11    1    1    2    0    0 -0.11969613383E+03 -0.25960573051E+02 -0.78117404919E+01  0.12272790675E+03  0.00000000000E+00 0.  1.
</event>
<event>
 6    1  0.6597032E-006  0.1469960E+03  0.7561462E-02  0.1204214E+00
          2   -1    0    0  501    0  0.00000000000E+00  0.00000000000E+00  0.63988878535E+02  0.63988878535E+02  0.00000000000E+00 0.  1.
         -2   -1    0    0    0  501 -0.00000000000E+00 -0.00000000000E+00 -0.53965372558E+03  0.53965372558E+03  0.00000000000E+00 0. -1.
          5    1    1    2  502    0  0.26962337441E+02 -0.48733100129E+02 -0.73072775622E+02  0.91972743928E+02  0.41800000000E+01 0. -1.
         -5    1    1    2    0  502 -0.86257763923E+02 -0.45607733208E+02 -0.34076976313E+03  0.35448832284E+03  0.41800000000E+01 0. -1.
        -11    1    1    2    0    0  0.79687806641E+02  0.57145855230E+02 -0.25461449595E+02  0.10131179947E+03  0.00000000000E+00 0.  1.
         11    1    1    2    0    0 -0.20392380160E+02  0.37194978108E+02 -0.36360858704E+02  0.55869737879E+02  0.00000000000E+00 0. -1.
</event>
<event>
 6    1  0.6597032E-006  0.9282824E+02  0.7561462E-02  0.1296144E+00
          1   -1    0    0  501    0  0.00000000000E+00  0.00000000000E+00  0.38921238446E+03  0.38921238446E+03  0.00000000000E+00 0. -1.
         -1   -1    0    0    0  501 -0.00000000000E+00 -0.00000000000E+00 -0.31917703486E+02  0.31917703486E+02  0.00000000000E+00 0.  1.
          5    1    1    2  502    0  0.27414418284E+02  0.69824483341E+02  0.16650857083E+03  0.18267343913E+03  0.41800000000E+01 0.  1.
         -5    1    1    2    0  502 -0.28325602830E+02 -0.29078968742E+02  0.19684741335E+02  0.45308803120E+02  0.41800000000E+01 0.  1.
        -11    1    1    2    0    0 -0.25574810277E+02 -0.64326849617E+01  0.13366231042E+02  0.29565291962E+02  0.00000000000E+00 0.  1.
         11    1    1    2    0    0  0.26485994823E+02 -0.34312829637E+02  0.15773513776E+03  0.16358255373E+03  0.00000000000E+00 0. -1.
</event>
<event>
 6    1  0.6597032E-006  0.1263226E+03  0.7561462E-02  0.1233017E+00
          3   -1    0    0  501    0  0.00000000000E+00  0.00000000000E+00  0.39811832941E+02  0.39811832941E+02  0.00000000000E+00 0. -1.
         -3   -1    0    0    0  501 -0.00000000000E+00 -0.00000000000E+00 -0.62455558420E+03  0.62455558420E+03  0.00000000000E+00 0.  1.
          5    1    1    2  502    0  0.20860689220E+02 -0.89316354765E+02 -0.11999764516E+03  0.15109429780E+03  0.41800000000E+01 0.  1.
         -5    1    1    2    0  502  0.19224440386E+02 -0.86441510971E+01 -0.28483941171E+03  0.28564884618E+03  0.41800000000E+01 0.  1.
        -11    1    1    2    0    0  0.16102549438E+02 -0.90534827647E+01 -0.27012512891E+02  0.32725120340E+02  0.00000000000E+00 0. -1.
         11    1    1    2    0    0 -0.56187679044E+02  0.10701398863E+03 -0.15289418150E+03  0.19489915283E+03  0.00000000000E+00 0.  1.
</event>
<event>
 6    1  0.7344703E-006  0.1327973E+03  0.7561462E-02  0.1223363E+00
         -2   -1    0    0    0  501 -0.00000000000E+00  0.00000000000E+00  0.50447077807E+02  0.50447077807E+02  0.00000000000E+00 0.  1.
          2   -1    0    0  501    0  0.00000000000E+00 -0.00000000000E+00 -0.48872694750E+03  0.48872694750E+03  0.00000000000E+00 0. -1.
          5    1    1    2  502    0 -0.11433358238E+03  0.42731034341E+02 -0.99720758141E+02  0.15766994438E+03  0.41800000000E+01 0.  1.
         -5    1    1    2    0  502  0.48041424030E+01 -0.32877042014E+02 -0.83373612889E+02  0.89847712280E+02  0.41800000000E+01 0.  1.
        -11    1    1    2    0    0  0.44615803548E+02 -0.34818226310E+01 -0.22670877562E+02  0.50166340354E+02  0.00000000000E+00 0.  1.
         11    1    1    2    0    0  0.64913636428E+02 -0.63721696958E+01 -0.23251462110E+03  0.24149002829E+03  0.00000000000E+00 0. -1.
</event>
<event>
 6    1  0.8153008E-006  0.2160079E+03  0.7561462E-02  0.1136895E+00
          2   -1    0    0  501    0  0.00000000000E+00  0.00000000000E+00  0.19894686965E+03  0.19894686965E+03  0.00000000000E+00 0.  1.
         -2   -1    0    0    0  501 -0.00000000000E+00 -0.00000000000E+00 -0.25912003637E+03  0.25912003637E+03  0.00000000000E+00 0. -1.
          5    1    1    2  502    0 -0.10587823372E+02 -0.67685845425E+02 -0.63798415250E+02  0.93707981854E+02  0.41800000000E+01 0.  1.
         -5    1    1    2    0  502 -0.13523872799E+03 -0.61212112825E+02 -0.87636961505E+01  0.14876394413E+03  0.41800000000E+01 0.  1.
        -11    1    1    2    0    0  0.20021556172E+02  0.75666223036E+02  0.10558277737E+02  0.78979220361E+02  0.00000000000E+00 0. -1.
         11    1    1    2    0    0  0.12580499519E+03  0.53231735215E+02  0.18306669385E+01  0.13661575967E+03  0.00000000000E+00 0.  1.
</event>
<event>
 6    1  0.6597032E-006  0.3136794E+03  0.7561462E-02  0.1078596E+00
          2   -1    0    0  501    0  0.00000000000E+00  0.00000000000E+00  0.68152836274E+03  0.68152836274E+03  0.00000000000E+00 0. -1.
         -2   -1    0    0    0  501 -0.00000000000E+00 -0.00000000000E+00 -0.21464514421E+03  0.21464514421E+03  0.00000000000E+00 0.  1.
          5    1    1    2  502    0  0.24894956681E+01  0.28930323289E+03 -0.15193183289E+02  0.28974275377E+03  0.41800000000E+01 0. -1.
         -5    1    1    2    0  502  0.34474102657E+02  0.10235559447E+02  0.78585396999E+01  0.37046720198E+02  0.41800000000E+01 0. -1.
        -11    1    1    2    0    0 -0.20385167570E+01 -0.15977066085E+02  0.42169358951E+00  0.16112107768E+02  0.00000000000E+00 0.  1.
         11    1    1    2    0    0 -0.34925081568E+02 -0.28356172625E+03  0.47379616852E+03  0.55327192521E+03  0.00000000000E+00 0. -1.
</event>
<event>
 6    1  0.6597032E-006  0.1055061E+03  0.7561462E-02  0.1269126E+00
         -2   -1    0    0    0  501 -0.00000000000E+00  0.00000000000E+00  0.22708814536E+02  0.22708814536E+02  0.00000000000E+00 0.  1.
          2   -1    0    0  501    0  0.00000000000E+00 -0.00000000000E+00 -0.81943542472E+03  0.81943542472E+03  0.00000000000E+00 0. -1.
          5    1    1    2  502    0 -0.42212564897E+02 -0.38323112439E+02 -0.38542412619E+03  0.38964059212E+03  0.41800000000E+01 0.  1.
         -5    1    1    2    0  502 -0.36817494077E+02  0.17172169560E+02 -0.26808008435E+02  0.48852359142E+02  0.41800000000E+01 0.  1.
        -11    1    1    2    0    0  0.34813431133E+02  0.49474518863E+02 -0.12465313243E+03  0.13855723160E+03  0.00000000000E+00 0.  1.
         11    1    1    2    0    0  0.44216627841E+02 -0.28323575985E+02 -0.25984134312E+03  0.26509405638E+03  0.00000000000E+00 0. -1.
</event>
<event>
 6    1  0.6597032E-006  0.1229883E+03  0.7561462E-02  0.1238247E+00
          2   -1    0    0  501    0  0.00000000000E+00  0.00000000000E+00  0.12944509146E+03  0.12944509146E+03  0.00000000000E+00 0. -1.
         -2   -1    0    0    0  501 -0.00000000000E+00 -0.00000000000E+00 -0.14713306130E+03  0.14713306130E+03  0.00000000000E+00 0.  1.
          5    1    1    2  502    0 -0.68651482964E+02  0.40526162686E+02 -0.25525591885E+02  0.83811838163E+02  0.41800000000E+01 0. -1.
         -5    1    1    2    0  502  0.53544020861E+02  0.28177386411E+02  0.63190925941E+01  0.60978115796E+02  0.41800000000E+01 0. -1.
        -11    1    1    2    0    0  0.43423870881E+02 -0.63152477607E+02  0.37779784048E+02  0.85446943029E+02  0.00000000000E+00 0. -1.
         11    1    1    2    0    0 -0.28316408778E+02 -0.55510714890E+01 -0.36261254597E+02  0.46341255763E+02  0.00000000000E+00 0.  1.
</event>
<event>
 6    1  0.8072898E-006  0.1693716E+03  0.7561462E-02  0.1178505E+00
         -1   -1    0    0    0  501 -0.00000000000E+00  0.00000000000E+00  0.17110885625E+02  0.17110885625E+02  0.00000000000E+00 0.  1.
          1   -1    0    0  501    0  0.00000000000E+00 -0.00000000000E+00 -0.20586736264E+04  0.20586736264E+04  0.00000000000E+00 0. -1.
          5    1    1    2  502    0 -0.76967282085E+00  0.35253454914E+01  0.12707702347E+01  0.56663669202E+01  0.41800000000E+01 0. -1.
         -5    1    1    2    0  502 -0.73820406742E+02 -0.13639424837E+03 -0.10548989664E+04  0.10662467562E+04  0.41800000000E+01 0. -1.
        -11    1    1    2    0    0  0.22282886012E+02 -0.11102866965E+02 -0.12736227435E+03  0.12977268430E+03  0.00000000000E+00 0.  1.
         11    1    1    2    0    0  0.52307193550E+02  0.14397176984E+03 -0.86057227024E+03  0.87409870456E+03  0.00000000000E+00 0. -1.
</event>
<event>
 6    1  0.6597032E-006  0.1562649E+03  0.7561462E-02  0.1192979E+00
         -4   -1    0    0    0  501 -0.00000000000E+00  0.00000000000E+00  0.94117597517E+03  0.94117597517E+03  0.00000000000E+00 0.  1.
          4   -1    0    0  501    0  0.00000000000E+00 -0.00000000000E+00 -0.37121730365E+02  0.37121730365E+02  0.00000000000E+00 0. -1.
          5    1    1    2  502    0  0.15414796533E+02  0.11505312812E+03  0.20606984395E+03  0.23655251262E+03  0.41800000000E+01 0.  1.
         -5    1    1    2    0  502 -0.11543791766E+02  0.32960034053E+02  0.36140642651E+03  0.36311389466E+03  0.41800000000E+01 0.  1.
        -11    1    1    2    0    0  0.26391366120E+02 -0.10714902601E+03  0.28754147362E+03  0.30798947552E+03  0.00000000000E+00 0. -1.
         11    1    1    2    0    0 -0.30262370887E+02 -0.40864136164E+02  0.49036500733E+02  0.70641822742E+02  0.00000000000E+00 0.  1.
</event>
<event>
 6    1  0.6597032E-006  0.1187873E+03  0.7561462E-02  0.1245111E+00
         -1   -1    0    0    0  501 -0.00000000000E+00  0.00000000000E+00  0.46739292531E+02  0.46739292531E+02  0.00000000000E+00 0.  1.
          1   -1    0    0  501    0  0.00000000000E+00 -0.00000000000E+00 -0.32855504360E+03  0.32855504360E+03  0.00000000000E+00 0. -1.
          5    1    1    2  502    0  0.37519746522E+02  0.39211808896E+01 -0.39016728474E+02  0.54432385024E+02  0.41800000000E+01 0. -1.
         -5    1    1    2    0  502 -0.93528764989E+02 -0.21102654885E+02 -0.76012761460E+02  0.12242697508E+03  0.41800000000E+01 0.  1.
        -11    1    1    2    0    0 -0.10735992176E+02 -0.23252608623E+02 -0.21177843367E+02  0.33233212085E+02  0.00000000000E+00 0.  1.
         11    1    1    2    0    0  0.66745010644E+02  0.40434082618E+02 -0.14560841777E+03  0.16520176394E+03  0.00000000000E+00 0. -1.
</event>
<event>
 6    1  0.6597032E-006  0.1918465E+03  0.7561462E-02  0.1156806E+00
          2   -1    0    0  501    0  0.00000000000E+00  0.00000000000E+00  0.97468237610E+03  0.97468237610E+03  0.00000000000E+00 0. -1.
         -2   -1    0    0    0  501 -0.00000000000E+00 -0.00000000000E+00 -0.85290667275E+02  0.85290667275E+02  0.00000000000E+00 0.  1.
          5    1    1    2  502    0 -0.83964400865E+02 -0.35219963743E+01  0.17964926525E+03  0.19837781120E+03  0.41800000000E+01 0. -1.
         -5    1    1    2    0  502 -0.70160500924E+02  0.91403906482E+02 -0.89677269744E+01  0.11565060543E+03  0.41800000000E+01 0.  1.
        -11    1    1    2    0    0  0.22401278989E+01 -0.16100669117E+02  0.13893693360E+02  0.21384209927E+02  0.00000000000E+00 0.  1.
         11    1    1    2    0    0  0.15188477389E+03 -0.71781240991E+02  0.70481647719E+03  0.72456041682E+03  0.00000000000E+00 0. -1.
</event>
<event>
 6    1  0.6597032E-006  0.1161328E+03  0.7561462E-02  0.1249617E+00
          2   -1    0    0  501    0  0.00000000000E+00  0.00000000000E+00  0.93877243476E+03  0.93877243476E+03  0.00000000000E+00 0. -1.
         -2   -1    0    0    0  501 -0.00000000000E+00 -0.00000000000E+00 -0.18100931803E+02  0.18100931803E+02  0.00000000000E+00 0.  1.
          5    1    1    2  502    0  0.10273542261E+02 -0.33886365113E+02  0.25157294831E+03  0.25408709557E+03  0.41800000000E+01 0.  1.
         -5    1    1    2    0  502 -0.79442276610E+02  0.42764950377E+02  0.19526763616E+03  0.21514376222E+03  0.41800000000E+01 0.  1.
        -11    1    1    2    0    0  0.56348836447E+02 -0.42324118372E+02  0.39245753711E+03  0.39873480009E+03  0.00000000000E+00 0. -1.
         11    1    1    2    0    0  0.12819897902E+02  0.33445533108E+02  0.81373381375E+02  0.88907708684E+02  0.00000000000E+00 0.  1.
</event>
<event>
 6    1  0.6597032E-006  0.1158443E+03  0.7561462E-02  0.1250114E+00
          2   -1    0    0  501    0  0.00000000000E+00  0.00000000000E+00  0.27469357254E+03  0.27469357254E+03  0.00000000000E+00 0. -1.
         -2   -1    0    0    0  501 -0.00000000000E+00 -0.00000000000E+00 -0.57959561203E+02  0.57959561203E+02  0.00000000000E+00 0.  1.
          5    1    1    2  502    0  0.15317642473E+02  0.67531756700E+02  0.10861724906E+02  0.70218358012E+02  0.41800000000E+01 0. -1.
         -5    1    1    2    0  502 -0.49478742361E+02 -0.24771749873E+02  0.66871535154E+02  0.86896836256E+02  0.41800000000E+01 0. -1.
        -11    1    1    2    0    0 -0.22543569984E+02 -0.44725325869E+02  0.72553174353E+02  0.88161955686E+02  0.00000000000E+00 0.  1.
         11    1    1    2    0    0  0.56704669872E+02  0.19653190420E+01  0.66447576925E+02  0.87375983791E+02  0.00000000000E+00 0. -1.
</event>
<event>
 6    1  0.6597032E-006  0.8575885E+02  0.7561462E-02  0.1313460E+00
         -1   -1    0    0    0  501 -0.00000000000E+00  0.00000000000E+00  0.49233626898E+02  0.49233626898E+02  0.00000000000E+00 0.  1.
          1   -1    0    0  501    0  0.00000000000E+00 -0.00000000000E+00 -0.31730356117E+03  0.31730356117E+03  0.00000000000E+00 0. -1.
          5    1    1    2  502    0  0.23962820465E+02 -0.56621074811E+01  0.25261601886E+02  0.35523191800E+02  0.41800000000E+01 0.  1.
         -5    1    1    2    0  502 -0.44735289577E+02 -0.27586642373E+02 -0.10612770430E+03  0.11850245141E+03  0.41800000000E+01 0.  1.
        -11    1    1    2    0    0  0.22220990723E+02  0.61572100723E+02 -0.16139995815E+03  0.17416900558E+03  0.00000000000E+00 0. -1.
         11    1    1    2    0    0 -0.14485216118E+01 -0.28323350869E+02 -0.25803873710E+02  0.38342539271E+02  0.00000000000E+00 0.  1.
</event>
<event>
 6    1  0.6597032E-006  0.1060755E+03  0.7561462E-02  0.1268015E+00
         -2   -1    0    0    0  501 -0.00000000000E+00  0.00000000000E+00  0.43967696475E+02  0.43967696475E+02  0.00000000000E+00 0. -1.
          2   -1    0    0  501    0  0.00000000000E+00 -0.00000000000E+00 -0.40690206528E+03  0.40690206528E+03  0.00000000000E+00 0.  1.
          5    1    1    2  502    0 -0.15984149540E+02  0.15614307305E+01 -0.14519810263E+03  0.14614339708E+03  0.41800000000E+01 0. -1.
         -5    1    1    2    0  502  0.16362752327E+02  0.74371343979E+02 -0.29562099082E+02  0.81793805212E+02  0.41800000000E+01 0. -1.
        -11    1    1    2    0    0 -0.13299685725E+02 -0.95182302974E+02 -0.14568658834E+03  0.17453118478E+03  0.00000000000E+00 0. -1.
         11    1    1    2    0    0  0.12921082937E+02  0.19249528264E+02 -0.42487578755E+02  0.48401374683E+02  0.00000000000E+00 0.  1.
</event>
<event>
 6    1  0.6597032E-006  0.1114742E+03  0.7561462E-02  0.1257864E+00
         -3   -1    0    0    0  501 -0.00000000000E+00  0.00000000000E+00  0.16821229996E+03  0.16821229996E+03  0.00000000000E+00 0.  1.
          3   -1    0    0  501    0  0.00000000000E+00 -0.00000000000E+00 -0.12571980369E+03  0.12571980369E+03  0.00000000000E+00 0. -1.
          5    1    1    2  502    0 -0.50015533043E+02  0.14755313829E+02 -0.45396171834E+02  0.69264403910E+02  0.41800000000E+01 0.  1.
         -5    1    1    2    0  502 -0.34846121973E+02 -0.61754699404E+02  0.54070753249E+02  0.89269333323E+02  0.41800000000E+01 0.  1.
        -11    1    1    2    0    0  0.67095066861E+02  0.25654852933E+02  0.62687589789E+02  0.95339673744E+02  0.00000000000E+00 0.  1.
         11    1    1    2    0    0  0.17766588155E+02  0.21344532642E+02 -0.28869674934E+02  0.40058692679E+02  0.00000000000E+00 0. -1.
</event>
<event>
 6    1  0.6597032E-006  0.1147825E+03  0.7561462E-02  0.1251961E+00
         -2   -1    0    0    0  501 -0.00000000000E+00  0.00000000000E+00  0.22276004124E+03  0.22276004124E+03  0.00000000000E+00 0. -1.
          2   -1    0    0  501    0  0.00000000000E+00 -0.00000000000E+00 -0.48385420793E+03  0.48385420793E+03  0.00000000000E+00 0.  1.
          5    1    1    2  502    0 -0.69026541718E+02 -0.12330956456E+02  0.14706214432E+02  0.71766712977E+02  0.41800000000E+01 0. -1.
         -5    1    1    2    0  502 -0.28795577156E+02  0.47721065598E+00  0.16839904348E+03  0.17089506499E+03  0.41800000000E+01 0. -1.
        -11    1    1    2    0    0  0.65335252404E+01 -0.29346260360E+02 -0.62856826693E+02  0.69676901560E+02  0.00000000000E+00 0. -1.
         11    1    1    2    0    0  0.91288593633E+02  0.41200006160E+02 -0.38134259791E+03  0.39427556964E+03  0.00000000000E+00 0.  1.
</event>
<event>
 6    1  0.6597032E-006  0.1913943E+03  0.7561462E-02  0.1157210E+00
         -2   -1    0    0    0  501 -0.00000000000E+00  0.00000000000E+00  0.67451913646E+03  0.67451913646E+03  0.00000000000E+00 0.  1.
          2   -1    0    0  501    0  0.00000000000E+00 -0.00000000000E+00 -0.60452829519E+02  0.60452829519E+02  0.00000000000E+00 0. -1.
          5    1    1    2  502    0  0.49832792406E+02 -0.13581092178E+03  0.24923434569E+03  0.28820677498E+03  0.41800000000E+01 0. -1.
         -5    1    1    2    0  502  0.49583082746E+02  0.12833070801E+02  0.15914597377E+03  0.16723660833E+03  0.41800000000E+01 0. -1.
        -11    1    1    2    0    0 -0.17905979024E+01  0.79982232572E+02  0.65649889987E+02  0.10349044315E+03  0.00000000000E+00 0.  1.
         11    1    1    2    0    0 -0.97625277249E+02  0.42995618410E+02  0.14003609749E+03  0.17603813951E+03  0.00000000000E+00 0. -1.
</event>
<event>
 6    1  0.6597032E-006  0.1120704E+03  0.7561462E-02  0.1256783E+00
          1   -1    0    0  501    0  0.00000000000E+00  0.00000000000E+00  0.97993460087E+03  0.97993460087E+03  0.00000000000E+00 0. -1.
         -1   -1    0    0    0  501 -0.00000000000E+00 -0.00000000000E+00 -0.20828478734E+02  0.20828478734E+02  0.00000000000E+00 0.  1.
          5    1    1    2  502    0 -0.11888495878E+02  0.17553931862E+02  0.18643537496E+03  0.18768350565E+03  0.41800000000E+01 0.  1.
         -5    1    1    2    0  502  0.45230357718E+02 -0.77043219243E+02  0.11463810094E+03  0.14539879462E+03  0.41800000000E+01 0.  1.
        -11    1    1    2    0    0 -0.25669641660E+02 -0.20430710188E+02  0.19195217983E+03  0.19473567666E+03  0.00000000000E+00 0. -1.
         11    1    1    2    0    0 -0.76722201803E+01  0.79919997569E+02  0.46608046642E+03  0.47294510268E+03  0.00000000000E+00 0.  1.
</event>
<event>
 6    1  0.6597032E-006  0.1017200E+03  0.7561462E-02  0.1276720E+00
          2   -1    0    0  501    0  0.00000000000E+00  0.00000000000E+00  0.42019085105E+03  0.42019085105E+03  0.00000000000E+00 0. -1.
         -2   -1    0    0    0  501 -0.00000000000E+00 -0.00000000000E+00 -0.47695612085E+02  0.47695612085E+02  0.00000000000E+00 0.  1.
          5    1    1    2  502    0 -0.35815233677E+02 -0.11793394285E+02 -0.15670845876E+02  0.41047081779E+02  0.41800000000E+01 0. -1.
         -5    1    1    2    0  502  0.32581126211E+02  0.53192280080E+02  0.92078581778E+02  0.11129638838E+03  0.41800000000E+01 0. -1.
        -11    1    1    2    0    0  0.24111352587E+02  0.24189432436E+02  0.54291039766E+02  0.64140493949E+02  0.00000000000E+00 0.  1.
         11    1    1    2    0    0 -0.20877245121E+02 -0.65588318231E+02  0.24179646329E+03  0.25140249902E+03  0.00000000000E+00 0. -1.
</event>
<event>
 6    1  0.6597032E-006  0.8375910E+02  0.7561462E-02  0.1318710E+00
         -2   -1    0    0    0  501 -0.00000000000E+00  0.00000000000E+00  0.66676584530E+02  0.66676584530E+02  0.00000000000E+00 0.  1.
          2   -1    0    0  501    0  0.00000000000E+00 -0.00000000000E+00 -0.24324083857E+03  0.24324083857E+03  0.00000000000E+00 0. -1.
          5    1    1    2  502    0  0.18447950184E+02 -0.13708282943E+02 -0.81553294189E+02  0.84833107219E+02  0.41800000000E+01 0. -1.
         -5    1    1    2    0  502 -0.42407189721E+02  0.31290425215E+02  0.36586642303E+02  0.64292419812E+02  0.41800000000E+01 0.  1.
        -11    1    1    2    0    0 -0.29566675369E+02 -0.23044624865E+02 -0.42138814245E+02  0.56399669267E+02  0.00000000000E+00 0. -1.
         11    1    1    2    0    0  0.53525914906E+02  0.54624825925E+01 -0.89458787907E+02  0.10439222680E+03  0.00000000000E+00 0.  1.
</event>
<event>
 6    1  0.6597032E-006  0.9567691E+02  0.7561462E-02  0.1289659E+00
         -4   -1    0    0    0  501 -0.00000000000E+00  0.00000000000E+00  0.37114487778E+03  0.37114487778E+03  0.00000000000E+00 0.  1.
          4   -1    0    0  501    0  0.00000000000E+00 -0.00000000000E+00 -0.40479074306E+02  0.40479074306E+02  0.00000000000E+00 0. -1.
          5    1    1    2  502    0  0.14878365752E+02  0.30181187487E+02  0.11878695000E+03  0.12353170337E+03  0.41800000000E+01 0.  1.
         -5    1    1    2    0  502 -0.45723686145E+02 -0.75290240175E+02  0.90645020587E+02  0.12646449264E+03  0.41800000000E+01 0.  1.
        -11    1    1    2    0    0 -0.52420628707E+01  0.29465106319E+02 -0.41548827873E+01  0.30214810350E+02  0.00000000000E+00 0. -1.
         11    1    1    2    0    0  0.36087383264E+02  0.15643946369E+02  0.12538871567E+03  0.13141294573E+03  0.00000000000E+00 0.  1.
</event>
<event>
 6    1  0.6597032E-006  0.8234443E+02  0.7561462E-02  0.1322527E+00
         -2   -1    0    0    0  501 -0.00000000000E+00  0.00000000000E+00  0.47086035081E+02  0.47086035081E+02  0.00000000000E+00 0.  1.
          2   -1    0    0  501    0  0.00000000000E+00 -0.00000000000E+00 -0.29193067811E+03  0.29193067811E+03  0.00000000000E+00 0. -1.
          5    1    1    2  502    0 -0.30348450105E+02 -0.47969413896E+02 -0.12560691740E+03  0.13790091802E+03  0.41800000000E+01 0. -1.
         -5    1    1    2    0  502  0.47734785543E+01  0.21509327592E+02  0.19875982839E+02  0.29966053540E+02  0.41800000000E+01 0. -1.
        -11    1    1    2    0    0 -0.27704946286E+02  0.65595904875E+01 -0.94992527519E+02  0.99167396661E+02  0.00000000000E+00 0.  1.
         11    1    1    2    0    0  0.53279917837E+02  0.19900495816E+02 -0.44121180953E+02  0.71982344969E+02  0.00000000000E+00 0. -1.
</event>
<event>
 6    1  0.6597032E-006  0.1032545E+03  0.7561462E-02  0.1273597E+00
         -2   -1    0    0    0  501 -0.00000000000E+00  0.00000000000E+00  0.54934597599E+02  0.54934597599E+02  0.00000000000E+00 0.  1.
          2   -1    0    0  501    0  0.00000000000E+00 -0.00000000000E+00 -0.23409338859E+03  0.23409338859E+03  0.00000000000E+00 0. -1.
          5    1    1    2  502    0 -0.58700007013E+02  0.46749349293E+02 -0.37157297829E+02  0.83841097706E+02  0.41800000000E+01 0. -1.
         -5    1    1    2    0  502  0.31282769156E+02 -0.42279820737E+02 -0.33166300933E+02  0.62319104657E+02  0.41800000000E+01 0. -1.
        -11    1    1    2    0    0  0.49323456890E+02  0.12497901203E+02 -0.29460297867E+02  0.58795493743E+02  0.00000000000E+00 0.  1.
         11    1    1    2    0    0 -0.21906219033E+02 -0.16967429759E+02 -0.79374894365E+02  0.84072290086E+02  0.00000000000E+00 0. -1.
</event>
<event>
 6    1  0.6597032E-006  0.9143336E+02  0.7561462E-02  0.1299417E+00
          2   -1    0    0  501    0  0.00000000000E+00  0.00000000000E+00  0.38103856020E+02  0.38103856020E+02  0.00000000000E+00 0. -1.
         -2   -1    0    0    0  501 -0.00000000000E+00 -0.00000000000E+00 -0.33079800280E+03  0.33079800280E+03  0.00000000000E+00 0.  1.
          5    1    1    2  502    0  0.32593049409E+02  0.65413916693E+01 -0.16700407673E+03  0.17033182532E+03  0.41800000000E+01 0. -1.
         -5    1    1    2    0  502 -0.55512122242E+02 -0.24877731285E+01 -0.27625079639E+02  0.62196480254E+02  0.41800000000E+01 0. -1.
        -11    1    1    2    0    0 -0.35285296130E+02  0.90474964327E-01 -0.47427910699E+02  0.59114017136E+02  0.00000000000E+00 0. -1.
         11    1    1    2    0    0  0.58204368962E+02 -0.41440935051E+01 -0.50637079719E+02  0.77259536109E+02  0.00000000000E+00 0.  1.
</event>
<event>
 6    1  0.6597032E-006  0.1734355E+03  0.7561462E-02  0.1174312E+00
          2   -1    0    0  501    0  0.00000000000E+00  0.00000000000E+00  0.13506966934E+04  0.13506966934E+04  0.00000000000E+00 0. -1.
         -2   -1    0    0    0  501 -0.00000000000E+00 -0.00000000000E+00 -0.24253051712E+02  0.24253051712E+02  0.00000000000E+00 0.  1.
          5    1    1    2  502    0  0.14301813025E+02  0.46309914412E+02  0.12997282358E+03  0.13877880710E+03  0.41800000000E+01 0. -1.
         -5    1    1    2    0  502  0.12453423493E+03 -0.60609644968E+02  0.41537148376E+03  0.43787355099E+03  0.41800000000E+01 0. -1.
        -11    1    1    2    0    0  0.10059797395E+02  0.20003113755E+01  0.18062120021E+02  0.20771156657E+02  0.00000000000E+00 0.  1.
         11    1    1    2    0    0 -0.14889584535E+03  0.12299419180E+02  0.76303721436E+03  0.77752623041E+03  0.00000000000E+00 0. -1.
</event>
<event>
 6    1  0.6597032E-006  0.8218391E+02  0.7561462E-02  0.1322966E+00
          2   -1    0    0  501    0  0.00000000000E+00  0.00000000000E+00  0.40860070196E+03  0.40860070196E+03  0.00000000000E+00 0.  1.
         -2   -1    0    0    0  501 -0.00000000000E+00 -0.00000000000E+00 -0.29108155513E+02  0.29108155513E+02  0.00000000000E+00 0. -1.
          5    1    1    2  502    0  0.30280636582E+02  0.22695322321E+02  0.14021270323E+03  0.14528960442E+03  0.41800000000E+01 0.  1.
         -5    1    1    2    0  502 -0.40896693507E+02 -0.35118679133E+01  0.76081493363E+01  0.41955084226E+02  0.41800000000E+01 0. -1.
        -11    1    1    2    0    0 -0.25280204865E+01  0.32047074888E+02  0.38366012400E+02  0.50053539375E+02  0.00000000000E+00 0. -1.
         11    1    1    2    0    0  0.13144077411E+02 -0.51230529296E+02  0.19330568149E+03  0.20041062946E+03  0.00000000000E+00 0.  1.
</event>
<event>
 6    1  0.6597032E-006  0.8025966E+02  0.7561462E-02  0.1328316E+00
          4   -1    0    0  501    0  0.00000000000E+00  0.00000000000E+00  0.69585905696E+02  0.69585905696E+02  0.00000000000E+00 0. -1.
         -4   -1    0    0    0  501 -0.00000000000E+00 -0.00000000000E+00 -0.26171060042E+03  0.26171060042E+03  0.00000000000E+00 0.  1.
          5    1    1    2  502    0 -0.81410567483E+01  0.42342794328E+01  0.14178707056E+02  0.17398679866E+02  0.41800000000E+01 0. -1.
         -5    1    1    2    0  502  0.44114075599E+02  0.19021147153E+02 -0.20594513071E+03  0.21151530670E+03  0.41800000000E+01 0.  1.
        -11    1    1    2    0    0 -0.33310289374E+02  0.32415540290E+02  0.27546721188E+01  0.46561044328E+02  0.00000000000E+00 0.  1.
         11    1    1    2    0    0 -0.26627294772E+01 -0.55670966875E+02 -0.31129431928E+01  0.55821475226E+02  0.00000000000E+00 0. -1.
</event>
<event>
 6    1  0.6597032E-006  0.1681612E+03  0.7561462E-02  0.1179779E+00
         -2   -1    0    0    0  501 -0.00000000000E+00  0.00000000000E+00  0.59193008725E+03  0.59193008725E+03  0.00000000000E+00 0.  1.
          2   -1    0    0  501    0  0.00000000000E+00 -0.00000000000E+00 -0.57292738100E+02  0.57292738100E+02  0.00000000000E+00 0. -1.
          5    1    1    2  502    0  0.91849336710E+01  0.30814549540E+02  0.48031915330E+02  0.57952021192E+02  0.41800000000E+01 0. -1.
         -5    1    1    2    0  502 -0.13881763931E+03 -0.42886560647E+02  0.36039796567E+03  0.38860488947E+03  0.41800000000E+01 0. -1.
        -11    1    1    2    0    0  0.67876422953E+02  0.51564786628E+02  0.69693722689E+02  0.11010608973E+03  0.00000000000E+00 0.  1.
         11    1    1    2    0    0  0.61756282685E+02 -0.39492775522E+02  0.56513745465E+02  0.92559824957E+02  0.00000000000E+00 0. -1.
</event>
<event>
 6    1  0.6597032E-006  0.9961843E+02  0.7561462E-02  0.1281100E+00
         -2   -1    0    0    0  501 -0.00000000000E+00  0.00000000000E+00  0.52240014109E+03  0.52240014109E+03  0.00000000000E+00 0.  1.
          2   -1    0    0  501    0  0.00000000000E+00 -0.00000000000E+00 -0.26741178411E+02  0.26741178411E+02  0.00000000000E+00 0. -1.
          5    1    1    2  502    0 -0.41451849351E+02 -0.26557652736E+02  0.10245620579E+03  0.11374669771E+03  0.41800000000E+01 0. -1.
         -5    1    1    2    0  502  0.51058569737E+02  0.62319065045E+02  0.19848779476E+03  0.21425573617E+03  0.41800000000E+01 0. -1.
        -11    1    1    2    0    0  0.24192793005E+02 -0.81998489687E+01  0.44373748989E+01  0.25927187516E+02  0.00000000000E+00 0. -1.
         11    1    1    2    0    0 -0.33799513391E+02 -0.27561563340E+02  0.19027758722E+03  0.19521169811E+03  0.00000000000E+00 0.  1.
</event>
<event>
 6    1  0.6597032E-006  0.2081441E+03  0.7561462E-02  0.1143044E+00
          1   -1    0    0  501    0  0.00000000000E+00  0.00000000000E+00  0.50019331924E+03  0.50019331924E+03  0.00000000000E+00 0. -1.
         -1   -1    0    0    0  501 -0.00000000000E+00 -0.00000000000E+00 -0.10712027107E+03  0.10712027107E+03  0.00000000000E+00 0.  1.
          5    1    1    2  502    0  0.27766770011E+02 -0.47242123606E+01 -0.13481879822E+01  0.28506169685E+02  0.41800000000E+01 0. -1.
         -5    1    1    2    0  502 -0.74211739279E+02 -0.18129693696E+03  0.11310508038E+03  0.22624365893E+03  0.41800000000E+01 0. -1.
        -11    1    1    2    0    0  0.22749606920E+02  0.10610612765E+03  0.80439944559E+02  0.13508012297E+03  0.00000000000E+00 0.  1.
         11    1    1    2    0    0  0.23695362348E+02  0.79915021665E+02  0.20087621121E+03  0.21748363873E+03  0.00000000000E+00 0. -1.
</event>
<event>
 6    1  0.6597032E-006  0.4766793E+02  0.7561462E-02  0.1458342E+00
          2   -1    0    0  501    0  0.00000000000E+00  0.00000000000E+00  0.60293859847E+02  0.60293859847E+02  0.00000000000E+00 0. -1.
         -2   -1    0    0    0  501 -0.00000000000E+00 -0.00000000000E+00 -0.21821835417E+03  0.21821835417E+03  0.00000000000E+00 0.  1.
          5    1    1    2  502    0 -0.57113887951E+01 -0.22686913221E+02  0.19145584259E+02  0.30517892949E+02  0.41800000000E+01 0. -1.
         -5    1    1    2    0  502  0.24218190489E+02 -0.92339346211E+00 -0.15361980913E+03  0.15557599931E+03  0.41800000000E+01 0. -1.
        -11    1    1    2    0    0 -0.53756641784E+00  0.28380312997E+02 -0.51477806301E+02  0.58785165518E+02  0.00000000000E+00 0.  1.
         11    1    1    2    0    0 -0.17969235276E+02 -0.47700063138E+01  0.28027536848E+02  0.33633156236E+02  0.00000000000E+00 0. -1.
</event>
<event>
 6    1  0.6869611E-006  0.2394270E+03  0.7561462E-02  0.1120175E+00
          2   -1    0    0  501    0  0.00000000000E+00  0.00000000000E+00  0.63932610527E+03  0.63932610527E+03  0.00000000000E+00 0. -1.
         -2   -1    0    0    0  501 -0.00000000000E+00 -0.00000000000E+00 -0.96984584685E+02  0.96984584685E+02  0.00000000000E+00 0.  1.
          5    1    1    2  502    0 -0.12540079565E+03 -0.94803661749E+02  0.93190585650E+02  0.18279784322E+03  0.41800000000E+01 0.  1.
         -5    1    1    2    0  502 -0.81150145330E+02  0.18079428964E+02  0.13269678985E+03  0.15664648823E+03  0.41800000000E+01 0.  1.
        -11    1    1    2    0    0  0.91867292822E+02  0.82564947214E+02  0.14453588776E+03  0.19012415115E+03  0.00000000000E+00 0. -1.
         11    1    1    2    0    0  0.11468364816E+03 -0.58407144281E+01  0.17191825732E+03  0.20674220735E+03  0.00000000000E+00 0.  1.
</event>
<event>
 6    1  0.6597032E-006  0.1297846E+03  0.7561462E-02  0.1227776E+00
          1   -1    0    0  501    0  0.00000000000E+00  0.00000000000E+00  0.10086826741E+04  0.10086826741E+04  0.00000000000E+00 0. -1.
         -1   -1    0    0    0  501 -0.00000000000E+00 -0.00000000000E+00 -0.16979607642E+02  0.16979607642E+02  0.00000000000E+00 0.  1.
          5    1    1    2  502    0  0.57100795845E+02  0.53655311683E+02  0.25544829108E+03  0.26722779641E+03  0.41800000000E+01 0. -1.
         -5    1    1    2    0  502  0.23021540387E+02 -0.66528825169E+02  0.24945015786E+03  0.25922756327E+03  0.41800000000E+01 0. -1.
        -11    1    1    2    0    0 -0.27239474038E+02 -0.31430331910E+02  0.18108492865E+03  0.18579990875E+03  0.00000000000E+00 0.  1.
         11    1    1    2    0    0 -0.52882862194E+02  0.44303845396E+02  0.30571968891E+03  0.31340701335E+03  0.00000000000E+00 0. -1.
</event>
<event>
 6    1  0.6597032E-006  0.1061094E+03  0.7561462E-02  0.1267949E+00
         -1   -1    0    0    0  501 -0.00000000000E+00  0.00000000000E+00  0.21272835571E+02  0.21272835571E+02  0.00000000000E+00 0.  1.
          1   -1    0    0  501    0  0.00000000000E+00 -0.00000000000E+00 -0.60025846832E+03  0.60025846832E+03  0.00000000000E+00 0. -1.
          5    1    1    2  502    0 -0.19844061459E+02  0.69976673502E+02 -0.13664479448E+03  0.15485410511E+03  0.41800000000E+01 0. -1.
         -5    1    1    2    0  502  0.49511755042E+01 -0.52146959360E+02 -0.14387549255E+03  0.15317130692E+03  0.41800000000E+01 0. -1.
        -11    1    1    2    0    0 -0.12732184989E+02 -0.45779345925E+02 -0.22727662229E+03  0.23219069767E+03  0.00000000000E+00 0.  1.
         11    1    1    2    0    0  0.27625070943E+02  0.27949631783E+02 -0.71188723431E+02  0.81315194184E+02  0.00000000000E+00 0. -1.
</event>
<event>
 6    1  0.6597032E-006  0.1543267E+03  0.7561462E-02  0.1195255E+00
         -1   -1    0    0    0  501 -0.00000000000E+00  0.00000000000E+00  0.13027706172E+03  0.13027706172E+03  0.00000000000E+00 0.  1.
          1   -1    0    0  501    0  0.00000000000E+00 -0.00000000000E+00 -0.22727926280E+03  0.22727926280E+03  0.00000000000E+00 0. -1.
          5    1    1    2  502    0 -0.13289768117E+03 -0.43153470404E+02 -0.26522467523E+01  0.13981603084E+03  0.41800000000E+01 0.  1.
         -5    1    1    2    0  502  0.48293260313E+01  0.37375201290E+02 -0.12555836584E+02  0.39941826369E+02  0.41800000000E+01 0.  1.
        -11    1    1    2    0    0  0.12094881778E+02 -0.74731077501E+01  0.18892991939E+02  0.23644844027E+02  0.00000000000E+00 0.  1.
         11    1    1    2    0    0  0.11597347336E+03  0.13251376865E+02 -0.10068710969E+03  0.15415362328E+03  0.00000000000E+00 0. -1.
</event>
<event>
 6    1  0.6597032E-006  0.2393619E+03  0.7561462E-02  0.1120219E+00
          1   -1    0    0  501    0  0.00000000000E+00  0.00000000000E+00  0.37065776497E+02  0.37065776497E+02  0.00000000000E+00 0. -1.
         -1   -1    0    0    0  501 -0.00000000000E+00 -0.00000000000E+00 -0.17698091826E+04  0.17698091826E+04  0.00000000000E+00 0.  1.
          5    1    1    2  502    0  0.11053062062E+03  0.72327784865E+02 -0.70026720838E+03  0.71262890910E+03  0.41800000000E+01 0.  1.
         -5    1    1    2    0  502  0.83878288757E+02  0.53392805410E+02 -0.17473311999E+03  0.20108578920E+03  0.41800000000E+01 0.  1.
        -11    1    1    2    0    0 -0.20117259572E+02 -0.55691308427E+02 -0.16105322352E+03  0.17159360936E+03  0.00000000000E+00 0.  1.
         11    1    1    2    0    0 -0.17429164980E+03 -0.70029281848E+02 -0.69668985424E+03  0.72156665146E+03  0.00000000000E+00 0. -1.
</event>
<event>
 6    1  0.6597032E-006  0.9357608E+02  0.7561462E-02  0.1294416E+00
         -4   -1    0    0    0  501 -0.00000000000E+00  0.00000000000E+00  0.26578857061E+02  0.26578857061E+02  0.00000000000E+00 0.  1.
          4   -1    0    0  501    0  0.00000000000E+00 -0.00000000000E+00 -0.43508274325E+03  0.43508274325E+03  0.00000000000E+00 0. -1.
          5    1    1    2  502    0 -0.13229286636E+02  0.62693999325E+02 -0.12123178416E+03  0.13718662277E+03  0.41800000000E+01 0.  1.
         -5    1    1    2    0  502  0.11815133031E+02 -0.57823298207E+02 -0.74333526816E+02  0.95005667162E+02  0.41800000000E+01 0.  1.
        -11    1    1    2    0    0 -0.30567976098E+02  0.33576021590E+01 -0.27948412132E+02  0.41554643491E+02  0.00000000000E+00 0.  1.
         11    1    1    2    0    0  0.31982129703E+02 -0.82283032776E+01 -0.18499016308E+03  0.18791466689E+03  0.00000000000E+00 0. -1.
</event>
<event>
 6    1  0.6597032E-006  0.1110908E+03  0.7561462E-02  0.1258563E+00
         -1   -1    0    0    0  501 -0.00000000000E+00  0.00000000000E+00  0.21242049620E+02  0.21242049620E+02  0.00000000000E+00 0.  1.
          1   -1    0    0  501    0  0.00000000000E+00 -0.00000000000E+00 -0.65220203580E+03  0.65220203580E+03  0.00000000000E+00 0. -1.
          5    1    1    2  502    0  0.66301914508E+02  0.31288838233E+02 -0.26405387606E+03  0.27407454666E+03  0.41800000000E+01 0.  1.
         -5    1    1    2    0  502 -0.29172625757E+02 -0.44048033456E+02 -0.10592821366E+03  0.11844631777E+03  0.41800000000E+01 0.  1.
        -11    1    1    2    0    0 -0.65996185817E+01 -0.36884940703E+02 -0.52824219836E+02  0.64764589224E+02  0.00000000000E+00 0.  1.
         11    1    1    2    0    0 -0.30529670169E+02  0.49644135926E+02 -0.20815367663E+03  0.21615863177E+03  0.00000000000E+00 0. -1.
</event>
<event>
 6    1  0.6597032E-006  0.1320442E+03  0.7561462E-02  0.1224454E+00
         -2   -1    0    0    0  501 -0.00000000000E+00  0.00000000000E+00  0.23629407754E+03  0.23629407754E+03  0.00000000000E+00 0.  1.
          2   -1    0    0  501    0  0.00000000000E+00 -0.00000000000E+00 -0.13227451142E+03  0.13227451142E+03  0.00000000000E+00 0. -1.
          5    1    1    2  502    0  0.19902084489E+01  0.55189981783E+01 -0.22327074536E+02  0.23460411929E+02  0.41800000000E+01 0.  1.
         -5    1    1    2    0  502 -0.12579831855E+03 -0.29225411445E+02  0.13479402577E+03  0.18672504761E+03  0.41800000000E+01 0.  1.
        -11    1    1    2    0    0  0.58702801027E+02  0.98089104931E+00 -0.50647107617E+02  0.77537800495E+02  0.00000000000E+00 0. -1.
         11    1    1    2    0    0  0.65105309071E+02  0.22725522218E+02  0.42199722511E+02  0.80845328927E+02  0.00000000000E+00 0.  1.
</event>
<event>
 6    1  0.6597032E-006  0.7590296E+02  0.7561462E-02  0.1341097E+00
         -1   -1    0    0    0  501 -0.00000000000E+00  0.00000000000E+00  0.23729508891E+03  0.23729508891E+03  0.00000000000E+00 0.  1.
          1   -1    0    0  501    0  0.00000000000E+00 -0.00000000000E+00 -0.64392274999E+02  0.64392274999E+02  0.00000000000E+00 0. -1.
          5    1    1    2  502    0 -0.12995300170E+02 -0.35198747460E+02  0.16059397450E+03  0.16497189668E+03  0.41800000000E+01 0. -1.
         -5    1    1    2    0  502  0.37653006836E+01 -0.92031093954E+01 -0.23634641106E+02  0.25979672284E+02  0.41800000000E+01 0. -1.
        -11    1    1    2    0    0 -0.28642803538E+02 -0.15369903164E+02  0.28842327535E+01  0.32633769570E+02  0.00000000000E+00 0. -1.
         11    1    1    2    0    0  0.37872803024E+02  0.59771760019E+02  0.33059247765E+02  0.78102025373E+02  0.00000000000E+00 0.  1.
</event>
<event>
 6    1  0.6597032E-006  0.1194528E+03  0.7561462E-02  0.1244003E+00
          2   -1    0    0  501    0  0.00000000000E+00  0.00000000000E+00  0.80597221917E+03  0.80597221917E+03  0.00000000000E+00 0. -1.
         -2   -1    0    0    0  501 -0.00000000000E+00 -0.00000000000E+00 -0.19296735836E+02  0.19296735836E+02  0.00000000000E+00 0.  1.
          5    1    1    2  502    0  0.67908951227E+02  0.88804376460E+01  0.18664221154E+03  0.19885491031E+03  0.41800000000E+01 0.  1.
         -5    1    1    2    0  502 -0.31820834073E+02 -0.66223937859E+02  0.21251324889E+03  0.22489448366E+03  0.41800000000E+01 0.  1.
        -11    1    1    2    0    0 -0.47724250243E+02  0.11077460362E+02  0.11729778820E+03  0.12711839090E+03  0.00000000000E+00 0.  1.
         11    1    1    2    0    0  0.11636133090E+02  0.46266039851E+02  0.27022223470E+03  0.27440117012E+03  0.00000000000E+00 0. -1.
</event>
<event>
 6    1  0.6597032E-006  0.9596291E+02  0.7561462E-02  0.1289022E+00
          4   -1    0    0  501    0  0.00000000000E+00  0.00000000000E+00  0.97962292326E+02  0.97962292326E+02  0.00000000000E+00 0. -1.
         -4   -1    0    0    0  501 -0.00000000000E+00 -0.00000000000E+00 -0.13021500492E+03  0.13021500492E+03  0.00000000000E+00 0.  1.
          5    1    1    2  502    0 -0.78103330217E+02  0.37936395528E+02 -0.25897591432E+02  0.90705335778E+02  0.41800000000E+01 0.  1.
         -5    1    1    2    0  502  0.21047651145E+02 -0.41465145685E+02  0.99701284165E+01  0.47741363471E+02  0.41800000000E+01 0.  1.
        -11    1    1    2    0    0  0.15932884968E+02 -0.41714787647E+01 -0.38862881811E+02  0.42208786303E+02  0.00000000000E+00 0.  1.
         11    1    1    2    0    0  0.41122794104E+02  0.77002289224E+01  0.22537632230E+02  0.47521811696E+02  0.00000000000E+00 0. -1.
</event>
<event>
 6    1  0.6597032E-006  0.7490216E+02  0.7561462E-02  0.1344174E+00
          1   -1    0    0  501    0  0.00000000000E+00  0.00000000000E+00  0.42779781096E+03  0.42779781096E+03  0.00000000000E+00 0. -1.
         -1   -1    0    0    0  501 -0.00000000000E+00 -0.00000000000E+00 -0.37388448622E+02  0.37388448622E+02  0.00000000000E+00 0.  1.
          5    1    1    2  502    0 -0.23858363065E+02  0.76428305389E+01 -0.19869998431E+02  0.32247846199E+02  0.41800000000E+01 0.  1.
         -5    1    1    2    0  502  0.46586828931E+02 -0.14787750567E+02  0.19641375556E+03  0.20244714364E+03  0.41800000000E+01 0. -1.
        -11    1    1    2    0    0 -0.32917468025E+02 -0.25188260335E+02  0.17039963141E+03  0.17536830542E+03  0.00000000000E+00 0. -1.
         11    1    1    2    0    0  0.10189002159E+02  0.32333180363E+02  0.43465973798E+02  0.55122964321E+02  0.00000000000E+00 0.  1.
</event>
<event>
 6    1  0.6597032E-006  0.9360792E+02  0.7561462E-02  0.1294343E+00
         -4   -1    0    0    0  501 -0.00000000000E+00  0.00000000000E+00  0.34102233928E+03  0.34102233928E+03  0.00000000000E+00 0.  1.
          4   -1    0    0  501    0  0.00000000000E+00 -0.00000000000E+00 -0.42853357450E+02  0.42853357450E+02  0.00000000000E+00 0. -1.
          5    1    1    2  502    0  0.48155782003E+02  0.38891131307E+02  0.16223988752E+03  0.17369730262E+03  0.41800000000E+01 0.  1.
         -5    1    1    2    0  502 -0.60297642987E+02  0.10634750912E+02  0.56656307228E+02  0.83524327148E+02  0.41800000000E+01 0.  1.
        -11    1    1    2    0    0 -0.92950878499E+01 -0.38678668915E+02 -0.40040799055E+01  0.39980879719E+02  0.00000000000E+00 0. -1.
         11    1    1    2    0    0  0.21436948834E+02 -0.10847213304E+02  0.83276866995E+02  0.86673187251E+02  0.00000000000E+00 0.  1.
</event>
<event>
 6    1  0.6597032E-006  0.1001695E+03  0.7561462E-02  0.1279940E+00
          3   -1    0    0  501    0  0.00000000000E+00  0.00000000000E+00  0.17815335152E+03  0.17815335152E+03  0.00000000000E+00 0. -1.
         -3   -1    0    0    0  501 -0.00000000000E+00 -0.00000000000E+00 -0.60399560257E+02  0.60399560257E+02  0.00000000000E+00 0.  1.
          5    1    1    2  502    0  0.30960581453E+02  0.60940720048E+02  0.62468193911E+02  0.92693455079E+02  0.41800000000E+01 0. -1.
         -5    1    1    2    0  502 -0.39038947565E+02 -0.27328717227E+02  0.15463715575E+02  0.50274219155E+02  0.41800000000E+01 0.  1.
        -11    1    1    2    0    0  0.50741206981E+01  0.24909701957E+02  0.23828715410E+02  0.34843186286E+02  0.00000000000E+00 0. -1.
         11    1    1    2    0    0  0.30042454136E+01 -0.58521704778E+02  0.15993166367E+02  0.60742051258E+02  0.00000000000E+00 0.  1.
</event>
<event>
 6    1  0.6597032E-006  0.8572322E+02  0.7561462E-02  0.1313552E+00
         -2   -1    0    0    0  501 -0.00000000000E+00  0.00000000000E+00  0.27300603005E+02  0.27300603005E+02  0.00000000000E+00 0.  1.
          2   -1    0    0  501    0  0.00000000000E+00 -0.00000000000E+00 -0.49825173583E+03  0.49825173583E+03  0.00000000000E+00 0. -1.
          5    1    1    2  502    0 -0.33878520489E+02  0.42527230417E+02 -0.23008091564E+03  0.23645511122E+03  0.41800000000E+01 0.  1.
         -5    1    1    2    0  502  0.63338649509E+01 -0.17548574135E+02  0.83230943057E+01  0.20852256429E+02  0.41800000000E+01 0.  1.
        -11    1    1    2    0    0 -0.26080244255E+02 -0.34584938419E+02 -0.13382439932E+03  0.14066011147E+03  0.00000000000E+00 0.  1.
         11    1    1    2    0    0  0.53624899793E+02  0.96062821364E+01 -0.11536891217E+03  0.12758485972E+03  0.00000000000E+00 0. -1.
</event>
<event>
 6    1  0.6597032E-006  0.1560757E+03  0.7561462E-02  0.1193200E+00
          2   -1    0    0  501    0  0.00000000000E+00  0.00000000000E+00  0.25701823127E+03  0.25701823127E+03  0.00000000000E+00 0. -1.
         -2   -1    0    0    0  501 -0.00000000000E+00 -0.00000000000E+00 -0.14565038509E+03  0.14565038509E+03  0.00000000000E+00 0.  1.
          5    1    1    2  502    0  0.58328742118E+02  0.84427155500E+02 -0.63891134409E+02  0.12095344641E+03  0.41800000000E+01 0. -1.
         -5    1    1    2    0  502 -0.18012014384E+02  0.49744513670E+02  0.42617705941E+02  0.68063871195E+02  0.41800000000E+01 0. -1.
        -11    1    1    2    0    0 -0.28839193058E+02 -0.83334246480E+01  0.62000756046E+02  0.68885693529E+02  0.00000000000E+00 0. -1.
         11    1    1    2    0    0 -0.11477534676E+02 -0.12583824452E+03  0.70640518610E+02  0.14476560523E+03  0.00000000000E+00 0.  1.
</event>
<event>
 6    1  0.6597032E-006  0.9271271E+02  0.7561462E-02  0.1296412E+00
          2   -1    0    0  501    0  0.00000000000E+00  0.00000000000E+00  0.40015782655E+03  0.40015782655E+03  0.00000000000E+00 0.  1.
         -2   -1    0    0    0  501 -0.00000000000E+00 -0.00000000000E+00 -0.38589495818E+02  0.38589495818E+02  0.00000000000E+00 0. -1.
          5    1    1    2  502    0 -0.17427345363E+02  0.50775375885E+02 -0.11440333706E+00  0.53845488677E+02  0.41800000000E+01 0. -1.
         -5    1    1    2    0  502  0.29482470623E+02 -0.23015215392E+02  0.10708331300E+03  0.11350429303E+03  0.41800000000E+01 0. -1.
        -11    1    1    2    0    0 -0.38095957875E+02 -0.47772713821E+02  0.16117950676E+03  0.17237275769E+03  0.00000000000E+00 0. -1.
         11    1    1    2    0    0  0.26040832616E+02  0.20012553328E+02  0.93419914307E+02  0.99024782975E+02  0.00000000000E+00 0.  1.
</event>
<event>
 6    1  0.6597032E-006  0.1022557E+03  0.7561462E-02  0.1275623E+00
         -2   -1    0    0    0  501 -0.00000000000E+00  0.00000000000E+00  0.29469217529E+03  0.29469217529E+03  0.00000000000E+00 0.  1.
          2   -1    0    0  501    0  0.00000000000E+00 -0.00000000000E+00 -0.69586493517E+02  0.69586493517E+02  0.00000000000E+00 0. -1.
          5    1    1    2  502    0 -0.48589161590E+02 -0.23987844589E+02  0.18030857134E+03  0.18832147146E+03  0.41800000000E+01 0. -1.
         -5    1    1    2    0  502  0.48458871929E+02  0.26114548324E+02  0.53601574321E+02  0.76946949728E+02  0.41800000000E+01 0. -1.
        -11    1    1    2    0    0  0.32134622490E+02 -0.36067423860E+02  0.88889924342E+01  0.49117280187E+02  0.00000000000E+00 0.  1.
         11    1    1    2    0    0 -0.32004332829E+02  0.33940720126E+02 -0.17693456327E+02  0.49892967433E+02  0.00000000000E+00 0. -1.
</event>
<event>
 6    1  0.6597032E-006  0.1588751E+03  0.7561462E-02  0.1189973E+00
          1   -1    0    0  501    0  0.00000000000E+00  0.00000000000E+00  0.51220122059E+03  0.51220122059E+03  0.00000000000E+00 0. -1.
         -1   -1    0    0    0  501 -0.00000000000E+00 -0.00000000000E+00 -0.50073127704E+02  0.50073127704E+02  0.00000000000E+00 0.  1.
          5    1    1    2  502    0  0.58978390786E+02  0.11313126686E+02  0.67113939735E+02  0.90156479090E+02  0.41800000000E+01 0. -1.
         -5    1    1    2    0  502 -0.13219858732E+03  0.63842215665E+01  0.18600323751E+03  0.22832411510E+03  0.41800000000E+01 0.  1.
        -11    1    1    2    0    0  0.66213101972E+02  0.32980844528E+02  0.11430288900E+03  0.13615087739E+03  0.00000000000E+00 0.  1.
         11    1    1    2    0    0  0.70070945609E+01 -0.50678192780E+02  0.94708026637E+02  0.10764287671E+03  0.00000000000E+00 0. -1.
</event>
<event>
 6    1  0.6597032E-006  0.1393838E+03  0.7561462E-02  0.1214161E+00
          1   -1    0    0  501    0  0.00000000000E+00  0.00000000000E+00  0.50931313188E+03  0.50931313188E+03  0.00000000000E+00 0.  1.
         -1   -1    0    0    0  501 -0.00000000000E+00 -0.00000000000E+00 -0.44500616171E+02  0.44500616171E+02  0.00000000000E+00 0. -1.
          5    1    1    2  502    0 -0.35960764245E+01  0.11195597198E+03  0.16754563858E+03  0.20158393992E+03  0.41800000000E+01 0.  1.
         -5    1    1    2    0  502 -0.44750900460E+02 -0.20547623226E+02  0.56395557911E+02  0.74985193634E+02  0.41800000000E+01 0.  1.
        -11    1    1    2    0    0  0.56004941118E+01 -0.68556294330E+02  0.20695258394E+03  0.21808416501E+03  0.00000000000E+00 0.  1.
         11    1    1    2    0    0  0.42746482772E+02 -0.22852054421E+02  0.33918735267E+02  0.59160449481E+02  0.00000000000E+00 0. -1.
</event>
<event>
 6    1  0.6597032E-006  0.9775424E+02  0.7561462E-02  0.1285091E+00
         -1   -1    0    0    0  501 -0.00000000000E+00  0.00000000000E+00  0.46455070780E+03  0.46455070780E+03  0.00000000000E+00 0.  1.
          1   -1    0    0  501    0  0.00000000000E+00 -0.00000000000E+00 -0.34071238041E+02  0.34071238041E+02  0.00000000000E+00 0. -1.
          5    1    1    2  502    0 -0.30603818159E+01 -0.30105373309E+02  0.17264150356E+03  0.17532330305E+03  0.41800000000E+01 0. -1.
         -5    1    1    2    0  502  0.35862201093E+02  0.72373556704E+02  0.15370208017E+03  0.17368313397E+03  0.41800000000E+01 0.  1.
        -11    1    1    2    0    0 -0.14830040310E+02 -0.58202768600E+02  0.10960414690E+03  0.12498224428E+03  0.00000000000E+00 0.  1.
         11    1    1    2    0    0 -0.17971778967E+02  0.15934585204E+02 -0.54682608745E+01  0.24633264540E+02  0.00000000000E+00 0. -1.
</event>
<event>
 6    1  0.6597032E-006  0.1096004E+03  0.7561462E-02  0.1261312E+00
         -1   -1    0    0    0  501 -0.00000000000E+00  0.00000000000E+00  0.60573131984E+02  0.60573131984E+02  0.00000000000E+00 0.  1.
          1   -1    0    0  501    0  0.00000000000E+00 -0.00000000000E+00 -0.41491975360E+03  0.41491975360E+03  0.00000000000E+00 0. -1.
          5    1    1    2  502    0 -0.89116936516E+02  0.15652397629E+01 -0.86476532806E+02  0.12425756104E+03  0.41800000000E+01 0.  1.
         -5    1    1    2    0  502  0.14360506063E+02  0.77910038531E+01  0.28284813747E+02  0.32930638684E+02  0.41800000000E+01 0.  1.
        -11    1    1    2    0    0  0.86420628103E+02  0.13479824845E+02 -0.19109544899E+03  0.21016113167E+03  0.00000000000E+00 0.  1.
         11    1    1    2    0    0 -0.11664197650E+02 -0.22836068461E+02 -0.10505945356E+03  0.10814355419E+03  0.00000000000E+00 0. -1.
</event>
<event>
 6    1  0.6597032E-006  0.1903807E+03  0.7561462E-02  0.1158118E+00
         -3   -1    0    0    0  501 -0.00000000000E+00  0.00000000000E+00  0.50783343741E+03  0.50783343741E+03  0.00000000000E+00 0.  1.
          3   -1    0    0  501    0  0.00000000000E+00 -0.00000000000E+00 -0.87183790141E+02  0.87183790141E+02  0.00000000000E+00 0. -1.
          5    1    1    2  502    0 -0.17619645088E+03 -0.23938905673E+01  0.24144743818E+03  0.29894022449E+03  0.41800000000E+01 0.  1.
         -5    1    1    2    0  502  0.12207147886E+02  0.20206768612E+02  0.79035326590E+02  0.82591665479E+02  0.41800000000E+01 0.  1.
        -11    1    1    2    0    0  0.63954204082E+02  0.28826741794E+02  0.97890426145E+01  0.70830407436E+02  0.00000000000E+00 0. -1.
         11    1    1    2    0    0  0.10003509891E+03 -0.46639619838E+02  0.90377839887E+02  0.14265493015E+03  0.00000000000E+00 0.  1.
</event>
<event>
 6    1  0.6597032E-006  0.9216595E+02  0.7561462E-02  0.1297690E+00
          1   -1    0    0  501    0  0.00000000000E+00  0.00000000000E+00  0.57963764968E+02  0.57963764968E+02  0.00000000000E+00 0. -1.
         -1   -1    0    0    0  501 -0.00000000000E+00 -0.00000000000E+00 -0.23269554459E+03  0.23269554459E+03  0.00000000000E+00 0.  1.
          5    1    1    2  502    0 -0.38855107207E+02  0.31315872537E+02 -0.10079018484E+03  0.11254571066E+03  0.41800000000E+01 0. -1.
         -5    1    1    2    0  502  0.64287612153E+02 -0.15254150454E+02 -0.36475110367E+02  0.75587646205E+02  0.41800000000E+01 0. -1.
        -11    1    1    2    0    0  0.88387970397E+01  0.17797887573E+02  0.19553137839E+02  0.27878564069E+02  0.00000000000E+00 0. -1.
         11    1    1    2    0    0 -0.34271301987E+02 -0.33859609656E+02 -0.57019622258E+02  0.74647388624E+02  0.00000000000E+00 0.  1.
</event>
<event>
 6    1  0.6597032E-006  0.1189556E+03  0.7561462E-02  0.1244830E+00
          2   -1    0    0  501    0  0.00000000000E+00  0.00000000000E+00  0.10394183047E+03  0.10394183047E+03  0.00000000000E+00 0. -1.
         -2   -1    0    0    0  501 -0.00000000000E+00 -0.00000000000E+00 -0.20475369793E+03  0.20475369793E+03  0.00000000000E+00 0.  1.
          5    1    1    2  502    0 -0.19916582647E+02  0.81231335664E+02 -0.83218497342E+02  0.11805926841E+03  0.41800000000E+01 0.  1.
         -5    1    1    2    0  502 -0.24161996298E+02  0.39109072348E+01  0.38458262534E+02  0.45777807043E+02  0.41800000000E+01 0.  1.
        -11    1    1    2    0    0 -0.14148172332E+02 -0.66813834501E+02 -0.11430283591E+02  0.69245293299E+02  0.00000000000E+00 0. -1.
         11    1    1    2    0    0  0.58226751276E+02 -0.18328408397E+02 -0.44621349064E+02  0.75613159641E+02  0.00000000000E+00 0.  1.
</event>
<event>
 6    1  0.6597032E-006  0.1033648E+03  0.7561462E-02  0.1273375E+00
          1   -1    0    0  501    0  0.00000000000E+00  0.00000000000E+00  0.28028413753E+03  0.28028413753E+03  0.00000000000E+00 0. -1.
         -1   -1    0    0    0  501 -0.00000000000E+00 -0.00000000000E+00 -0.10196609389E+03  0.10196609389E+03  0.00000000000E+00 0.  1.
          5    1    1    2  502    0  0.22081857490E+02 -0.79545337894E+02  0.50212237909E+02  0.96715099372E+02  0.41800000000E+01 0. -1.
         -5    1    1    2    0  502 -0.12125778644E+02 -0.13181411258E+02 -0.56526758544E+02  0.59443510511E+02  0.41800000000E+01 0. -1.
        -11    1    1    2    0    0 -0.26969596707E+02  0.80023048052E+02  0.70514984606E+02  0.11001550082E+03  0.00000000000E+00 0.  1.
         11    1    1    2    0    0  0.17013517861E+02  0.12703701100E+02  0.11411757967E+03  0.11607612072E+03  0.00000000000E+00 0. -1.
</event>
<event>
 6    1  0.6597032E-006  0.8972130E+02  0.7561462E-02  0.1303528E+00
          1   -1    0    0  501    0  0.00000000000E+00  0.00000000000E+00  0.27550974837E+03  0.27550974837E+03  0.00000000000E+00 0. -1.
         -1   -1    0    0    0  501 -0.00000000000E+00 -0.00000000000E+00 -0.44561029879E+02  0.44561029879E+02  0.00000000000E+00 0.  1.
          5    1    1    2  502    0  0.51084932983E+02 -0.37766629165E+02  0.19959115484E+02  0.66722015462E+02  0.41800000000E+01 0. -1.
         -5    1    1    2    0  502 -0.32204788012E+02  0.34048341879E+02  0.87258967181E+02  0.99136460040E+02  0.41800000000E+01 0. -1.
        -11    1    1    2    0    0 -0.15081386574E+02 -0.30642866604E+02  0.11294890217E+03  0.11799952541E+03  0.00000000000E+00 0. -1.
         11    1    1    2    0    0 -0.37987583980E+01  0.34361153890E+02  0.10781733651E+02  0.36212777338E+02  0.00000000000E+00 0.  1.
</event>
<event>
 6    1  0.6597032E-006  0.1094871E+03  0.7561462E-02  0.1261523E+00
          2   -1    0    0  501    0  0.00000000000E+00  0.00000000000E+00  0.40101153071E+03  0.40101153071E+03  0.00000000000E+00 0. -1.
         -2   -1    0    0    0  501 -0.00000000000E+00 -0.00000000000E+00 -0.33444497059E+02  0.33444497059E+02  0.00000000000E+00 0.  1.
          5    1    1    2  502    0  0.12984937361E+02  0.66896390023E+02  0.10009335212E+03  0.12116058408E+03  0.41800000000E+01 0.  1.
         -5    1    1    2    0  502  0.10153678507E+02 -0.55843835182E+02  0.48631056811E+02  0.74860424803E+02  0.41800000000E+01 0.  1.
        -11    1    1    2    0    0  0.93184871572E+01  0.35687344496E+02  0.70773553717E+02  0.79807998758E+02  0.00000000000E+00 0. -1.
         11    1    1    2    0    0 -0.32457103025E+02 -0.46739899336E+02  0.14806907100E+03  0.15862702013E+03  0.00000000000E+00 0.  1.
</event>
<event>
 6    1  0.6597032E-006  0.8145498E+02  0.7561462E-02  0.1324972E+00
          3   -1    0    0  501    0  0.00000000000E+00  0.00000000000E+00  0.14716149799E+03  0.14716149799E+03  0.00000000000E+00 0. -1.
         -3   -1    0    0    0  501 -0.00000000000E+00 -0.00000000000E+00 -0.95299771431E+02  0.95299771431E+02  0.00000000000E+00 0.  1.
          5    1    1    2  502    0 -0.16734850522E+02  0.67841503214E+02  0.58880408022E+02  0.91470758328E+02  0.41800000000E+01 0. -1.
         -5    1    1    2    0  502 -0.13804282528E+02 -0.36136361342E+02 -0.23917038149E+02  0.45671566001E+02  0.41800000000E+01 0. -1.
        -11    1    1    2    0    0  0.36853618439E+02 -0.23744125329E+02  0.52441046610E+02  0.68352293665E+02  0.00000000000E+00 0. -1.
         11    1    1    2    0    0 -0.63144853893E+01 -0.79610165431E+01 -0.35542689928E+02  0.36966651424E+02  0.00000000000E+00 0.  1.
</event>
<event>
 6    1  0.6597032E-006  0.1549295E+03  0.7561462E-02  0.1194543E+00
         -1   -1    0    0    0  501 -0.00000000000E+00  0.00000000000E+00  0.33101573074E+02  0.33101573074E+02  0.00000000000E+00 0.  1.
          1   -1    0    0  501    0  0.00000000000E+00 -0.00000000000E+00 -0.96406968680E+03  0.96406968680E+03  0.00000000000E+00 0. -1.
          5    1    1    2  502    0  0.59057030355E+02 -0.59785675015E+02 -0.82699453157E+02  0.11797767468E+03  0.41800000000E+01 0. -1.
         -5    1    1    2    0  502 -0.80468406870E+01 -0.65641066470E+02 -0.29449829270E+03  0.30186125630E+03  0.41800000000E+01 0. -1.
        -11    1    1    2    0    0  0.90756952815E+01  0.88425019664E+02 -0.24573991551E+03  0.26132251802E+03  0.00000000000E+00 0.  1.
         11    1    1    2    0    0 -0.60085884950E+02  0.37001721822E+02 -0.30803045236E+03  0.31600981088E+03  0.00000000000E+00 0. -1.
</event>
<event>
 6    1  0.6597032E-006  0.6076752E+02  0.7561462E-02  0.1394639E+00
          2   -1    0    0  501    0  0.00000000000E+00  0.00000000000E+00  0.95966437792E+02  0.95966437792E+02  0.00000000000E+00 0. -1.
         -2   -1    0    0    0  501 -0.00000000000E+00 -0.00000000000E+00 -0.19162694153E+03  0.19162694153E+03  0.00000000000E+00 0.  1.
          5    1    1    2  502    0  0.33680680178E+02 -0.32764467959E+02  0.25038894383E+01  0.47240241746E+02  0.41800000000E+01 0.  1.
         -5    1    1    2    0  502 -0.39887689364E+01  0.25825720869E+02 -0.13476989740E+03  0.13734364121E+03  0.41800000000E+01 0.  1.
        -11    1    1    2    0    0 -0.11539564332E+02 -0.15316935354E+02 -0.27059714364E+02  0.33166220693E+02  0.00000000000E+00 0.  1.
         11    1    1    2    0    0 -0.18152346910E+02  0.22255682444E+02  0.63665218585E+02  0.69843275674E+02  0.00000000000E+00 0. -1.
</event>
<event>
 6    1  0.6597032E-006  0.1317055E+03  0.7561462E-02  0.1224947E+00
          1   -1    0    0  501    0  0.00000000000E+00  0.00000000000E+00  0.10691785633E+04  0.10691785633E+04  0.00000000000E+00 0. -1.
         -1   -1    0    0    0  501 -0.00000000000E+00 -0.00000000000E+00 -0.20370023747E+02  0.20370023747E+02  0.00000000000E+00 0.  1.
          5    1    1    2  502    0  0.62063064059E+02  0.17778445663E+02  0.22840853155E+03  0.23739382203E+03  0.41800000000E+01 0. -1.
         -5    1    1    2    0  502 -0.51655921884E+01 -0.76280276518E+02  0.12972056090E+03  0.15063286576E+03  0.41800000000E+01 0. -1.
        -11    1    1    2    0    0 -0.75133315887E+02  0.68219760540E+02  0.59962762901E+03  0.60815478652E+03  0.00000000000E+00 0. -1.
         11    1    1    2    0    0  0.18235844016E+02 -0.97179296855E+01  0.91051818082E+02  0.93367112735E+02  0.00000000000E+00 0.  1.
</event>
<event>
 6    1  0.6597032E-006  0.1706798E+03  0.7561462E-02  0.1177141E+00
          1   -1    0    0  501    0  0.00000000000E+00  0.00000000000E+00  0.47632365103E+03  0.47632365103E+03  0.00000000000E+00 0. -1.
         -1   -1    0    0    0  501 -0.00000000000E+00 -0.00000000000E+00 -0.64608997983E+02  0.64608997983E+02  0.00000000000E+00 0.  1.
          5    1    1    2  502    0 -0.54204809859E+01 -0.12601494433E+03  0.16382043384E+03  0.20679399109E+03  0.41800000000E+01 0.  1.
         -5    1    1    2    0  502  0.58901157942E+02  0.18707403916E+00  0.71328062221E+02  0.92598845909E+02  0.41800000000E+01 0.  1.
        -11    1    1    2    0    0  0.11730891125E+02  0.67833013866E+02  0.40433085048E+02  0.79835868776E+02  0.00000000000E+00 0.  1.
         11    1    1    2    0    0 -0.65211568081E+02  0.57994856422E+02  0.13613307195E+03  0.16170394324E+03  0.00000000000E+00 0. -1.
</event>
<event>
 6    1  0.6597032E-006  0.1050240E+03  0.7561462E-02  0.1270072E+00
         -1   -1    0    0    0  501 -0.00000000000E+00  0.00000000000E+00  0.47071373106E+02  0.47071373106E+02  0.00000000000E+00 0. -1.
          1   -1    0    0  501    0  0.00000000000E+00 -0.00000000000E+00 -0.43072260378E+03  0.43072260378E+03  0.00000000000E+00 0.  1.
          5    1    1    2  502    0 -0.14762029625E+02 -0.35928990233E+02  0.48364705683E+01  0.39365895206E+02  0.41800000000E+01 0.  1.
         -5    1    1    2    0  502  0.16338888228E+02  0.78742842657E+02 -0.76292216391E+02  0.11092956874E+03  0.41800000000E+01 0.  1.
        -11    1    1    2    0    0  0.21007757203E+02 -0.59024501025E+02 -0.26847251516E+03  0.27568588825E+03  0.00000000000E+00 0.  1.
         11    1    1    2    0    0 -0.22584615806E+02  0.16210648601E+02 -0.43722969698E+02  0.51812624701E+02  0.00000000000E+00 0. -1.
</event>
<event>
 6    1  0.6597032E-006  0.1273844E+03  0.7561462E-02  0.1231389E+00
          1   -1    0    0  501    0  0.00000000000E+00  0.00000000000E+00  0.64905148673E+03  0.64905148673E+03  0.00000000000E+00 0. -1.
         -1   -1    0    0    0  501 -0.00000000000E+00 -0.00000000000E+00 -0.33846415174E+02  0.33846415174E+02  0.00000000000E+00 0.  1.
          5    1    1    2  502    0  0.56019627060E+02 -0.10816913572E+03  0.23004912950E+03  0.26034368615E+03  0.41800000000E+01 0. -1.
         -5    1    1    2    0  502 -0.31953305991E+02  0.13306767996E+02  0.10067963088E+03  0.10654550348E+03  0.41800000000E+01 0. -1.
        -11    1    1    2    0    0 -0.15560749572E+02  0.50332694279E+02  0.36911202617E+02  0.64326929969E+02  0.00000000000E+00 0.  1.
         11    1    1    2    0    0 -0.85055714972E+01  0.44529673443E+02  0.24756510856E+03  0.25168178230E+03  0.00000000000E+00 0. -1.
</event>
<event>
 6    1  0.6597032E-006  0.1253644E+03  0.7561462E-02  0.1234501E+00
         -1   -1    0    0    0  501 -0.00000000000E+00  0.00000000000E+00  0.36890660389E+02  0.36890660389E+02  0.00000000000E+00 0.  1.
          1   -1    0    0  501    0  0.00000000000E+00 -0.00000000000E+00 -0.54779687183E+03  0.54779687183E+03  0.00000000000E+00 0. -1.
          5    1    1    2  502    0  0.69458619363E+02  0.49466563217E+02 -0.75024258037E+02  0.11365541067E+03  0.41800000000E+01 0. -1.
         -5    1    1    2    0  502 -0.32338233700E+02  0.31709625849E+02 -0.16659020099E+03  0.17268766371E+03  0.41800000000E+01 0. -1.
        -11    1    1    2    0    0  0.17379132931E+02 -0.58175560060E+02 -0.18968626618E+03  0.19916653742E+03  0.00000000000E+00 0.  1.
         11    1    1    2    0    0 -0.54499518594E+02 -0.23000629007E+02 -0.79605486234E+02  0.99177920427E+02  0.00000000000E+00 0. -1.
</event>
<event>
 6    1  0.6597032E-006  0.9643605E+02  0.7561462E-02  0.1287974E+00
          1   -1    0    0  501    0  0.00000000000E+00  0.00000000000E+00  0.19830823272E+03  0.19830823272E+03  0.00000000000E+00 0. -1.
         -1   -1    0    0    0  501 -0.00000000000E+00 -0.00000000000E+00 -0.10662186782E+03  0.10662186782E+03  0.00000000000E+00 0.  1.
          5    1    1    2  502    0  0.45958684552E+01 -0.42783418752E+02 -0.57257923083E+02  0.71745976073E+02  0.41800000000E+01 0. -1.
         -5    1    1    2    0  502  0.50867035487E+02  0.40359397672E+02  0.23555349532E+02  0.69200167422E+02  0.41800000000E+01 0. -1.
        -11    1    1    2    0    0 -0.28370340769E+02  0.33133566402E+02  0.14810422140E+02  0.46065801435E+02  0.00000000000E+00 0.  1.
         11    1    1    2    0    0 -0.27092563174E+02 -0.30709545322E+02  0.11057851631E+03  0.11791815561E+03  0.00000000000E+00 0. -1.
</event>
<event>
 6    1  0.6597032E-006  0.1041876E+03  0.7561462E-02  0.1271729E+00
          1   -1    0    0  501    0  0.00000000000E+00  0.00000000000E+00  0.16237033369E+03  0.16237033369E+03  0.00000000000E+00 0.  1.
         -1   -1    0    0    0  501 -0.00000000000E+00 -0.00000000000E+00 -0.73772482147E+02  0.73772482147E+02  0.00000000000E+00 0. -1.
          5    1    1    2  502    0  0.63737083965E+02  0.15827244518E+01  0.19737633453E+01  0.63924088033E+02  0.41800000000E+01 0.  1.
         -5    1    1    2    0  502 -0.54878298372E+02 -0.14988446660E+02  0.37305379769E+02  0.68157500873E+02  0.41800000000E+01 0.  1.
        -11    1    1    2    0    0 -0.39403065606E+02 -0.18273258383E+02  0.40069732450E+02  0.59093967625E+02  0.00000000000E+00 0. -1.
         11    1    1    2    0    0  0.30544280013E+02  0.31678980591E+02  0.92489759782E+01  0.44967259305E+02  0.00000000000E+00 0.  1.
</event>
<event>
 6    1  0.6597032E-006  0.7908713E+02  0.7561462E-02  0.1331662E+00
         -1   -1    0    0    0  501 -0.00000000000E+00  0.00000000000E+00  0.50684891820E+03  0.50684891820E+03  0.00000000000E+00 0.  1.
          1   -1    0    0  501    0  0.00000000000E+00 -0.00000000000E+00 -0.24252518955E+02  0.24252518955E+02  0.00000000000E+00 0. -1.
          5    1    1    2  502    0 -0.29743937666E+02 -0.59485097482E+02  0.93062374699E+02  0.11446072093E+03  0.41800000000E+01 0.  1.
         -5    1    1    2    0  502  0.29401602645E+02  0.12093647242E+02  0.28037698851E+03  0.28220460419E+03  0.41800000000E+01 0.  1.
        -11    1    1    2    0    0  0.15012426775E+02  0.71293407799E+01 -0.57980625925E+00  0.16629390636E+02  0.00000000000E+00 0. -1.
         11    1    1    2    0    0 -0.14670091754E+02  0.40262109460E+02  0.10973684230E+03  0.11780672140E+03  0.00000000000E+00 0.  1.
</event>
<event>
 6    1  0.6597032E-006  0.3009434E+03  0.7561462E-02  0.1084770E+00
          2   -1    0    0  501    0  0.00000000000E+00  0.00000000000E+00  0.75399318766E+03  0.75399318766E+03  0.00000000000E+00 0. -1.
         -2   -1    0    0    0  501 -0.00000000000E+00 -0.00000000000E+00 -0.12444252424E+03  0.12444252424E+03  0.00000000000E+00 0.  1.
          5    1    1    2  502    0  0.10919897751E+03 -0.14355027144E+03  0.17016655883E+03  0.24800247431E+03  0.41800000000E+01 0. -1.
         -5    1    1    2    0  502 -0.46392450680E+02 -0.12740521667E+03  0.87973476407E+02  0.16168226144E+03  0.41800000000E+01 0.  1.
        -11    1    1    2    0    0  0.14062180550E+02  0.45302814515E+02  0.56054118654E+02  0.73431288582E+02  0.00000000000E+00 0. -1.
         11    1    1    2    0    0 -0.76868707383E+02  0.22565267359E+03  0.31535650953E+03  0.39531968756E+03  0.00000000000E+00 0.  1.
</event>
<event>
 6    1  0.6597032E-006  0.1027616E+03  0.7561462E-02  0.1274594E+00
          1   -1    0    0  501    0  0.00000000000E+00  0.00000000000E+00  0.53254316460E+03  0.53254316460E+03  0.00000000000E+00 0. -1.
         -1   -1    0    0    0  501 -0.00000000000E+00 -0.00000000000E+00 -0.26704869722E+02  0.26704869722E+02  0.00000000000E+00 0.  1.
          5    1    1    2  502    0  0.42673024030E+01 -0.32145948381E+02  0.15552235241E+03  0.15892213932E+03  0.41800000000E+01 0. -1.
         -5    1    1    2    0  502 -0.20746837575E+02  0.70581540898E+02  0.66150355859E+02  0.99022861830E+02  0.41800000000E+01 0. -1.
        -11    1    1    2    0    0 -0.72244211972E+00 -0.66348771224E+02  0.16893797809E+03  0.18150129974E+03  0.00000000000E+00 0.  1.
         11    1    1    2    0    0  0.17201977291E+02  0.27913178707E+02  0.11522760853E+03  0.11980173344E+03  0.00000000000E+00 0. -1.
</event>
<event>
 6    1  0.6597032E-006  0.2153423E+03  0.7561462E-02  0.1137404E+00
         -2   -1    0    0    0  501 -0.00000000000E+00  0.00000000000E+00  0.18244458046E+03  0.18244458046E+03  0.00000000000E+00 0. -1.
          2   -1    0    0  501    0  0.00000000000E+00 -0.00000000000E+00 -0.28672367572E+03  0.28672367572E+03  0.00000000000E+00 0.  1.
          5    1    1    2  502    0 -0.19619700433E+03 -0.48295909704E+02 -0.68281500833E+02  0.21332040492E+03  0.41800000000E+01 0.  1.
         -5    1    1    2    0  502 -0.35420801309E+01  0.23521611604E+02  0.16493081688E+02  0.29245626813E+02  0.41800000000E+01 0.  1.
        -11    1    1    2    0    0  0.10872461208E+03  0.31436794310E+02 -0.70836751246E+02  0.13351838313E+03  0.00000000000E+00 0.  1.
         11    1    1    2    0    0  0.91014472383E+02 -0.66624962111E+01  0.18346075129E+02  0.93083841302E+02  0.00000000000E+00 0. -1.
</event>
<event>
 6    1  0.6597032E-006  0.6583849E+02  0.7561462E-02  0.1374845E+00
          3   -1    0    0  501    0  0.00000000000E+00  0.00000000000E+00  0.19487781337E+03  0.19487781337E+03  0.00000000000E+00 0. -1.
         -3   -1    0    0    0  501 -0.00000000000E+00 -0.00000000000E+00 -0.69951005939E+02  0.69951005939E+02  0.00000000000E+00 0.  1.
          5    1    1    2  502    0  0.40242103523E+02  0.20592631695E+02  0.94881159313E+02  0.10518265146E+03  0.41800000000E+01 0. -1.
         -5    1    1    2    0  502 -0.22845768630E+02  0.21065920289E+02 -0.29458549639E+02  0.43023025100E+02  0.41800000000E+01 0. -1.
        -11    1    1    2    0    0 -0.19458639929E+02 -0.77385198856E+01 -0.20744080213E+02  0.29476095769E+02  0.00000000000E+00 0.  1.
         11    1    1    2    0    0  0.20623050360E+01 -0.33920032099E+02  0.80248277966E+02  0.87147046973E+02  0.00000000000E+00 0. -1.
</event>
<event>
 6    1  0.6597032E-006  0.1256376E+03  0.7561462E-02  0.1234076E+00
         -1   -1    0    0    0  501 -0.00000000000E+00  0.00000000000E+00  0.60221172682E+02  0.60221172682E+02  0.00000000000E+00 0.  1.
          1   -1    0    0  501    0  0.00000000000E+00 -0.00000000000E+00 -0.37883555702E+03  0.37883555702E+03  0.00000000000E+00 0. -1.
          5    1    1    2  502    0  0.48794829733E+02 -0.58354022875E+02 -0.84843011579E+02  0.11402603391E+03  0.41800000000E+01 0.  1.
         -5    1    1    2    0  502 -0.66512508779E+02 -0.37625582500E+02 -0.31685307412E+02  0.82831330958E+02  0.41800000000E+01 0.  1.
        -11    1    1    2    0    0  0.23750494040E+01  0.50670227451E+02 -0.20999076029E+02  0.54900582909E+02  0.00000000000E+00 0.  1.
         11    1    1    2    0    0  0.15342629642E+02  0.45309377924E+02 -0.18108698932E+03  0.18729878193E+03  0.00000000000E+00 0. -1.
</event>
<event>
 6    1  0.6597032E-006  0.1258020E+03  0.7561462E-02  0.1233821E+00
         -3   -1    0    0    0  501 -0.00000000000E+00  0.00000000000E+00  0.27086747584E+02  0.27086747584E+02  0.00000000000E+00 0.  1.
          3   -1    0    0  501    0  0.00000000000E+00 -0.00000000000E+00 -0.62391162224E+03  0.62391162224E+03  0.00000000000E+00 0. -1.
          5    1    1    2  502    0  0.10894016913E+02  0.35055536529E+02 -0.12408129031E+03  0.12946508893E+03  0.41800000000E+01 0. -1.
         -5    1    1    2    0  502  0.10796980575E+02 -0.10377392989E+03 -0.21248253503E+03  0.23675283189E+03  0.41800000000E+01 0. -1.
        -11    1    1    2    0    0 -0.39887950304E+02  0.76845653080E+00 -0.56090720443E+02  0.68831737045E+02  0.00000000000E+00 0.  1.
         11    1    1    2    0    0  0.18196952816E+02  0.67949936828E+02 -0.20417032887E+03  0.21594871197E+03  0.00000000000E+00 0. -1.
</event>
<event>
 6    1  0.6597032E-006  0.1350139E+03  0.7561462E-02  0.1220200E+00
         -1   -1    0    0    0  501 -0.00000000000E+00  0.00000000000E+00  0.53514960643E+03  0.53514960643E+03  0.00000000000E+00 0.  1.
          1   -1    0    0  501    0  0.00000000000E+00 -0.00000000000E+00 -0.60170702643E+02  0.60170702643E+02  0.00000000000E+00 0. -1.
          5    1    1    2  502    0  0.14871012679E+02 -0.32329978789E+02  0.23425717412E+03  0.23698158277E+03  0.41800000000E+01 0. -1.
         -5    1    1    2    0  502 -0.98480140324E+02  0.49784384230E+00  0.18554761002E+03  0.21010467361E+03  0.41800000000E+01 0. -1.
        -11    1    1    2    0    0  0.85668205966E+02 -0.16506861534E+02  0.47215845702E+02  0.99201079008E+02  0.00000000000E+00 0.  1.
         11    1    1    2    0    0 -0.20590783205E+01  0.48338996480E+02  0.79582739420E+01  0.49032973685E+02  0.00000000000E+00 0. -1.
</event>
<event>
 6    1  0.6597032E-006  0.1234565E+03  0.7561462E-02  0.1237501E+00
         -1   -1    0    0    0  501 -0.00000000000E+00  0.00000000000E+00  0.15902220263E+02  0.15902220263E+02  0.00000000000E+00 0.  1.
          1   -1    0    0  501    0  0.00000000000E+00 -0.00000000000E+00 -0.11772439463E+04  0.11772439463E+04  0.00000000000E+00 0. -1.
          5    1    1    2  502    0 -0.64157479135E+01  0.36176086419E+02 -0.52754718509E+02  0.64423627458E+02  0.41800000000E+01 0.  1.
         -5    1    1    2    0  502 -0.76519341062E+02 -0.45112963847E+02 -0.53030914949E+03  0.53771335811E+03  0.41800000000E+01 0.  1.
        -11    1    1    2    0    0 -0.33221840386E+01 -0.27262395915E+02 -0.10206663135E+03  0.10569707835E+03  0.00000000000E+00 0.  1.
         11    1    1    2    0    0  0.86257273014E+02  0.36199273343E+02 -0.47621122669E+03  0.48531210264E+03  0.00000000000E+00 0. -1.
</event>
<event>
 6    1  0.6597032E-006  0.1185512E+03  0.7561462E-02  0.1245506E+00
          2   -1    0    0  501    0  0.00000000000E+00  0.00000000000E+00  0.38757247796E+03  0.38757247796E+03  0.00000000000E+00 0. -1.
         -2   -1    0    0    0  501 -0.00000000000E+00 -0.00000000000E+00 -0.72543637201E+02  0.72543637201E+02  0.00000000000E+00 0.  1.
          5    1    1    2  502    0  0.24486691486E+02 -0.47809159170E+01  0.31259722521E+02  0.40213155423E+02  0.41800000000E+01 0. -1.
         -5    1    1    2    0  502 -0.78718938287E+02  0.74693558941E+02 -0.46615665469E+00  0.10859783006E+03  0.41800000000E+01 0.  1.
        -11    1    1    2    0    0  0.59683394042E+02 -0.37821811571E+02  0.26327036183E+03  0.27258738117E+03  0.00000000000E+00 0. -1.
         11    1    1    2    0    0 -0.54511472413E+01 -0.32090831453E+02  0.20964913061E+02  0.38717748504E+02  0.00000000000E+00 0.  1.
</event>
<event>
 6    1  0.6597032E-006  0.9744916E+02  0.7561462E-02  0.1285753E+00
         -1   -1    0    0    0  501 -0.00000000000E+00  0.00000000000E+00  0.19769972561E+02  0.19769972561E+02  0.00000000000E+00 0.  1.
          1   -1    0    0  501    0  0.00000000000E+00 -0.00000000000E+00 -0.61670256847E+03  0.61670256847E+03  0.00000000000E+00 0. -1.
          5    1    1    2  502    0 -0.38566669929E+02  0.34624666098E+02 -0.66675790192E+02  0.84554059214E+02  0.41800000000E+01 0.  1.
         -5    1    1    2    0  502  0.40016466233E+02 -0.57740713862E+02 -0.17356240783E+03  0.18728771829E+03  0.41800000000E+01 0.  1.
        -11    1    1    2    0    0 -0.92895553266E+01 -0.23492063890E+02 -0.78931368885E+02  0.82875411902E+02  0.00000000000E+00 0.  1.
         11    1    1    2    0    0  0.78397590227E+01  0.46608111654E+02 -0.27776302900E+03  0.28175535163E+03  0.00000000000E+00 0. -1.
</event>
<event>
 6    1  0.6597032E-006  0.1847631E+03  0.7561462E-02  0.1163271E+00
         -1   -1    0    0    0  501 -0.00000000000E+00  0.00000000000E+00  0.56807198310E+03  0.56807198310E+03  0.00000000000E+00 0.  1.
          1   -1    0    0  501    0  0.00000000000E+00 -0.00000000000E+00 -0.77648471267E+02  0.77648471267E+02  0.00000000000E+00 0. -1.
          5    1    1    2  502    0  0.12166020009E+03  0.27029371616E+02  0.24184860433E+03  0.27210294197E+03  0.41800000000E+01 0.  1.
         -5    1    1    2    0  502  0.15921944903E+01  0.80443119038E+02  0.13005699417E+03  0.15298994939E+03  0.41800000000E+01 0.  1.
        -11    1    1    2    0    0 -0.74771248075E+02 -0.54997527067E+02  0.13769498455E+02  0.93835316432E+02  0.00000000000E+00 0.  1.
         11    1    1    2    0    0 -0.48481146501E+02 -0.52474963587E+02  0.10474841488E+03  0.12679224657E+03  0.00000000000E+00 0. -1.
</event>
<event>
 6    1  0.6597032E-006  0.1164320E+03  0.7561462E-02  0.1249102E+00
          1   -1    0    0  501    0  0.00000000000E+00  0.00000000000E+00  0.23474381729E+03  0.23474381729E+03  0.00000000000E+00 0. -1.
         -1   -1    0    0    0  501 -0.00000000000E+00 -0.00000000000E+00 -0.21575030412E+03  0.21575030412E+03  0.00000000000E+00 0.  1.
          5    1    1    2  502    0  0.58143970488E+01  0.34107058910E+02 -0.39577964998E+01  0.35074709317E+02  0.41800000000E+01 0. -1.
         -5    1    1    2    0  502  0.71628182069E+02 -0.53472696523E+02 -0.16762033780E+03  0.19001046230E+03  0.41800000000E+01 0.  1.
        -11    1    1    2    0    0 -0.37932101127E+02  0.46938123793E+02  0.15248513695E+03  0.16399313630E+03  0.00000000000E+00 0. -1.
         11    1    1    2    0    0 -0.39510477991E+02 -0.27572486180E+02  0.38086510502E+02  0.61415813497E+02  0.00000000000E+00 0.  1.
</event>
<event>
 6    1  0.6597032E-006  0.1400339E+03  0.7561462E-02  0.1213283E+00
         -2   -1    0    0    0  501 -0.00000000000E+00  0.00000000000E+00  0.43191937222E+02  0.43191937222E+02  0.00000000000E+00 0.  1.
          2   -1    0    0  501    0  0.00000000000E+00 -0.00000000000E+00 -0.69841363534E+03  0.69841363534E+03  0.00000000000E+00 0. -1.
          5    1    1    2  502    0  0.24819380921E+02  0.53995554326E+01  0.87451839058E+01  0.27186531771E+02  0.41800000000E+01 0. -1.
         -5    1    1    2    0  502  0.95221848441E+02  0.51775534567E+02 -0.27523706957E+03  0.29583918480E+03  0.41800000000E+01 0. -1.
        -11    1    1    2    0    0 -0.24857610297E+02 -0.42939583235E+02 -0.71178621115E+02  0.86764651223E+02  0.00000000000E+00 0.  1.
         11    1    1    2    0    0 -0.95183619065E+02 -0.14235506765E+02 -0.31755119135E+03  0.33181520477E+03  0.00000000000E+00 0. -1.
</event>
<event>
 6    1  0.6597032E-006  0.1952294E+03  0.7561462E-02  0.1153828E+00
         -1   -1    0    0    0  501 -0.00000000000E+00  0.00000000000E+00  0.33868155146E+02  0.33868155146E+02  0.00000000000E+00 0.  1.
          1   -1    0    0  501    0  0.00000000000E+00 -0.00000000000E+00 -0.12375830032E+04  0.12375830032E+04  0.00000000000E+00 0. -1.
          5    1    1    2  502    0 -0.19901887456E+02  0.34905630674E+02 -0.18276216166E+03  0.18717363145E+03  0.41800000000E+01 0. -1.
         -5    1    1    2    0  502 -0.14668680031E+03 -0.83261656480E+02 -0.43611429193E+03  0.46761380310E+03  0.41800000000E+01 0. -1.
        -11    1    1    2    0    0  0.12314936669E+03  0.10284770041E+02 -0.27504669396E+03  0.30153312731E+03  0.00000000000E+00 0.  1.
         11    1    1    2    0    0  0.43439321080E+02  0.38071255766E+02 -0.30979170049E+03  0.31513059645E+03  0.00000000000E+00 0. -1.
</event>
<event>
 6    1  0.6597032E-006  0.2001470E+03  0.7561462E-02  0.1149615E+00
         -1   -1    0    0    0  501 -0.00000000000E+00  0.00000000000E+00  0.10188576615E+03  0.10188576615E+03  0.00000000000E+00 0.  1.
          1   -1    0    0  501    0  0.00000000000E+00 -0.00000000000E+00 -0.49637153636E+03  0.49637153636E+03  0.00000000000E+00 0. -1.
          5    1    1    2  502    0 -0.36978445697E+02  0.12768199325E+03 -0.12728446554E+03  0.18408939245E+03  0.41800000000E+01 0. -1.
         -5    1    1    2    0  502 -0.54368485606E+02  0.32498014639E+02  0.15282025463E+02  0.65292157912E+02  0.41800000000E+01 0. -1.
        -11    1    1    2    0    0  0.24750008804E+02 -0.12705040126E+03 -0.16317273645E+03  0.20827796167E+03  0.00000000000E+00 0.  1.
         11    1    1    2    0    0  0.66596922499E+02 -0.33129606625E+02 -0.11931059369E+03  0.14059779048E+03  0.00000000000E+00 0. -1.
</event>
<event>
 6    1  0.6597032E-006  0.1451481E+03  0.7561462E-02  0.1206565E+00
          1   -1    0    0  501    0  0.00000000000E+00  0.00000000000E+00  0.25269457322E+03  0.25269457322E+03  0.00000000000E+00 0. -1.
         -1   -1    0    0    0  501 -0.00000000000E+00 -0.00000000000E+00 -0.11700382969E+03  0.11700382969E+03  0.00000000000E+00 0.  1.
          5    1    1    2  502    0 -0.55817515945E+02 -0.50294578403E+02  0.37572560660E+02  0.84108914019E+02  0.41800000000E+01 0. -1.
         -5    1    1    2    0  502 -0.58386956721E+02  0.48046094101E+02 -0.39248471399E+02  0.85295830969E+02  0.41800000000E+01 0. -1.
        -11    1    1    2    0    0  0.18503985564E+02  0.33812977256E+02  0.67302505436E+02  0.77558636854E+02  0.00000000000E+00 0. -1.
         11    1    1    2    0    0  0.95700487102E+02 -0.31564492953E+02  0.70064148830E+02  0.12273502107E+03  0.00000000000E+00 0.  1.
</event>
<event>
 6    1  0.6597032E-006  0.1613937E+03  0.7561462E-02  0.1187132E+00
         -2   -1    0    0    0  501 -0.00000000000E+00  0.00000000000E+00  0.60010679651E+02  0.60010679651E+02  0.00000000000E+00 0.  1.
          2   -1    0    0  501    0  0.00000000000E+00 -0.00000000000E+00 -0.61553644718E+03  0.61553644718E+03  0.00000000000E+00 0. -1.
          5    1    1    2  502    0  0.33798298604E+02  0.11034192195E+03 -0.15068606831E+03  0.18984580140E+03  0.41800000000E+01 0.  1.
         -5    1    1    2    0  502  0.45122130469E+02 -0.13406976486E+01  0.36436072669E+01  0.45481341253E+02  0.41800000000E+01 0.  1.
        -11    1    1    2    0    0 -0.96429620638E+02 -0.69800664311E+02 -0.32914117773E+03  0.35000674186E+03  0.00000000000E+00 0. -1.
         11    1    1    2    0    0  0.17509191565E+02 -0.39200559985E+02 -0.79342128766E+02  0.90213242318E+02  0.00000000000E+00 0.  1.
</event>
<event>
 6    1  0.6597032E-006  0.1097943E+03  0.7561462E-02  0.1260951E+00
         -1   -1    0    0    0  501 -0.00000000000E+00  0.00000000000E+00  0.63399560475E+03  0.63399560475E+03  0.00000000000E+00 0.  1.
          1   -1    0    0  501    0  0.00000000000E+00 -0.00000000000E+00 -0.75412890203E+02  0.75412890203E+02  0.00000000000E+00 0. -1.
          5    1    1    2  502    0  0.35948197269E+02 -0.68630016668E+01  0.67612066928E+02  0.76995049666E+02  0.41800000000E+01 0. -1.
         -5    1    1    2    0  502 -0.17025334686E+02  0.77540564961E+02  0.50803113113E+03  0.51421348080E+03  0.41800000000E+01 0.  1.
        -11    1    1    2    0    0  0.16736680230E+02 -0.65032802650E+02  0.16235756935E+02  0.69086769275E+02  0.00000000000E+00 0. -1.
         11    1    1    2    0    0 -0.35659542813E+02 -0.56447606447E+01 -0.33296240446E+02  0.49113195215E+02  0.00000000000E+00 0.  1.
</event>
<event>
 6    1  0.6597032E-006  0.1147673E+03  0.7561462E-02  0.1251988E+00
          4   -1    0    0  501    0  0.00000000000E+00  0.00000000000E+00  0.16068572035E+03  0.16068572035E+03  0.00000000000E+00 0. -1.
         -4   -1    0    0    0  501 -0.00000000000E+00 -0.00000000000E+00 -0.12145774933E+03  0.12145774933E+03  0.00000000000E+00 0.  1.
          5    1    1    2  502    0 -0.13217467433E+02  0.39021307306E+02 -0.31226796617E+02  0.51864719185E+02  0.41800000000E+01 0.  1.
         -5    1    1    2    0  502  0.84499324280E+02  0.15830557937E+02  0.59863464703E+02  0.10484202008E+03  0.41800000000E+01 0.  1.
        -11    1    1    2    0    0 -0.51855627933E+02 -0.95040036979E+01 -0.30784341084E+02  0.61049225143E+02  0.00000000000E+00 0.  1.
         11    1    1    2    0    0 -0.19426228915E+02 -0.45347861545E+02  0.41375644023E+02  0.64387505270E+02  0.00000000000E+00 0. -1.
</event>
<event>
 6    1  0.6597032E-006  0.1427660E+03  0.7561462E-02  0.1209655E+00
         -2   -1    0    0    0  501 -0.00000000000E+00  0.00000000000E+00  0.10684384739E+03  0.10684384739E+03  0.00000000000E+00 0.  1.
          2   -1    0    0  501    0  0.00000000000E+00 -0.00000000000E+00 -0.24851895789E+03  0.24851895789E+03  0.00000000000E+00 0. -1.
          5    1    1    2  502    0 -0.12618681437E+02  0.60316917283E+02  0.20149329167E+02  0.64967911292E+02  0.41800000000E+01 0. -1.
         -5    1    1    2    0  502 -0.79111697821E+02  0.19276792115E+02 -0.93838245477E+02  0.12431148041E+03  0.41800000000E+01 0. -1.
        -11    1    1    2    0    0  0.10153575389E+03 -0.83716030660E+02 -0.42213834522E+02  0.13820235502E+03  0.00000000000E+00 0.  1.
         11    1    1    2    0    0 -0.98053746316E+01  0.41223212614E+01 -0.25772359664E+02  0.27881058568E+02  0.00000000000E+00 0. -1.
</event>
<event>
 6    1  0.6597032E-006  0.1283821E+03  0.7561462E-02  0.1229876E+00
          1   -1    0    0  501    0  0.00000000000E+00  0.00000000000E+00  0.71190587442E+03  0.71190587442E+03  0.00000000000E+00 0. -1.
         -1   -1    0    0    0  501 -0.00000000000E+00 -0.00000000000E+00 -0.26975674270E+02  0.26975674270E+02  0.00000000000E+00 0.  1.
          5    1    1    2  502    0  0.44634231124E+02 -0.89334764223E+02  0.16064349496E+03  0.18920021025E+03  0.41800000000E+01 0. -1.
         -5    1    1    2    0  502 -0.44451034613E+02  0.10243971364E+02  0.11242536934E+03  0.12139921539E+03  0.41800000000E+01 0. -1.
        -11    1    1    2    0    0 -0.13626721637E+02  0.91620185221E+02  0.38319303526E+03  0.39422943593E+03  0.00000000000E+00 0. -1.
         11    1    1    2    0    0  0.13443525126E+02 -0.12529392361E+02  0.28668300593E+02  0.34052687113E+02  0.00000000000E+00 0.  1.
</event>
<event>
 6    1  0.6597032E-006  0.7068582E+02  0.7561462E-02  0.1357776E+00
          1   -1    0    0  501    0  0.00000000000E+00  0.00000000000E+00  0.46923768666E+02  0.46923768666E+02  0.00000000000E+00 0. -1.
         -1   -1    0    0    0  501 -0.00000000000E+00 -0.00000000000E+00 -0.32325591473E+03  0.32325591473E+03  0.00000000000E+00 0.  1.
          5    1    1    2  502    0  0.22209487463E+02  0.56966747573E+02 -0.29359344672E+02  0.67955243963E+02  0.41800000000E+01 0.  1.
         -5    1    1    2    0  502  0.10536397318E+02 -0.22452330566E+02 -0.17196688654E+03  0.17379644784E+03  0.41800000000E+01 0.  1.
        -11    1    1    2    0    0 -0.20364964350E+02 -0.37067145228E+02 -0.95444921324E+02  0.10439558436E+03  0.00000000000E+00 0.  1.
         11    1    1    2    0    0 -0.12380920431E+02  0.25527282206E+01  0.20439006465E+02  0.24032407232E+02  0.00000000000E+00 0. -1.
</event>
<event>
 6    1  0.6597032E-006  0.8026534E+02  0.7561462E-02  0.1328300E+00
         -1   -1    0    0    0  501 -0.00000000000E+00  0.00000000000E+00  0.66609841465E+03  0.66609841465E+03  0.00000000000E+00 0.  1.
          1   -1    0    0  501    0  0.00000000000E+00 -0.00000000000E+00 -0.34843476588E+02  0.34843476588E+02  0.00000000000E+00 0. -1.
          5    1    1    2  502    0 -0.20903557523E+02 -0.83977408943E+01  0.45874370518E+03  0.45931551271E+03  0.41800000000E+01 0.  1.
         -5    1    1    2    0  502  0.41289539403E+02  0.41544490799E+02  0.11416793715E+03  0.12838442683E+03  0.41800000000E+01 0.  1.
        -11    1    1    2    0    0 -0.11133167761E+02  0.21105266486E+02 -0.96736096180E+01  0.25747978966E+02  0.00000000000E+00 0. -1.
         11    1    1    2    0    0 -0.92528141192E+01 -0.54252016390E+02  0.68016905347E+02  0.87493972733E+02  0.00000000000E+00 0.  1.
</event>
<event>
 6    1  0.6597032E-006  0.6727237E+02  0.7561462E-02  0.1369622E+00
          2   -1    0    0  501    0  0.00000000000E+00  0.00000000000E+00  0.21051519147E+02  0.21051519147E+02  0.00000000000E+00 0. -1.
         -2   -1    0    0    0  501 -0.00000000000E+00 -0.00000000000E+00 -0.71414261727E+03  0.71414261727E+03  0.00000000000E+00 0.  1.
          5    1    1    2  502    0 -0.31566101657E+01  0.79109688243E+01  0.18272633945E+01  0.96622413026E+01  0.41800000000E+01 0. -1.
         -5    1    1    2    0  502 -0.16115486153E+01 -0.34889427719E+02 -0.55927782242E+03  0.56038292649E+03  0.41800000000E+01 0.  1.
        -11    1    1    2    0    0  0.21384940071E+02 -0.26400738112E+02 -0.28690909667E+02  0.44468898482E+02  0.00000000000E+00 0.  1.
         11    1    1    2    0    0 -0.16616781290E+02  0.53379197006E+02 -0.10694962944E+03  0.12068007014E+03  0.00000000000E+00 0. -1.
</event>
<event>
 6    1  0.6597032E-006  0.1055256E+03  0.7561462E-02  0.1269087E+00
         -1   -1    0    0    0  501 -0.00000000000E+00  0.00000000000E+00  0.28597774014E+02  0.28597774014E+02  0.00000000000E+00 0.  1.
          1   -1    0    0  501    0  0.00000000000E+00 -0.00000000000E+00 -0.43956615384E+03  0.43956615384E+03  0.00000000000E+00 0. -1.
          5    1    1    2  502    0 -0.75717782048E+01  0.61152154247E+02 -0.15545528229E+03  0.16727443016E+03  0.41800000000E+01 0.  1.
         -5    1    1    2    0  502  0.11044724377E+02 -0.51292754652E+02 -0.45076622640E+02  0.69298679099E+02  0.41800000000E+01 0.  1.
        -11    1    1    2    0    0 -0.32291392210E+02 -0.42330305109E+02 -0.11244357214E+03  0.12441119587E+03  0.00000000000E+00 0.  1.
         11    1    1    2    0    0  0.28818446039E+02  0.32470905514E+02 -0.97992902755E+02  0.10717962272E+03  0.00000000000E+00 0. -1.
</event>
<event>
 6    1  0.6597032E-006  0.1205273E+03  0.7561462E-02  0.1242230E+00
         -2   -1    0    0    0  501 -0.00000000000E+00  0.00000000000E+00  0.79526384320E+02  0.79526384320E+02  0.00000000000E+00 0.  1.
          2   -1    0    0  501    0  0.00000000000E+00 -0.00000000000E+00 -0.18756496132E+03  0.18756496132E+03  0.00000000000E+00 0. -1.
          5    1    1    2  502    0  0.64735864426E+02  0.50851809007E+02 -0.37571862457E+02  0.90585627286E+02  0.41800000000E+01 0.  1.
         -5    1    1    2    0  502 -0.11704674438E+02 -0.50813844267E+02 -0.40030594329E+02  0.65870836151E+02  0.41800000000E+01 0.  1.
        -11    1    1    2    0    0 -0.74388034209E+02  0.20001375433E+02 -0.20537236611E+02  0.79720842571E+02  0.00000000000E+00 0.  1.
         11    1    1    2    0    0  0.21356844221E+02 -0.20039340173E+02 -0.98988835980E+01  0.30914039628E+02  0.00000000000E+00 0. -1.
</event>
<event>
 6    1  0.6597032E-006  0.2531364E+03  0.7561462E-02  0.1111339E+00
          2   -1    0    0  501    0  0.00000000000E+00  0.00000000000E+00  0.52832579890E+03  0.52832579890E+03  0.00000000000E+00 0. -1.
         -2   -1    0    0    0  501 -0.00000000000E+00 -0.00000000000E+00 -0.15827366070E+03  0.15827366070E+03  0.00000000000E+00 0.  1.
          5    1    1    2  502    0 -0.32528867730E+02 -0.50553385387E+02 -0.16593282994E+02  0.62502651547E+02  0.41800000000E+01 0. -1.
         -5    1    1    2    0  502 -0.20076704319E+03  0.80990158134E+01  0.54775273032E+02  0.20830459098E+03  0.41800000000E+01 0. -1.
        -11    1    1    2    0    0  0.14384504072E+03 -0.46973399958E+01  0.15117259409E+03  0.20872616977E+03  0.00000000000E+00 0.  1.
         11    1    1    2    0    0  0.89450870200E+02  0.47151709569E+02  0.18069755408E+03  0.20706604730E+03  0.00000000000E+00 0. -1.
</event>
<event>
 6    1  0.6597032E-006  0.1098577E+03  0.7561462E-02  0.1260834E+00
         -2   -1    0    0    0  501 -0.00000000000E+00  0.00000000000E+00  0.42391550352E+02  0.42391550352E+02  0.00000000000E+00 0.  1.
          2   -1    0    0  501    0  0.00000000000E+00 -0.00000000000E+00 -0.38062693692E+03  0.38062693692E+03  0.00000000000E+00 0. -1.
          5    1    1    2  502    0 -0.59274321852E+02  0.53534734245E+02 -0.15238593029E+03  0.17209984646E+03  0.41800000000E+01 0.  1.
         -5    1    1    2    0  502  0.36800216944E+02  0.21260025585E+01 -0.45568951183E+01  0.37376644407E+02  0.41800000000E+01 0.  1.
        -11    1    1    2    0    0  0.54162160044E+02 -0.30383614597E+02 -0.62853977333E+02  0.88359074708E+02  0.00000000000E+00 0.  1.
         11    1    1    2    0    0 -0.31688055136E+02 -0.25277122206E+02 -0.11843858383E+03  0.12518292170E+03  0.00000000000E+00 0. -1.
</event>
<event>
 6    1  0.6597032E-006  0.1015900E+03  0.7561462E-02  0.1276988E+00
         -1   -1    0    0    0  501 -0.00000000000E+00  0.00000000000E+00  0.81173432876E+02  0.81173432876E+02  0.00000000000E+00 0.  1.
          1   -1    0    0  501    0  0.00000000000E+00 -0.00000000000E+00 -0.18405402939E+03  0.18405402939E+03  0.00000000000E+00 0. -1.
          5    1    1    2  502    0 -0.82864932868E+02 -0.31248159880E+02 -0.35207671922E+02  0.95394429382E+02  0.41800000000E+01 0. -1.
         -5    1    1    2    0  502  0.32606305451E+02  0.27952471237E+02  0.29802351308E+01  0.43253508585E+02  0.41800000000E+01 0. -1.
        -11    1    1    2    0    0  0.16608163491E+02 -0.23205658509E+02 -0.78058349216E+02  0.83111007476E+02  0.00000000000E+00 0. -1.
         11    1    1    2    0    0  0.33650463926E+02  0.26501347151E+02  0.74051894945E+01  0.43468516822E+02  0.00000000000E+00 0.  1.
</event>
<event>
 6    1  0.6597032E-006  0.2055726E+03  0.7561462E-02  0.1145121E+00
         -3   -1    0    0    0  501 -0.00000000000E+00  0.00000000000E+00  0.83761190550E+02  0.83761190550E+02  0.00000000000E+00 0.  1.
          3   -1    0    0  501    0  0.00000000000E+00 -0.00000000000E+00 -0.64876977899E+03  0.64876977899E+03  0.00000000000E+00 0. -1.
          5    1    1    2  502    0  0.85950036186E+01 -0.46099727119E+02 -0.11683775866E+03  0.12596663517E+03  0.41800000000E+01 0.  1.
         -5    1    1    2    0  502  0.14003128611E+03 -0.86288520725E+02 -0.92162460008E+02  0.18858913366E+03  0.41800000000E+01 0.  1.
        -11    1    1    2    0    0 -0.34010841388E+02  0.22742887075E+02 -0.16348896890E+03  0.16853076632E+03  0.00000000000E+00 0.  1.
         11    1    1    2    0    0 -0.11461544834E+03  0.10964536077E+03 -0.19251940087E+03  0.24944443439E+03  0.00000000000E+00 0. -1.
</event>
<event>
 6    1  0.6597032E-006  0.9911079E+02  0.7561462E-02  0.1282177E+00
         -3   -1    0    0    0  501 -0.00000000000E+00  0.00000000000E+00  0.16448689224E+03  0.16448689224E+03  0.00000000000E+00 0.  1.
          3   -1    0    0  501    0  0.00000000000E+00 -0.00000000000E+00 -0.85899687971E+02  0.85899687971E+02  0.00000000000E+00 0. -1.
          5    1    1    2  502    0  0.41867364654E+02  0.28817641727E+02  0.52208013445E+02  0.72982749782E+02  0.41800000000E+01 0. -1.
         -5    1    1    2    0  502 -0.59705001217E+02 -0.20122321993E+02  0.52636001426E+02  0.82204720417E+02  0.41800000000E+01 0.  1.
        -11    1    1    2    0    0 -0.15398813933E+02 -0.37221250886E+02  0.61053212865E+01  0.40740887767E+02  0.00000000000E+00 0.  1.
         11    1    1    2    0    0  0.33236450496E+02  0.28525931152E+02 -0.32362131890E+02  0.54458222245E+02  0.00000000000E+00 0. -1.
</event>
<event>
 6    1  0.6597032E-006  0.1267889E+03  0.7561462E-02  0.1232300E+00
         -2   -1    0    0    0  501 -0.00000000000E+00  0.00000000000E+00  0.11759419137E+03  0.11759419137E+03  0.00000000000E+00 0.  1.
          2   -1    0    0  501    0  0.00000000000E+00 -0.00000000000E+00 -0.17130973782E+03  0.17130973782E+03  0.00000000000E+00 0. -1.
          5    1    1    2  502    0  0.35444601884E+02 -0.58207953629E+02 -0.17496582564E+02  0.70484668332E+02  0.41800000000E+01 0. -1.
         -5    1    1    2    0  502  0.55182799880E+02  0.66212716520E+02 -0.15554887692E+02  0.87685187818E+02  0.41800000000E+01 0. -1.
        -11    1    1    2    0    0 -0.72105364263E+02  0.10449455198E+02  0.25905211133E+02  0.77326933427E+02  0.00000000000E+00 0.  1.
         11    1    1    2    0    0 -0.18522037501E+02 -0.18454218089E+02 -0.46569287328E+02  0.53407139604E+02  0.00000000000E+00 0. -1.
</event>
<event>
 6    1  0.6597032E-006  0.1041988E+03  0.7561462E-02  0.1271706E+00
         -2   -1    0    0    0  501 -0.00000000000E+00  0.00000000000E+00  0.16830057773E+03  0.16830057773E+03  0.00000000000E+00 0. -1.
          2   -1    0    0  501    0  0.00000000000E+00 -0.00000000000E+00 -0.13622656224E+03  0.13622656224E+03  0.00000000000E+00 0.  1.
          5    1    1    2  502    0  0.63210430814E+02 -0.52618800222E+02  0.72858726892E+02  0.10995527811E+03  0.41800000000E+01 0. -1.
         -5    1    1    2    0  502 -0.23255707659E+02  0.43262458706E+02  0.41637027703E+02  0.64525830083E+02  0.41800000000E+01 0. -1.
        -11    1    1    2    0    0 -0.55333832835E+02 -0.51980042405E+01 -0.91460934360E+02  0.10702315085E+03  0.00000000000E+00 0.  1.
         11    1    1    2    0    0  0.15379109680E+02  0.14554345757E+02  0.90391952634E+01  0.23022880922E+02  0.00000000000E+00 0. -1.
</event>
<event>
 6    1  0.6597032E-006  0.1283069E+03  0.7561462E-02  0.1229990E+00
          2   -1    0    0  501    0  0.00000000000E+00  0.00000000000E+00  0.58153867397E+03  0.58153867397E+03  0.00000000000E+00 0. -1.
         -2   -1    0    0    0  501 -0.00000000000E+00 -0.00000000000E+00 -0.29967015211E+02  0.29967015211E+02  0.00000000000E+00 0.  1.
          5    1    1    2  502    0 -0.13210211288E+02  0.44914222198E+02  0.16308237705E+03  0.16972074458E+03  0.41800000000E+01 0.  1.
         -5    1    1    2    0  502  0.86094071781E+02 -0.30613096625E+02  0.15352096091E+03  0.17870508868E+03  0.41800000000E+01 0.  1.
        -11    1    1    2    0    0  0.10792270222E+02  0.23849542660E+02  0.58376992926E+02  0.63977707718E+02  0.00000000000E+00 0. -1.
         11    1    1    2    0    0 -0.83676130715E+02 -0.38150668234E+02  0.17659132787E+03  0.19910214820E+03  0.00000000000E+00 0.  1.
</event>
<event>
 6    1  0.6597032E-006  0.1307642E+03  0.7561462E-02  0.1226326E+00
         -2   -1    0    0    0  501 -0.00000000000E+00  0.00000000000E+00  0.53353253635E+02  0.53353253635E+02  0.00000000000E+00 0.  1.
          2   -1    0    0  501    0  0.00000000000E+00 -0.00000000000E+00 -0.34067008375E+03  0.34067008375E+03  0.00000000000E+00 0. -1.
          5    1    1    2  502    0  0.11015847758E+02 -0.87239454413E+02 -0.85909139990E+02  0.12300375621E+03  0.41800000000E+01 0.  1.
         -5    1    1    2    0  502 -0.58610868680E+02  0.18734016532E+02 -0.77618779486E+02  0.99138008008E+02  0.41800000000E+01 0.  1.
        -11    1    1    2    0    0 -0.19096057447E+02  0.50163194844E+01 -0.50415084326E+02  0.54143361540E+02  0.00000000000E+00 0. -1.
         11    1    1    2    0    0  0.66691078369E+02  0.63489118397E+02 -0.73373826307E+02  0.11773821162E+03  0.00000000000E+00 0.  1.
</event>
<event>
 6    1  0.6597032E-006  0.1287483E+03  0.7561462E-02  0.1229325E+00
         -2   -1    0    0    0  501 -0.00000000000E+00  0.00000000000E+00  0.13582545607E+03  0.13582545607E+03  0.00000000000E+00 0. -1.
          2   -1    0    0  501    0  0.00000000000E+00 -0.00000000000E+00 -0.18612246205E+03  0.18612246205E+03  0.00000000000E+00 0.  1.
          5    1    1    2  502    0  0.35215727064E+02 -0.88245381899E+02  0.38507782037E+02  0.10260466138E+03  0.41800000000E+01 0.  1.
         -5    1    1    2    0  502  0.48937266034E+02  0.17589171308E+02 -0.36902157339E+02  0.63902085807E+02  0.41800000000E+01 0.  1.
        -11    1    1    2    0    0 -0.55308207245E+02  0.40967644099E+02  0.20694514790E+02  0.71872168425E+02  0.00000000000E+00 0. -1.
         11    1    1    2    0    0 -0.28844785853E+02  0.29688566493E+02 -0.72597145465E+02  0.83569002513E+02  0.00000000000E+00 0.  1.
</event>
<event>
 6    1  0.6597032E-006  0.4428982E+03  0.7561462E-02  0.1029861E+00
         -1   -1    0    0    0  501 -0.00000000000E+00  0.00000000000E+00  0.11068713723E+03  0.11068713723E+03  0.00000000000E+00 0.  1.
          1   -1    0    0  501    0  0.00000000000E+00 -0.00000000000E+00 -0.18900704765E+04  0.18900704765E+04  0.00000000000E+00 0. -1.
          5    1    1    2  502    0  0.28314945316E+03 -0.71548770532E+02 -0.43709844064E+03  0.52570463056E+03  0.41800000000E+01 0. -1.
         -5    1    1    2    0  502  0.10492793483E+03 -0.11665159344E+03 -0.22732432204E+03  0.27624497380E+03  0.41800000000E+01 0. -1.
        -11    1    1    2    0    0 -0.94070682190E+02  0.14232860681E+02 -0.18391065582E+03  0.20706278491E+03  0.00000000000E+00 0.  1.
         11    1    1    2    0    0 -0.29400670580E+03  0.17396750329E+03 -0.93104992082E+03  0.99174522449E+03  0.00000000000E+00 0. -1.
</event>
<event>
 6    1  0.6597032E-006  0.1561542E+03  0.7561462E-02  0.1193108E+00
         -2   -1    0    0    0  501 -0.00000000000E+00  0.00000000000E+00  0.68791337032E+03  0.68791337032E+03  0.00000000000E+00 0.  1.
          2   -1    0    0  501    0  0.00000000000E+00 -0.00000000000E+00 -0.48298426725E+02  0.48298426725E+02  0.00000000000E+00 0. -1.
          5    1    1    2  502    0 -0.19205245207E+02  0.12449319245E+02  0.20694912779E+03  0.20825282924E+03  0.41800000000E+01 0.  1.
         -5    1    1    2    0  502 -0.97573015888E+02  0.68494662414E+02  0.11782944138E+03  0.16767009830E+03  0.41800000000E+01 0.  1.
        -11    1    1    2    0    0  0.51723487685E+02  0.14982769340E+02  0.14495656431E+03  0.15463572708E+03  0.00000000000E+00 0.  1.
         11    1    1    2    0    0  0.65054773410E+02 -0.95926750999E+02  0.16987981012E+03  0.20565314242E+03  0.00000000000E+00 0. -1.
</event>
<event>
 6    1  0.6597032E-006  0.1062990E+03  0.7561462E-02  0.1267581E+00
          1   -1    0    0  501    0  0.00000000000E+00  0.00000000000E+00  0.95235615107E+02  0.95235615107E+02  0.00000000000E+00 0. -1.
         -1   -1    0    0    0  501 -0.00000000000E+00 -0.00000000000E+00 -0.14721811542E+03  0.14721811542E+03  0.00000000000E+00 0.  1.
          5    1    1    2  502    0 -0.51537243356E+02  0.47978424408E+02 -0.33054876502E+01  0.70614554520E+02  0.41800000000E+01 0. -1.
         -5    1    1    2    0  502  0.74556304742E+01 -0.53847432601E+02 -0.44873585560E+02  0.70613338007E+02  0.41800000000E+01 0. -1.
        -11    1    1    2    0    0  0.15976173244E+02  0.40148794265E+02 -0.27242968597E+02  0.51081729908E+02  0.00000000000E+00 0.  1.
         11    1    1    2    0    0  0.28105439638E+02 -0.34279786072E+02  0.23439541497E+02  0.50144108088E+02  0.00000000000E+00 0. -1.
</event>
<event>
 6    1  0.6597032E-006  0.1458643E+03  0.7561462E-02  0.1205649E+00
         -1   -1    0    0    0  501 -0.00000000000E+00  0.00000000000E+00  0.28540765004E+02  0.28540765004E+02  0.00000000000E+00 0.  1.
          1   -1    0    0  501    0  0.00000000000E+00 -0.00000000000E+00 -0.10826128906E+04  0.10826128906E+04  0.00000000000E+00 0. -1.
          5    1    1    2  502    0  0.72037564786E+02  0.18384379045E+02 -0.93752061045E+02  0.11972601005E+03  0.41800000000E+01 0. -1.
         -5    1    1    2    0  502  0.22638515264E+02  0.76732532573E+02 -0.37903225776E+03  0.38740587083E+03  0.41800000000E+01 0. -1.
        -11    1    1    2    0    0 -0.78939813449E+02 -0.61614406247E+02 -0.53721192060E+03  0.54646543974E+03  0.00000000000E+00 0. -1.
         11    1    1    2    0    0 -0.15736266601E+02 -0.33502505371E+02 -0.44075886208E+02  0.57556334992E+02  0.00000000000E+00 0.  1.
</event>
<event>
 6    1  0.6597032E-006  0.1076682E+03  0.7561462E-02  0.1264950E+00
          2   -1    0    0  501    0  0.00000000000E+00  0.00000000000E+00  0.20820167244E+03  0.20820167244E+03  0.00000000000E+00 0.  1.
         -2   -1    0    0    0  501 -0.00000000000E+00 -0.00000000000E+00 -0.78872500661E+02  0.78872500661E+02  0.00000000000E+00 0. -1.
          5    1    1    2  502    0  0.50811234600E+02 -0.59673648381E+02  0.42863050221E+02  0.89428403468E+02  0.41800000000E+01 0. -1.
         -5    1    1    2    0  502 -0.56693656097E+02 -0.41423537364E+01 -0.17093426776E+01  0.57023889630E+02  0.41800000000E+01 0. -1.
        -11    1    1    2    0    0 -0.20454218152E+02  0.36923492532E+02  0.93519021236E+02  0.10260373616E+03  0.00000000000E+00 0.  1.
         11    1    1    2    0    0  0.26336639649E+02  0.26892509585E+02 -0.53435570010E+01  0.38018143842E+02  0.00000000000E+00 0. -1.
</event>
<event>
 6    1  0.6597032E-006  0.1099758E+03  0.7561462E-02  0.1260615E+00
          2   -1    0    0  501    0  0.00000000000E+00  0.00000000000E+00  0.23090215954E+03  0.23090215954E+03  0.00000000000E+00 0. -1.
         -2   -1    0    0    0  501 -0.00000000000E+00 -0.00000000000E+00 -0.76531701023E+02  0.76531701023E+02  0.00000000000E+00 0.  1.
          5    1    1    2  502    0  0.59676266266E+02 -0.57642066381E+02  0.98532149946E+02  0.12887948458E+03  0.41800000000E+01 0.  1.
         -5    1    1    2    0  502 -0.21223641616E+02 -0.67671784454E+01 -0.25605800491E+02  0.34196009801E+02  0.41800000000E+01 0.  1.
        -11    1    1    2    0    0 -0.66364408826E+02  0.46879563711E+02  0.37661481332E+02  0.89556213792E+02  0.00000000000E+00 0.  1.
         11    1    1    2    0    0  0.27911784176E+02  0.17529681115E+02  0.43782627731E+02  0.54802152393E+02  0.00000000000E+00 0. -1.
</event>
<event>
 6    1  0.6597032E-006  0.9498438E+02  0.7561462E-02  0.1291211E+00
         -2   -1    0    0    0  501 -0.00000000000E+00  0.00000000000E+00  0.38528938943E+02  0.38528938943E+02  0.00000000000E+00 0.  1.
          2   -1    0    0  501    0  0.00000000000E+00 -0.00000000000E+00 -0.33230430888E+03  0.33230430888E+03  0.00000000000E+00 0. -1.
          5    1    1    2  502    0  0.52546174907E+01  0.57324496811E+02 -0.70729665400E+02  0.91290015375E+02  0.41800000000E+01 0.  1.
         -5    1    1    2    0  502 -0.25364236253E+02 -0.61381995638E+02 -0.44814717464E+02  0.80230450395E+02  0.41800000000E+01 0.  1.
        -11    1    1    2    0    0  0.28494049951E+02  0.28235577243E+02 -0.33285696788E+02  0.52125774004E+02  0.00000000000E+00 0.  1.
         11    1    1    2    0    0 -0.83844311887E+01 -0.24178078416E+02 -0.14494529029E+03  0.14718700805E+03  0.00000000000E+00 0. -1.
</event>
<event>
 6    1  0.6597032E-006  0.1051243E+03  0.7561462E-02  0.1269875E+00
          2   -1    0    0  501    0  0.00000000000E+00  0.00000000000E+00  0.20930431255E+02  0.20930431255E+02  0.00000000000E+00 0. -1.
         -2   -1    0    0    0  501 -0.00000000000E+00 -0.00000000000E+00 -0.69222923871E+03  0.69222923871E+03  0.00000000000E+00 0.  1.
          5    1    1    2  502    0 -0.77096033190E+01 -0.43921096657E+02 -0.88641073893E+02  0.99313710513E+02  0.41800000000E+01 0.  1.
         -5    1    1    2    0  502  0.38022401951E+02  0.60617693267E+02 -0.39425450638E+03  0.40071722697E+03  0.41800000000E+01 0.  1.
        -11    1    1    2    0    0 -0.60038496964E+02 -0.21295965445E+02 -0.15800728133E+03  0.17036560749E+03  0.00000000000E+00 0.  1.
         11    1    1    2    0    0  0.29725698332E+02  0.45993688351E+01 -0.30395945845E+02  0.42763124989E+02  0.00000000000E+00 0. -1.
</event>
<event>
 6    1  0.6597032E-006  0.1053449E+03  0.7561462E-02  0.1269442E+00
         -3   -1    0    0    0  501 -0.00000000000E+00  0.00000000000E+00  0.51458920993E+02  0.51458920993E+02  0.00000000000E+00 0.  1.
          3   -1    0    0  501    0  0.00000000000E+00 -0.00000000000E+00 -0.34303425799E+03  0.34303425799E+03  0.00000000000E+00 0. -1.
          5    1    1    2  502    0  0.34518745246E+02  0.99733867513E+01 -0.41754487789E+02  0.55244202114E+02  0.41800000000E+01 0. -1.
         -5    1    1    2    0  502 -0.10304114289E+03 -0.20252312989E+02 -0.70541017927E+02  0.12657464564E+03  0.41800000000E+01 0. -1.
        -11    1    1    2    0    0  0.11655166690E+02  0.13304935899E+00  0.96366546397E+01  0.15123680946E+02  0.00000000000E+00 0.  1.
         11    1    1    2    0    0  0.56867230953E+02  0.10145876879E+02 -0.18891648592E+03  0.19755065028E+03  0.00000000000E+00 0. -1.
</event>
<event>
 6    1  0.6597032E-006  0.1162237E+03  0.7561462E-02  0.1249460E+00
          2   -1    0    0  501    0  0.00000000000E+00  0.00000000000E+00  0.13007863921E+03  0.13007863921E+03  0.00000000000E+00 0.  1.
         -2   -1    0    0    0  501 -0.00000000000E+00 -0.00000000000E+00 -0.21643590083E+03  0.21643590083E+03  0.00000000000E+00 0. -1.
          5    1    1    2  502    0 -0.68094309102E+01 -0.51675879469E+01  0.20031808751E+02  0.22176971758E+02  0.41800000000E+01 0. -1.
         -5    1    1    2    0  502  0.73494845557E+01  0.96675483682E+02 -0.15746750505E+03  0.18496932615E+03  0.41800000000E+01 0. -1.
        -11    1    1    2    0    0  0.26982418000E+02  0.32833186401E+01  0.25801262324E+02  0.37477142366E+02  0.00000000000E+00 0.  1.
         11    1    1    2    0    0 -0.27522471646E+02 -0.94791214375E+02  0.25277172361E+02  0.10189109976E+03  0.00000000000E+00 0. -1.
</event>
<event>
 6    1  0.6597032E-006  0.9280325E+02  0.7561462E-02  0.1296202E+00
          2   -1    0    0  501    0  0.00000000000E+00  0.00000000000E+00  0.30349414056E+02  0.30349414056E+02  0.00000000000E+00 0. -1.
         -2   -1    0    0    0  501 -0.00000000000E+00 -0.00000000000E+00 -0.97337136100E+03  0.97337136100E+03  0.00000000000E+00 0.  1.
          5    1    1    2  502    0 -0.69039671082E+02 -0.26147597865E+02 -0.77979026041E+03  0.78328825836E+03  0.41800000000E+01 0.  1.
         -5    1    1    2    0  502 -0.52965198423E+01 -0.21535768460E+02 -0.17455467717E+02  0.28530828919E+02  0.41800000000E+01 0.  1.
        -11    1    1    2    0    0  0.50613400489E+02  0.38757981102E+02 -0.15282967191E+03  0.16559228854E+03  0.00000000000E+00 0.  1.
         11    1    1    2    0    0  0.23722790435E+02  0.89253852226E+01  0.70534530951E+01  0.26309399232E+02  0.00000000000E+00 0. -1.
</event>
<event>
 6    1  0.6597032E-006  0.1308357E+03  0.7561462E-02  0.1226221E+00
         -2   -1    0    0    0  501 -0.00000000000E+00  0.00000000000E+00  0.38379217712E+02  0.38379217712E+02  0.00000000000E+00 0.  1.
          2   -1    0    0  501    0  0.00000000000E+00 -0.00000000000E+00 -0.45261651740E+03  0.45261651740E+03  0.00000000000E+00 0. -1.
          5    1    1    2  502    0 -0.84304729393E+01  0.53123877645E+02 -0.76819264518E+02  0.93871673316E+02  0.41800000000E+01 0. -1.
         -5    1    1    2    0  502  0.77887381643E+02 -0.49407963833E+02 -0.13718823783E+03  0.16536528085E+03  0.41800000000E+01 0.  1.
        -11    1    1    2    0    0 -0.82209859538E+02  0.23356606464E+02 -0.16248314215E+03  0.18358857141E+03  0.00000000000E+00 0. -1.
         11    1    1    2    0    0  0.12752950835E+02 -0.27072520276E+02 -0.37746655186E+02  0.48170209537E+02  0.00000000000E+00 0.  1.
</event>
<event>
 6    1  0.6597032E-006  0.1113826E+03  0.7561462E-02  0.1258031E+00
          2   -1    0    0  501    0  0.00000000000E+00  0.00000000000E+00  0.74212246986E+03  0.74212246986E+03  0.00000000000E+00 0. -1.
         -2   -1    0    0    0  501 -0.00000000000E+00 -0.00000000000E+00 -0.24348950847E+02  0.24348950847E+02  0.00000000000E+00 0.  1.
          5    1    1    2  502    0  0.43148680200E+02 -0.23060539973E+02  0.21909501967E+03  0.22452994711E+03  0.41800000000E+01 0. -1.
         -5    1    1    2    0  502  0.98192080901E+01  0.59932272557E+02  0.48523905570E+02  0.77848159600E+02  0.41800000000E+01 0. -1.
        -11    1    1    2    0    0 -0.21825597937E+02  0.31115636449E+02  0.16102013426E+03  0.16544492496E+03  0.00000000000E+00 0. -1.
         11    1    1    2    0    0 -0.31142290353E+02 -0.67987369032E+02  0.28913445952E+03  0.29864838904E+03  0.00000000000E+00 0.  1.
</event>
<event>
 6    1  0.6597032E-006  0.9199335E+02  0.7561462E-02  0.1298095E+00
          1   -1    0    0  501    0  0.00000000000E+00  0.00000000000E+00  0.25660890419E+03  0.25660890419E+03  0.00000000000E+00 0. -1.
         -1   -1    0    0    0  501 -0.00000000000E+00 -0.00000000000E+00 -0.54970291651E+02  0.54970291651E+02  0.00000000000E+00 0.  1.
          5    1    1    2  502    0 -0.78170925511E+02  0.42961545692E+02  0.54554453288E+02  0.10464248075E+03  0.41800000000E+01 0. -1.
         -5    1    1    2    0  502  0.34106232719E+02 -0.22559476236E+02  0.54528653756E+02  0.68286247215E+02  0.41800000000E+01 0. -1.
        -11    1    1    2    0    0  0.11596522991E+02 -0.17491759412E+02 -0.15302969857E+02  0.25973484157E+02  0.00000000000E+00 0.  1.
         11    1    1    2    0    0  0.32468169802E+02 -0.29103100443E+01  0.10785847535E+03  0.11267698372E+03  0.00000000000E+00 0. -1.
</event>
<event>
 6    1  0.6597032E-006  0.1110902E+03  0.7561462E-02  0.1258564E+00
          2   -1    0    0  501    0  0.00000000000E+00  0.00000000000E+00  0.87640305693E+03  0.87640305693E+03  0.00000000000E+00 0. -1.
         -2   -1    0    0    0  501 -0.00000000000E+00 -0.00000000000E+00 -0.22672147294E+02  0.22672147294E+02  0.00000000000E+00 0.  1.
          5    1    1    2  502    0 -0.52934445680E+01  0.78680341667E+01  0.25445037798E+03  0.25466133152E+03  0.41800000000E+01 0. -1.
         -5    1    1    2    0  502  0.37735422792E+01 -0.95536041485E+02  0.15278902025E+03  0.18028680471E+03  0.41800000000E+01 0. -1.
        -11    1    1    2    0    0  0.36692397287E+02  0.63832937266E+02  0.36361279342E+03  0.37099223636E+03  0.00000000000E+00 0. -1.
         11    1    1    2    0    0 -0.35172494998E+02  0.23835070053E+02  0.82878717982E+02  0.93134831633E+02  0.00000000000E+00 0.  1.
</event>
<event>
 6    1  0.6597032E-006  0.9612580E+02  0.7561462E-02  0.1288660E+00
          1   -1    0    0  501    0  0.00000000000E+00  0.00000000000E+00  0.38475451945E+03  0.38475451945E+03  0.00000000000E+00 0. -1.
         -1   -1    0    0    0  501 -0.00000000000E+00 -0.00000000000E+00 -0.46123653494E+02  0.46123653494E+02  0.00000000000E+00 0.  1.
          5    1    1    2  502    0  0.13012902947E+02 -0.13814434502E+02 -0.16840595078E+02  0.25714826196E+02  0.41800000000E+01 0. -1.
         -5    1    1    2    0  502 -0.85324759451E+01 -0.62987804407E+02  0.19516348480E+03  0.20529618810E+03  0.41800000000E+01 0. -1.
        -11    1    1    2    0    0 -0.40846794837E+02  0.45393582275E+02  0.47872559110E+02  0.77593942263E+02  0.00000000000E+00 0.  1.
         11    1    1    2    0    0  0.36366367835E+02  0.31408656634E+02  0.11243541713E+03  0.12227321639E+03  0.00000000000E+00 0. -1.
</event>
<event>
 6    1  0.6597032E-006  0.1103349E+03  0.7561462E-02  0.1259951E+00
          1   -1    0    0  501    0  0.00000000000E+00  0.00000000000E+00  0.74585845514E+02  0.74585845514E+02  0.00000000000E+00 0. -1.
         -1   -1    0    0    0  501 -0.00000000000E+00 -0.00000000000E+00 -0.17115258247E+03  0.17115258247E+03  0.00000000000E+00 0.  1.
          5    1    1    2  502    0  0.22726311955E+02  0.43746392779E+02 -0.16940139481E+01  0.49503274837E+02  0.41800000000E+01 0.  1.
         -5    1    1    2    0  502 -0.53052256905E+02 -0.51997660509E+02 -0.48950721277E+02  0.89061462904E+02  0.41800000000E+01 0.  1.
        -11    1    1    2    0    0  0.60773469467E+02 -0.95560505312E+01 -0.30738172981E+02  0.68771854498E+02  0.00000000000E+00 0.  1.
         11    1    1    2    0    0 -0.30447524517E+02  0.17807318261E+02 -0.15183828745E+02  0.38401835741E+02  0.00000000000E+00 0. -1.
</event>
<event>
 6    1  0.6597032E-006  0.8222428E+02  0.7561462E-02  0.1322855E+00
         -3   -1    0    0    0  501 -0.00000000000E+00  0.00000000000E+00  0.15160217015E+03  0.15160217015E+03  0.00000000000E+00 0.  1.
          3   -1    0    0  501    0  0.00000000000E+00 -0.00000000000E+00 -0.85728418019E+02  0.85728418019E+02  0.00000000000E+00 0. -1.
          5    1    1    2  502    0 -0.27943397573E+02 -0.37254252510E+02 -0.88154385216E+01  0.47580428270E+02  0.41800000000E+01 0.  1.
         -5    1    1    2    0  502  0.67523731373E+02  0.32791973373E+02  0.48886793056E+02  0.89678084009E+02  0.41800000000E+01 0.  1.
        -11    1    1    2    0    0 -0.10231432585E+02 -0.53743315914E+01  0.55790213227E+02  0.56974674591E+02  0.00000000000E+00 0.  1.
         11    1    1    2    0    0 -0.29348901215E+02  0.98366107285E+01 -0.29987815626E+02  0.43097401305E+02  0.00000000000E+00 0. -1.
</event>
<event>
 6    1  0.6597032E-006  0.7230856E+02  0.7561462E-02  0.1352414E+00
         -1   -1    0    0    0  501 -0.00000000000E+00  0.00000000000E+00  0.31448564437E+02  0.31448564437E+02  0.00000000000E+00 0.  1.
          1   -1    0    0  501    0  0.00000000000E+00 -0.00000000000E+00 -0.39558969887E+03  0.39558969887E+03  0.00000000000E+00 0. -1.
          5    1    1    2  502    0  0.10303289182E+02  0.16252256225E+02  0.10437710034E+02  0.22287031905E+02  0.41800000000E+01 0. -1.
         -5    1    1    2    0  502 -0.56827441517E-02 -0.42891454786E+02 -0.21439585078E+03  0.21868408757E+03  0.41800000000E+01 0. -1.
        -11    1    1    2    0    0  0.32041314714E+02  0.44588492110E+00 -0.11306955854E+03  0.11752263497E+03  0.00000000000E+00 0. -1.
         11    1    1    2    0    0 -0.42338921151E+02  0.26193313639E+02 -0.47113435152E+02  0.68544508864E+02  0.00000000000E+00 0.  1.
</event>
<event>
 6    1  0.6597032E-006  0.1014435E+03  0.7561462E-02  0.1277289E+00
          2   -1    0    0  501    0  0.00000000000E+00  0.00000000000E+00  0.20521202687E+03  0.20521202687E+03  0.00000000000E+00 0. -1.
         -2   -1    0    0    0  501 -0.00000000000E+00 -0.00000000000E+00 -0.69400586912E+02  0.69400586912E+02  0.00000000000E+00 0.  1.
          5    1    1    2  502    0 -0.60348439502E+01  0.27331572926E+02  0.66614778614E+02  0.72377036067E+02  0.41800000000E+01 0. -1.
         -5    1    1    2    0  502  0.35266593144E+02 -0.62105747490E+02 -0.10019546599E+02  0.72240709972E+02  0.41800000000E+01 0. -1.
        -11    1    1    2    0    0 -0.62936191058E+02  0.18386928872E+02  0.51804328461E+02  0.83562741371E+02  0.00000000000E+00 0. -1.
         11    1    1    2    0    0  0.33704441864E+02  0.16387245691E+02  0.27411879487E+02  0.46432126375E+02  0.00000000000E+00 0.  1.
</event>
<event>
 6    1  0.6597032E-006  0.9779311E+02  0.7561462E-02  0.1285006E+00
          1   -1    0    0  501    0  0.00000000000E+00  0.00000000000E+00  0.22616699824E+02  0.22616699824E+02  0.00000000000E+00 0. -1.
         -1   -1    0    0    0  501 -0.00000000000E+00 -0.00000000000E+00 -0.59502335415E+03  0.59502335415E+03  0.00000000000E+00 0.  1.
          5    1    1    2  502    0 -0.61287403828E+02 -0.61175485008E+01 -0.30252240268E+03  0.30875693804E+03  0.41800000000E+01 0. -1.
         -5    1    1    2    0  502  0.47021246993E+02 -0.96334142545E+00 -0.41959555801E+02  0.63166465933E+02  0.41800000000E+01 0.  1.
        -11    1    1    2    0    0 -0.30495887498E+02 -0.17914092089E+02 -0.55327667941E+02  0.65666313201E+02  0.00000000000E+00 0. -1.
         11    1    1    2    0    0  0.44762044333E+02  0.24994982016E+02 -0.17259702791E+03  0.18005033680E+03  0.00000000000E+00 0.  1.
</event>
<event>
 6    1  0.6597032E-006  0.9598656E+02  0.7561462E-02  0.1288969E+00
         -2   -1    0    0    0  501 -0.00000000000E+00  0.00000000000E+00  0.48064383613E+02  0.48064383613E+02  0.00000000000E+00 0.  1.
          2   -1    0    0  501    0  0.00000000000E+00 -0.00000000000E+00 -0.33072265125E+03  0.33072265125E+03  0.00000000000E+00 0. -1.
          5    1    1    2  502    0  0.19949109938E+02 -0.47932579549E+02  0.49061176791E+01  0.52316742637E+02  0.41800000000E+01 0. -1.
         -5    1    1    2    0  502 -0.47846749374E+02  0.24697048218E+01 -0.10834771408E+03  0.11854159782E+03  0.41800000000E+01 0. -1.
        -11    1    1    2    0    0  0.42601985306E+02  0.58346552347E+02 -0.17289521175E+03  0.18738197237E+03  0.00000000000E+00 0. -1.
         11    1    1    2    0    0 -0.14704345870E+02 -0.12883677621E+02 -0.63214594912E+01  0.20546722040E+02  0.00000000000E+00 0.  1.
</event>
<event>
 6    1  0.6597032E-006  0.1902820E+03  0.7561462E-02  0.1158207E+00
         -3   -1    0    0    0  501 -0.00000000000E+00  0.00000000000E+00  0.68749896068E+02  0.68749896068E+02  0.00000000000E+00 0.  1.
          3   -1    0    0  501    0  0.00000000000E+00 -0.00000000000E+00 -0.60043499918E+03  0.60043499918E+03  0.00000000000E+00 0. -1.
          5    1    1    2  502    0  0.85883867423E+02  0.34575947239E+02 -0.96009829316E+02  0.13344247651E+03  0.41800000000E+01 0. -1.
         -5    1    1    2    0  502 -0.93131004677E+01  0.11712652832E+03 -0.15290906484E+03  0.19288341553E+03  0.41800000000E+01 0. -1.
        -11    1    1    2    0    0 -0.29218902236E+02 -0.46042867467E+02 -0.17988778451E+03  0.18797155346E+03  0.00000000000E+00 0. -1.
         11    1    1    2    0    0 -0.47351864719E+02 -0.10565960809E+03 -0.10287842444E+03  0.15488744975E+03  0.00000000000E+00 0.  1.
</event>
<event>
 6    1  0.6597032E-006  0.1915228E+03  0.7561462E-02  0.1157095E+00
          1   -1    0    0  501    0  0.00000000000E+00  0.00000000000E+00  0.78520565911E+02  0.78520565911E+02  0.00000000000E+00 0. -1.
         -1   -1    0    0    0  501 -0.00000000000E+00 -0.00000000000E+00 -0.62902669892E+03  0.62902669892E+03  0.00000000000E+00 0.  1.
          5    1    1    2  502    0  0.15317560082E+03  0.95904899433E+02 -0.35738629740E+03  0.40050337376E+03  0.41800000000E+01 0.  1.
         -5    1    1    2    0  502  0.10345170261E+01 -0.27336211394E+02 -0.81386466615E+02  0.85962596674E+02  0.41800000000E+01 0.  1.
        -11    1    1    2    0    0 -0.12489891664E+03 -0.73437510104E+02 -0.12223913263E+03  0.18956585351E+03  0.00000000000E+00 0.  1.
         11    1    1    2    0    0 -0.29311201206E+02  0.48688220647E+01  0.10505763647E+02  0.31515440886E+02  0.00000000000E+00 0. -1.
</event>
<event>
 6    1  0.6597032E-006  0.1321815E+03  0.7561462E-02  0.1224254E+00
         -1   -1    0    0    0  501 -0.00000000000E+00  0.00000000000E+00  0.75892135973E+02  0.75892135973E+02  0.00000000000E+00 0.  1.
          1   -1    0    0  501    0  0.00000000000E+00 -0.00000000000E+00 -0.28903186739E+03  0.28903186739E+03  0.00000000000E+00 0. -1.
          5    1    1    2  502    0 -0.28737282159E+02  0.59900472212E+01  0.45536279306E+01  0.29998666286E+02  0.41800000000E+01 0. -1.
         -5    1    1    2    0  502  0.11900071142E+03 -0.10901741763E+01 -0.65669130714E+02  0.13598626742E+03  0.41800000000E+01 0. -1.
        -11    1    1    2    0    0 -0.21880730220E+02 -0.34713196983E+02 -0.16474323404E+02  0.44217369113E+02  0.00000000000E+00 0.  1.
         11    1    1    2    0    0 -0.68382699038E+02  0.29813323938E+02 -0.13554990523E+03  0.15472170055E+03  0.00000000000E+00 0. -1.
</event>
<event>
 6    1  0.6597032E-006  0.1107496E+03  0.7561462E-02  0.1259188E+00
          1   -1    0    0  501    0  0.00000000000E+00  0.00000000000E+00  0.29446630923E+02  0.29446630923E+02  0.00000000000E+00 0. -1.
         -1   -1    0    0    0  501 -0.00000000000E+00 -0.00000000000E+00 -0.62448953258E+03  0.62448953258E+03  0.00000000000E+00 0.  1.
          5    1    1    2  502    0  0.18633340369E+01 -0.50661564085E+02 -0.74387574443E+02  0.90116867016E+02  0.41800000000E+01 0.  1.
         -5    1    1    2    0  502 -0.61176783207E+02  0.26361405846E+02 -0.36986341283E+03  0.37583764989E+03  0.41800000000E+01 0.  1.
        -11    1    1    2    0    0 -0.11348834842E+02  0.30897715581E+02 -0.85223241506E+02  0.91358993937E+02  0.00000000000E+00 0.  1.
         11    1    1    2    0    0  0.70662284012E+02 -0.65975573419E+01 -0.65568672877E+02  0.96622652662E+02  0.00000000000E+00 0. -1.
</event>
<event>
 6    1  0.6597032E-006  0.1171725E+03  0.7561462E-02  0.1247836E+00
          1   -1    0    0  501    0  0.00000000000E+00  0.00000000000E+00  0.18173572432E+03  0.18173572432E+03  0.00000000000E+00 0. -1.
         -1   -1    0    0    0  501 -0.00000000000E+00 -0.00000000000E+00 -0.11470623873E+03  0.11470623873E+03  0.00000000000E+00 0.  1.
          5    1    1    2  502    0  0.25273656720E+01  0.84553086624E+01 -0.37887961084E+02  0.39126075920E+02  0.41800000000E+01 0. -1.
         -5    1    1    2    0  502  0.72453714243E+02 -0.58676153643E+02  0.74465622149E+02  0.11939444290E+03  0.41800000000E+01 0. -1.
        -11    1    1    2    0    0 -0.30497177718E+02  0.74553017394E+02  0.37985196742E+01  0.80639066233E+02  0.00000000000E+00 0. -1.
         11    1    1    2    0    0 -0.44483902197E+02 -0.24332172413E+02  0.26653304849E+02  0.57282377992E+02  0.00000000000E+00 0.  1.
</event>
<event>
 6    1  0.6597032E-006  0.1034058E+03  0.7561462E-02  0.1273293E+00
         -1   -1    0    0    0  501 -0.00000000000E+00  0.00000000000E+00  0.61122902950E+03  0.61122902950E+03  0.00000000000E+00 0.  1.
          1   -1    0    0  501    0  0.00000000000E+00 -0.00000000000E+00 -0.25749996338E+02  0.25749996338E+02  0.00000000000E+00 0. -1.
          5    1    1    2  502    0 -0.53237130264E+02  0.49591502798E+01  0.95058892808E+02  0.10914417397E+03  0.41800000000E+01 0. -1.
         -5    1    1    2    0  502  0.41775599815E+02 -0.53988763520E+02  0.32147245457E+03  0.32866700287E+03  0.41800000000E+01 0. -1.
        -11    1    1    2    0    0 -0.21848115595E+02 -0.39555012229E+01  0.11319070188E+03  0.11534782676E+03  0.00000000000E+00 0.  1.
         11    1    1    2    0    0  0.33309646044E+02  0.52985114464E+02  0.55756983896E+02  0.83820022235E+02  0.00000000000E+00 0. -1.
</event>
<event>
 6    1  0.6597032E-006  0.1194272E+03  0.7561462E-02  0.1244045E+00
         -1   -1    0    0    0  501 -0.00000000000E+00  0.00000000000E+00  0.91773184677E+02  0.91773184677E+02  0.00000000000E+00 0.  1.
          1   -1    0    0  501    0  0.00000000000E+00 -0.00000000000E+00 -0.17156139056E+03  0.17156139056E+03  0.00000000000E+00 0. -1.
          5    1    1    2  502    0  0.79518789873E+02  0.47145532449E+02 -0.14423953895E+01  0.92549943691E+02  0.41800000000E+01 0. -1.
         -5    1    1    2    0  502 -0.32953495740E+02 -0.26474449904E+02 -0.32118807234E+01  0.42598332796E+02  0.41800000000E+01 0. -1.
        -11    1    1    2    0    0 -0.61183201531E+02 -0.44658448950E+02 -0.55923028179E+02  0.94154905836E+02  0.00000000000E+00 0.  1.
         11    1    1    2    0    0  0.14617907398E+02  0.23987366405E+02 -0.19210901590E+02  0.34031392914E+02  0.00000000000E+00 0. -1.
</event>
<event>
 6    1  0.6597032E-006  0.1619262E+03  0.7561462E-02  0.1186539E+00
          1   -1    0    0  501    0  0.00000000000E+00  0.00000000000E+00  0.61329519928E+03  0.61329519928E+03  0.00000000000E+00 0. -1.
         -1   -1    0    0    0  501 -0.00000000000E+00 -0.00000000000E+00 -0.56010919559E+02  0.56010919559E+02  0.00000000000E+00 0.  1.
          5    1    1    2  502    0 -0.68693436236E+02 -0.98898700780E+02  0.24927767644E+03  0.27686923551E+03  0.41800000000E+01 0. -1.
         -5    1    1    2    0  502 -0.29631823854E+02 -0.11781554313E+02 -0.74824013556E+01  0.33019823395E+02  0.41800000000E+01 0. -1.
        -11    1    1    2    0    0 -0.41915729955E+01 -0.11190058218E+02  0.13647340390E+02  0.18139365668E+02  0.00000000000E+00 0.  1.
         11    1    1    2    0    0  0.10251683309E+03  0.12187031331E+03  0.30184166424E+03  0.34127769427E+03  0.00000000000E+00 0. -1.
</event>
<event>
 6    1  0.6597032E-006  0.1132386E+03  0.7561462E-02  0.1254687E+00
          2   -1    0    0  501    0  0.00000000000E+00  0.00000000000E+00  0.16680329255E+03  0.16680329255E+03  0.00000000000E+00 0. -1.
         -2   -1    0    0    0  501 -0.00000000000E+00 -0.00000000000E+00 -0.10601822089E+03  0.10601822089E+03  0.00000000000E+00 0.  1.
          5    1    1    2  502    0  0.61456774891E+01  0.55533126818E+02 -0.34158791160E+02  0.65620065067E+02  0.41800000000E+01 0.  1.
         -5    1    1    2    0  502 -0.53945953393E+02  0.53427205541E+01  0.64884019946E+02  0.84652932582E+02  0.41800000000E+01 0.  1.
        -11    1    1    2    0    0 -0.47959491383E+01  0.19467674205E+02  0.15672515746E+02  0.25448363737E+02  0.00000000000E+00 0.  1.
         11    1    1    2    0    0  0.52596225042E+02 -0.80343521577E+02  0.14387327128E+02  0.97100152059E+02  0.00000000000E+00 0. -1.
</event>
<event>
 6    1  0.6597032E-006  0.1108878E+03  0.7561462E-02  0.1258935E+00
         -2   -1    0    0    0  501 -0.00000000000E+00  0.00000000000E+00  0.65890931535E+02  0.65890931535E+02  0.00000000000E+00 0.  1.
          2   -1    0    0  501    0  0.00000000000E+00 -0.00000000000E+00 -0.48371264673E+03  0.48371264673E+03  0.00000000000E+00 0. -1.
          5    1    1    2  502    0 -0.27270713313E+02 -0.29288461869E+02 -0.59950719528E+02  0.72201571833E+02  0.41800000000E+01 0. -1.
         -5    1    1    2    0  502  0.76548881021E+02 -0.47805725140E+01  0.23706144521E+02  0.80386807047E+02  0.41800000000E+01 0.  1.
        -11    1    1    2    0    0  0.20183149149E+02 -0.99398868609E+01 -0.42248564633E+02  0.47865458046E+02  0.00000000000E+00 0.  1.
         11    1    1    2    0    0 -0.69461316857E+02  0.44008921244E+02 -0.33932857555E+03  0.34914974133E+03  0.00000000000E+00 0. -1.
</event>
<event>
 6    1  0.6597032E-006  0.1004241E+03  0.7561462E-02  0.1279407E+00
          1   -1    0    0  501    0  0.00000000000E+00  0.00000000000E+00  0.47253165421E+02  0.47253165421E+02  0.00000000000E+00 0. -1.
         -1   -1    0    0    0  501 -0.00000000000E+00 -0.00000000000E+00 -0.31761987396E+03  0.31761987396E+03  0.00000000000E+00 0.  1.
          5    1    1    2  502    0  0.38894808422E+01  0.67980940189E+02 -0.18548670251E+03  0.19763432267E+03  0.41800000000E+01 0.  1.
         -5    1    1    2    0  502  0.21749310900E+02 -0.23488598276E+02 -0.46752961332E+00  0.32286804697E+02  0.41800000000E+01 0.  1.
        -11    1    1    2    0    0 -0.40176245408E+01 -0.68165507179E+02 -0.75237948667E+02  0.10160426465E+03  0.00000000000E+00 0.  1.
         11    1    1    2    0    0 -0.21621167202E+02  0.23673165265E+02 -0.91745277448E+01  0.33347647356E+02  0.00000000000E+00 0. -1.
</event>
<event>
 6    1  0.6597032E-006  0.9858354E+02  0.7561462E-02  0.1283303E+00
          1   -1    0    0  501    0  0.00000000000E+00  0.00000000000E+00  0.10637205754E+03  0.10637205754E+03  0.00000000000E+00 0. -1.
         -1   -1    0    0    0  501 -0.00000000000E+00 -0.00000000000E+00 -0.12487914109E+03  0.12487914109E+03  0.00000000000E+00 0.  1.
          5    1    1    2  502    0 -0.12960995368E+02  0.37163444738E+02 -0.41539530710E+02  0.57376946915E+02  0.41800000000E+01 0.  1.
         -5    1    1    2    0  502 -0.71534539631E+01 -0.69205186222E+02  0.25651407887E+02  0.74269757171E+02  0.41800000000E+01 0.  1.
        -11    1    1    2    0    0  0.11658831206E+01 -0.26412858065E+02  0.21008867315E+02  0.33769377555E+02  0.00000000000E+00 0. -1.
         11    1    1    2    0    0  0.18948566211E+02  0.58454599550E+02 -0.23627828044E+02  0.65835116982E+02  0.00000000000E+00 0.  1.
</event>
<event>
 6    1  0.6597032E-006  0.1273166E+03  0.7561462E-02  0.1231493E+00
         -2   -1    0    0    0  501 -0.00000000000E+00  0.00000000000E+00  0.30142856340E+02  0.30142856340E+02  0.00000000000E+00 0.  1.
          2   -1    0    0  501    0  0.00000000000E+00 -0.00000000000E+00 -0.93946749142E+03  0.93946749142E+03  0.00000000000E+00 0. -1.
          5    1    1    2  502    0 -0.71127997891E+02  0.64568116198E+02 -0.36829049599E+03  0.38063577807E+03  0.41800000000E+01 0. -1.
         -5    1    1    2    0  502 -0.30129603013E+02  0.56194501394E+01 -0.42713385110E+01  0.31226397971E+02  0.41800000000E+01 0. -1.
        -11    1    1    2    0    0  0.22135033560E+02 -0.54863394321E+00 -0.18434454226E+02  0.28811279258E+02  0.00000000000E+00 0. -1.
         11    1    1    2    0    0  0.79122567344E+02 -0.69638932394E+02 -0.51832834635E+03  0.52893689245E+03  0.00000000000E+00 0.  1.
</event>
<event>
 6    1  0.6597032E-006  0.1786574E+03  0.7561462E-02  0.1169109E+00
          1   -1    0    0  501    0  0.00000000000E+00  0.00000000000E+00  0.14336471193E+03  0.14336471193E+03  0.00000000000E+00 0. -1.
         -1   -1    0    0    0  501 -0.00000000000E+00 -0.00000000000E+00 -0.28946870525E+03  0.28946870525E+03  0.00000000000E+00 0.  1.
          5    1    1    2  502    0  0.16740559389E+02 -0.24060986185E+02  0.25547072193E+02  0.39106299780E+02  0.41800000000E+01 0.  1.
         -5    1    1    2    0  502  0.33080277092E+01 -0.14323352353E+03 -0.13800149917E+03  0.19896902141E+03  0.41800000000E+01 0.  1.
        -11    1    1    2    0    0 -0.48492088354E+02  0.11585482620E+03  0.27437073421E+01  0.12562384852E+03  0.00000000000E+00 0. -1.
         11    1    1    2    0    0  0.28443501256E+02  0.51439683520E+02 -0.36393273683E+02  0.69134247474E+02  0.00000000000E+00 0.  1.
</event>
<event>
 6    1  0.6597032E-006  0.1952293E+03  0.7561462E-02  0.1153828E+00
         -1   -1    0    0    0  501 -0.00000000000E+00  0.00000000000E+00  0.16087745458E+03  0.16087745458E+03  0.00000000000E+00 0.  1.
          1   -1    0    0  501    0  0.00000000000E+00 -0.00000000000E+00 -0.28914473031E+03  0.28914473031E+03  0.00000000000E+00 0. -1.
          5    1    1    2  502    0 -0.77767802241E+02 -0.15997451976E+02  0.19807917801E+02  0.81936411581E+02  0.41800000000E+01 0. -1.
         -5    1    1    2    0  502 -0.13514341221E+02 -0.12947750133E+03 -0.11033621664E+02  0.13071447500E+03  0.41800000000E+01 0. -1.
        -11    1    1    2    0    0  0.78584880236E+02  0.14817412253E+03 -0.14536520958E+03  0.22195089129E+03  0.00000000000E+00 0. -1.
         11    1    1    2    0    0  0.12697263226E+02 -0.26991692251E+01  0.83236377080E+01  0.15420407019E+02  0.00000000000E+00 0.  1.
</event>
<event>
 6    1  0.6597032E-006  0.7007260E+02  0.7561462E-02  0.1359846E+00
         -1   -1    0    0    0  501 -0.00000000000E+00  0.00000000000E+00  0.74815264481E+02  0.74815264481E+02  0.00000000000E+00 0.  1.
          1   -1    0    0  501    0  0.00000000000E+00 -0.00000000000E+00 -0.15167971900E+03  0.15167971900E+03  0.00000000000E+00 0. -1.
          5    1    1    2  502    0  0.76057481958E+01 -0.39550951316E+02  0.36319849588E+02  0.54394200332E+02  0.41800000000E+01 0. -1.
         -5    1    1    2    0  502  0.38437578767E+02  0.27799312103E+02 -0.68171439085E+02  0.83156880183E+02  0.41800000000E+01 0. -1.
        -11    1    1    2    0    0 -0.22546745979E+02  0.16653442828E+02  0.93251972749E+01  0.29540687475E+02  0.00000000000E+00 0.  1.
         11    1    1    2    0    0 -0.23496580983E+02 -0.49018036146E+01 -0.54338062298E+02  0.59403215493E+02  0.00000000000E+00 0. -1.
</event>
<event>
 6    1  0.6597032E-006  0.1357622E+03  0.7561462E-02  0.1219148E+00
          2   -1    0    0  501    0  0.00000000000E+00  0.00000000000E+00  0.15596603044E+03  0.15596603044E+03  0.00000000000E+00 0. -1.
         -2   -1    0    0    0  501 -0.00000000000E+00 -0.00000000000E+00 -0.12618985541E+03  0.12618985541E+03  0.00000000000E+00 0.  1.
          5    1    1    2  502    0 -0.19644761546E+00 -0.69215076500E+02 -0.15638820134E+02  0.71083123888E+02  0.41800000000E+01 0. -1.
         -5    1    1    2    0  502  0.76461130519E+02  0.22685813170E+02  0.21674864648E+02  0.82753989371E+02  0.41800000000E+01 0. -1.
        -11    1    1    2    0    0 -0.22698189735E+02  0.62440549649E+02 -0.27139223266E+01  0.66493574367E+02  0.00000000000E+00 0. -1.
         11    1    1    2    0    0 -0.53566493168E+02 -0.15911286319E+02  0.26454052845E+02  0.61825198217E+02  0.00000000000E+00 0.  1.
</event>
<event>
 6    1  0.6597032E-006  0.1266672E+03  0.7561462E-02  0.1232486E+00
          1   -1    0    0  501    0  0.00000000000E+00  0.00000000000E+00  0.76557044388E+03  0.76557044388E+03  0.00000000000E+00 0. -1.
         -1   -1    0    0    0  501 -0.00000000000E+00 -0.00000000000E+00 -0.28566650076E+02  0.28566650076E+02  0.00000000000E+00 0.  1.
          5    1    1    2  502    0  0.42736872688E+02 -0.21734269639E+02  0.12740329259E+03  0.13619063891E+03  0.41800000000E+01 0. -1.
         -5    1    1    2    0  502 -0.11026568830E+02  0.84452245935E+02  0.87234155857E+02  0.12198785764E+03  0.41800000000E+01 0. -1.
        -11    1    1    2    0    0  0.26607664798E+02 -0.55013683475E+02  0.26440991957E+03  0.27137995277E+03  0.00000000000E+00 0.  1.
         11    1    1    2    0    0 -0.58317968656E+02 -0.77042928205E+01  0.25795642578E+03  0.26457864464E+03  0.00000000000E+00 0. -1.
</event>
<event>
 6    1  0.6597032E-006  0.1123833E+03  0.7561462E-02  0.1256219E+00
          1   -1    0    0  501    0  0.00000000000E+00  0.00000000000E+00  0.91469512350E+02  0.91469512350E+02  0.00000000000E+00 0. -1.
         -1   -1    0    0    0  501 -0.00000000000E+00 -0.00000000000E+00 -0.14607303036E+03  0.14607303036E+03  0.00000000000E+00 0.  1.
          5    1    1    2  502    0  0.20918511294E+02  0.43240941454E+02 -0.70952865423E+01  0.48735804330E+02  0.41800000000E+01 0.  1.
         -5    1    1    2    0  502 -0.56089518936E+02 -0.58519469719E+02 -0.38569028228E+02  0.89864368963E+02  0.41800000000E+01 0.  1.
        -11    1    1    2    0    0 -0.58219004004E+01 -0.32162481770E+02  0.86751866062E+01  0.33816839304E+02  0.00000000000E+00 0. -1.
         11    1    1    2    0    0  0.40992908043E+02  0.47441010035E+02 -0.17614389847E+02  0.65125530114E+02  0.00000000000E+00 0.  1.
</event>
<event>
 6    1  0.6597032E-006  0.1188879E+03  0.7561462E-02  0.1244943E+00
          1   -1    0    0  501    0  0.00000000000E+00  0.00000000000E+00  0.75037201479E+03  0.75037201479E+03  0.00000000000E+00 0. -1.
         -1   -1    0    0    0  501 -0.00000000000E+00 -0.00000000000E+00 -0.22891585392E+02  0.22891585392E+02  0.00000000000E+00 0.  1.
          5    1    1    2  502    0  0.26855096668E+02 -0.87979186800E+02  0.21852789769E+03  0.23713592725E+03  0.41800000000E+01 0.  1.
         -5    1    1    2    0  502  0.31355479895E+02  0.41051124431E+02  0.17482793349E+03  0.18234757927E+03  0.41800000000E+01 0.  1.
        -11    1    1    2    0    0 -0.13485043351E+02  0.47256177321E+02  0.67861209210E+02  0.83786254270E+02  0.00000000000E+00 0.  1.
         11    1    1    2    0    0 -0.44725533212E+02 -0.32811495210E+00  0.26626338901E+03  0.26999383939E+03  0.00000000000E+00 0. -1.
</event>
<event>
 6    1  0.6597032E-006  0.1047037E+03  0.7561462E-02  0.1270705E+00
          1   -1    0    0  501    0  0.00000000000E+00  0.00000000000E+00  0.30356953236E+02  0.30356953236E+02  0.00000000000E+00 0.  1.
         -1   -1    0    0    0  501 -0.00000000000E+00 -0.00000000000E+00 -0.39988577639E+03  0.39988577639E+03  0.00000000000E+00 0. -1.
          5    1    1    2  502    0  0.20637314126E+01  0.65167968409E+02 -0.16671760001E+03  0.17906242946E+03  0.41800000000E+01 0. -1.
         -5    1    1    2    0  502  0.10712529410E+02 -0.53343501236E+02 -0.65281937166E+02  0.85085199245E+02  0.41800000000E+01 0. -1.
        -11    1    1    2    0    0 -0.39861740522E+02  0.22505064493E+02 -0.93161603136E+02  0.10380038817E+03  0.00000000000E+00 0. -1.
         11    1    1    2    0    0  0.27085479699E+02 -0.34329531666E+02 -0.44367682843E+02  0.62294712743E+02  0.00000000000E+00 0.  1.
</event>
<event>
 6    1  0.6597032E-006  0.9415781E+02  0.7561462E-02  0.1293084E+00
          2   -1    0    0  501    0  0.00000000000E+00  0.00000000000E+00  0.13737424599E+03  0.13737424599E+03  0.00000000000E+00 0. -1.
         -2   -1    0    0    0  501 -0.00000000000E+00 -0.00000000000E+00 -0.11583138172E+03  0.11583138172E+03  0.00000000000E+00 0.  1.
          5    1    1    2  502    0 -0.30970759579E+02 -0.72729758129E+02  0.44599782759E+02  0.90859334625E+02  0.41800000000E+01 0.  1.
         -5    1    1    2    0  502  0.18673048716E+02  0.78859792722E+01 -0.46165738739E+02  0.50592679814E+02  0.41800000000E+01 0.  1.
        -11    1    1    2    0    0  0.32420171000E+02  0.17111363979E+02 -0.22265280841E+02  0.42890663271E+02  0.00000000000E+00 0.  1.
         11    1    1    2    0    0 -0.20122460137E+02  0.47732414878E+02  0.45374101097E+02  0.68862949998E+02  0.00000000000E+00 0. -1.
</event>
<event>
 6    1  0.6597032E-006  0.1072100E+03  0.7561462E-02  0.1265826E+00
         -2   -1    0    0    0  501 -0.00000000000E+00  0.00000000000E+00  0.11810099697E+03  0.11810099697E+03  0.00000000000E+00 0. -1.
          2   -1    0    0  501    0  0.00000000000E+00 -0.00000000000E+00 -0.14859549795E+03  0.14859549795E+03  0.00000000000E+00 0.  1.
          5    1    1    2  502    0 -0.57200978583E+02  0.16444594652E+02  0.29892822040E+02  0.66734023209E+02  0.41800000000E+01 0.  1.
         -5    1    1    2    0  502  0.56813325496E+02 -0.34565168853E+02  0.27557493767E+02  0.72106814619E+02  0.41800000000E+01 0.  1.
        -11    1    1    2    0    0  0.42986941266E+02  0.36891273246E+01 -0.23101668711E+02  0.48940513657E+02  0.00000000000E+00 0. -1.
         11    1    1    2    0    0 -0.42599288179E+02  0.14431446876E+02 -0.64843148076E+02  0.78915143443E+02  0.00000000000E+00 0.  1.
</event>
<event>
 6    1  0.6597032E-006  0.8798284E+02  0.7561462E-02  0.1307811E+00
         -2   -1    0    0    0  501 -0.00000000000E+00  0.00000000000E+00  0.21753606686E+03  0.21753606686E+03  0.00000000000E+00 0.  1.
          2   -1    0    0  501    0  0.00000000000E+00 -0.00000000000E+00 -0.62213610978E+02  0.62213610978E+02  0.00000000000E+00 0. -1.
          5    1    1    2  502    0  0.17519173729E+02  0.44806804350E+02  0.68464132193E+02  0.83781745990E+02  0.41800000000E+01 0. -1.
         -5    1    1    2    0  502 -0.94142702063E+01 -0.71458002060E+02  0.31582615962E+02  0.78802338626E+02  0.41800000000E+01 0. -1.
        -11    1    1    2    0    0  0.16573262373E+02  0.25948636271E+02  0.77846905889E+02  0.83714667212E+02  0.00000000000E+00 0.  1.
         11    1    1    2    0    0 -0.24678165896E+02  0.70256143879E+00 -0.22571198161E+02  0.33450926011E+02  0.00000000000E+00 0. -1.
</event>
<event>
 6    1  0.6597032E-006  0.1104672E+03  0.7561462E-02  0.1259707E+00
         -2   -1    0    0    0  501 -0.00000000000E+00  0.00000000000E+00  0.25530408442E+02  0.25530408442E+02  0.00000000000E+00 0. -1.
          2   -1    0    0  501    0  0.00000000000E+00 -0.00000000000E+00 -0.58185894878E+03  0.58185894878E+03  0.00000000000E+00 0.  1.
          5    1    1    2  502    0 -0.65472682232E+00  0.47773096296E+02 -0.95523772458E+02  0.10688760874E+03  0.41800000000E+01 0.  1.
         -5    1    1    2    0  502 -0.14790786652E+02 -0.78770748609E+02 -0.10920587611E+03  0.13552488326E+03  0.41800000000E+01 0.  1.
        -11    1    1    2    0    0 -0.20933495491E+02  0.48146011571E+02 -0.25485426489E+03  0.26020558410E+03  0.00000000000E+00 0.  1.
         11    1    1    2    0    0  0.36379008965E+02 -0.17148359258E+02 -0.96744626879E+02  0.10477128112E+03  0.00000000000E+00 0. -1.
</event>
<event>
 6    1  0.6597032E-006  0.1027730E+03  0.7561462E-02  0.1274571E+00
          2   -1    0    0  501    0  0.00000000000E+00  0.00000000000E+00  0.29792807044E+02  0.29792807044E+02  0.00000000000E+00 0. -1.
         -2   -1    0    0    0  501 -0.00000000000E+00 -0.00000000000E+00 -0.43788057461E+03  0.43788057461E+03  0.00000000000E+00 0.  1.
          5    1    1    2  502    0 -0.33641241576E+02  0.60369423322E+02 -0.15083543511E+03  0.16596686806E+03  0.41800000000E+01 0.  1.
         -5    1    1    2    0  502  0.47758468774E+02 -0.34765350707E+02 -0.12590201440E+03  0.13913407411E+03  0.41800000000E+01 0.  1.
        -11    1    1    2    0    0 -0.24876532781E+02 -0.46979478168E+02 -0.35846688777E+02  0.64116287700E+02  0.00000000000E+00 0. -1.
         11    1    1    2    0    0  0.10759305583E+02  0.21375405553E+02 -0.95503629282E+02  0.98456151790E+02  0.00000000000E+00 0.  1.
</event>
<event>
 6    1  0.6597032E-006  0.1063145E+03  0.7561462E-02  0.1267551E+00
          1   -1    0    0  501    0  0.00000000000E+00  0.00000000000E+00  0.11122358106E+04  0.11122358106E+04  0.00000000000E+00 0. -1.
         -1   -1    0    0    0  501 -0.00000000000E+00 -0.00000000000E+00 -0.10346413692E+02  0.10346413692E+02  0.00000000000E+00 0.  1.
          5    1    1    2  502    0  0.21525796577E+02  0.63182774490E+02  0.28584403828E+03  0.29356380828E+03  0.41800000000E+01 0. -1.
         -5    1    1    2    0  502 -0.14999214166E+02 -0.54671853534E+02  0.34500016939E+03  0.34965208032E+03  0.41800000000E+01 0. -1.
        -11    1    1    2    0    0 -0.29046971958E+02  0.31588080213E+02  0.22152390539E+03  0.22564213713E+03  0.00000000000E+00 0.  1.
         11    1    1    2    0    0  0.22520389548E+02 -0.40099001168E+02  0.24952128385E+03  0.25372419856E+03  0.00000000000E+00 0. -1.
</event>
<event>
 6    1  0.6597032E-006  0.1145888E+03  0.7561462E-02  0.1252301E+00
         -1   -1    0    0    0  501 -0.00000000000E+00  0.00000000000E+00  0.14347877042E+03  0.14347877042E+03  0.00000000000E+00 0.  1.
          1   -1    0    0  501    0  0.00000000000E+00 -0.00000000000E+00 -0.10407218945E+03  0.10407218945E+03  0.00000000000E+00 0. -1.
          5    1    1    2  502    0 -0.36530030909E+02  0.28950096653E+02  0.24102682580E+02  0.52639936950E+02  0.41800000000E+01 0. -1.
         -5    1    1    2    0  502  0.20642800147E+02 -0.77436901491E+02 -0.19315843683E+02  0.82541947685E+02  0.41800000000E+01 0. -1.
        -11    1    1    2    0    0 -0.36497865931E+02  0.27494782231E+02 -0.86874247259E+00  0.45703522631E+02  0.00000000000E+00 0. -1.
         11    1    1    2    0    0  0.52385096693E+02  0.20992022607E+02  0.35488484539E+02  0.66665552601E+02  0.00000000000E+00 0.  1.
</event>
<event>
 6    1  0.6597032E-006  0.1516434E+03  0.7561462E-02  0.1198468E+00
         -4   -1    0    0    0  501 -0.00000000000E+00  0.00000000000E+00  0.33407209112E+02  0.33407209112E+02  0.00000000000E+00 0.  1.
          4   -1    0    0  501    0  0.00000000000E+00 -0.00000000000E+00 -0.77642297853E+03  0.77642297853E+03  0.00000000000E+00 0. -1.
          5    1    1    2  502    0  0.62680536595E+02  0.42583136715E+02 -0.24065948866E+03  0.25234229745E+03  0.41800000000E+01 0. -1.
         -5    1    1    2    0  502 -0.91107019326E+02 -0.96666826265E+02 -0.26218740793E+03  0.29394671889E+03  0.41800000000E+01 0.  1.
        -11    1    1    2    0    0  0.51341393235E+02  0.23990675734E+02 -0.20202609620E+03  0.20982381831E+03  0.00000000000E+00 0.  1.
         11    1    1    2    0    0 -0.22914910505E+02  0.30093013815E+02 -0.38142776622E+02  0.53717352991E+02  0.00000000000E+00 0. -1.
</event>
<event>
 6    1  0.6597032E-006  0.1567590E+03  0.7561462E-02  0.1192405E+00
         -1   -1    0    0    0  501 -0.00000000000E+00  0.00000000000E+00  0.23473967664E+03  0.23473967664E+03  0.00000000000E+00 0. -1.
          1   -1    0    0  501    0  0.00000000000E+00 -0.00000000000E+00 -0.13912969516E+03  0.13912969516E+03  0.00000000000E+00 0.  1.
          5    1    1    2  502    0 -0.11233040948E+03  0.10014022138E+03  0.11284943625E+03  0.18814529624E+03  0.41800000000E+01 0. -1.
         -5    1    1    2    0  502  0.82194270364E+01 -0.10964618725E+02 -0.15757903778E+02  0.21297083746E+02  0.41800000000E+01 0. -1.
        -11    1    1    2    0    0  0.29055987430E+02  0.36386413988E+01 -0.29768584968E+02  0.41757140321E+02  0.00000000000E+00 0.  1.
         11    1    1    2    0    0  0.75054995018E+02 -0.92814244055E+02  0.28287033973E+02  0.12266985150E+03  0.00000000000E+00 0. -1.
</event>
<event>
 6    1  0.6597032E-006  0.2334321E+03  0.7561462E-02  0.1124247E+00
         -1   -1    0    0    0  501 -0.00000000000E+00  0.00000000000E+00  0.16236349990E+03  0.16236349990E+03  0.00000000000E+00 0.  1.
          1   -1    0    0  501    0  0.00000000000E+00 -0.00000000000E+00 -0.42507318665E+03  0.42507318665E+03  0.00000000000E+00 0. -1.
          5    1    1    2  502    0 -0.10486366138E+01 -0.50209077594E+02 -0.74812643158E+02  0.90202300902E+02  0.41800000000E+01 0. -1.
         -5    1    1    2    0  502 -0.27082001912E+02 -0.17660417331E+03  0.13459319206E+02  0.17922358810E+03  0.41800000000E+01 0.  1.
        -11    1    1    2    0    0  0.72817962820E+01  0.21212427699E+03 -0.20127238009E+03  0.29250693057E+03  0.00000000000E+00 0. -1.
         11    1    1    2    0    0  0.20848842244E+02  0.14688973915E+02 -0.83982705709E-01  0.25503866975E+02  0.00000000000E+00 0.  1.
</event>
<event>
 6    1  0.6597032E-006  0.1268278E+03  0.7561462E-02  0.1232240E+00
          2   -1    0    0  501    0  0.00000000000E+00  0.00000000000E+00  0.67180275110E+02  0.67180275110E+02  0.00000000000E+00 0. -1.
         -2   -1    0    0    0  501 -0.00000000000E+00 -0.00000000000E+00 -0.31241788436E+03  0.31241788436E+03  0.00000000000E+00 0.  1.
          5    1    1    2  502    0 -0.46722533448E-01 -0.10298520692E+03 -0.43447741076E+02  0.11185317891E+03  0.41800000000E+01 0. -1.
         -5    1    1    2    0  502  0.41515679879E+02  0.17065785986E+02 -0.65475227070E+02  0.79493839302E+02  0.41800000000E+01 0. -1.
        -11    1    1    2    0    0  0.12732591588E+01  0.49025347528E+02 -0.11975834065E+03  0.12941084207E+03  0.00000000000E+00 0.  1.
         11    1    1    2    0    0 -0.42742216504E+02  0.36894073407E+02 -0.16556300454E+02  0.58840299192E+02  0.00000000000E+00 0. -1.
</event>
<event>
 6    1  0.6597032E-006  0.1045619E+03  0.7561462E-02  0.1270985E+00
         -4   -1    0    0    0  501 -0.00000000000E+00  0.00000000000E+00  0.18760998461E+02  0.18760998461E+02  0.00000000000E+00 0.  1.
          4   -1    0    0  501    0  0.00000000000E+00 -0.00000000000E+00 -0.77111705507E+03  0.77111705507E+03  0.00000000000E+00 0. -1.
          5    1    1    2  502    0 -0.61424146410E+02  0.36692631077E+02 -0.10271208641E+03  0.12524583839E+03  0.41800000000E+01 0. -1.
         -5    1    1    2    0  502  0.24639734372E+02 -0.23928208337E+02 -0.22562783064E+03  0.22826534127E+03  0.41800000000E+01 0. -1.
        -11    1    1    2    0    0  0.88221509977E+01  0.41167972669E+02 -0.18811155441E+03  0.19276563289E+03  0.00000000000E+00 0.  1.
         11    1    1    2    0    0  0.27962261040E+02 -0.53932395410E+02 -0.23590458515E+03  0.24360124099E+03  0.00000000000E+00 0. -1.
</event>
<event>
 6    1  0.6597032E-006  0.3116647E+03  0.7561462E-02  0.1079551E+00
          1   -1    0    0  501    0  0.00000000000E+00  0.00000000000E+00  0.28926349144E+03  0.28926349144E+03  0.00000000000E+00 0. -1.
         -1   -1    0    0    0  501 -0.00000000000E+00 -0.00000000000E+00 -0.41385476552E+03  0.41385476552E+03  0.00000000000E+00 0.  1.
          5    1    1    2  502    0 -0.21976137420E+02  0.60079245574E+02 -0.72528451621E+02  0.96800387702E+02  0.41800000000E+01 0.  1.
         -5    1    1    2    0  502 -0.23884015367E+03  0.86614420869E+02 -0.12795085372E+03  0.28449177541E+03  0.41800000000E+01 0.  1.
        -11    1    1    2    0    0  0.22741258929E+03 -0.14861511311E+03  0.43256062824E+02  0.27508912116E+03  0.00000000000E+00 0.  1.
         11    1    1    2    0    0  0.33403701802E+02  0.19214466706E+01  0.32631968437E+02  0.46736972682E+02  0.00000000000E+00 0. -1.
</event>
<event>
 6    1  0.6597032E-006  0.1566865E+03  0.7561462E-02  0.1192489E+00
          2   -1    0    0  501    0  0.00000000000E+00  0.00000000000E+00  0.35589968941E+03  0.35589968941E+03  0.00000000000E+00 0.  1.
         -2   -1    0    0    0  501 -0.00000000000E+00 -0.00000000000E+00 -0.10947450477E+03  0.10947450477E+03  0.00000000000E+00 0. -1.
          5    1    1    2  502    0 -0.12372097649E+03  0.84514272625E+02  0.42456635410E+02  0.15578697183E+03  0.41800000000E+01 0.  1.
         -5    1    1    2    0  502  0.15231610958E+02  0.60569594850E+01 -0.28843785717E+02  0.33438377728E+02  0.41800000000E+01 0.  1.
        -11    1    1    2    0    0  0.46988683454E+02 -0.15411053544E+02  0.10064767967E+03  0.11214005693E+03  0.00000000000E+00 0. -1.
         11    1    1    2    0    0  0.61500682076E+02 -0.75160178566E+02  0.13216465528E+03  0.16400878770E+03  0.00000000000E+00 0.  1.
</event>
<event>
 6    1  0.6597032E-006  0.8882276E+02  0.7561462E-02  0.1305728E+00
          1   -1    0    0  501    0  0.00000000000E+00  0.00000000000E+00  0.38764679150E+03  0.38764679150E+03  0.00000000000E+00 0. -1.
         -1   -1    0    0    0  501 -0.00000000000E+00 -0.00000000000E+00 -0.43972376836E+02  0.43972376836E+02  0.00000000000E+00 0.  1.
          5    1    1    2  502    0 -0.17663506668E+02 -0.31995593415E+01  0.99118967367E+02  0.10081804769E+03  0.41800000000E+01 0. -1.
         -5    1    1    2    0  502  0.55049135384E+02  0.24138524632E+02 -0.65155523455E+01  0.60605284426E+02  0.41800000000E+01 0. -1.
        -11    1    1    2    0    0 -0.43766097027E+02 -0.51589248664E+02  0.18754651420E+03  0.19937556725E+03  0.00000000000E+00 0.  1.
         11    1    1    2    0    0  0.63804683110E+01  0.30650283374E+02  0.63524485441E+02  0.70820268972E+02  0.00000000000E+00 0. -1.
</event>
<event>
 6    1  0.6597032E-006  0.1368652E+03  0.7561462E-02  0.1217610E+00
          2   -1    0    0  501    0  0.00000000000E+00  0.00000000000E+00  0.16562524608E+03  0.16562524608E+03  0.00000000000E+00 0. -1.
         -2   -1    0    0    0  501 -0.00000000000E+00 -0.00000000000E+00 -0.16301697727E+03  0.16301697727E+03  0.00000000000E+00 0.  1.
          5    1    1    2  502    0 -0.36775482662E+02  0.32640029402E+02 -0.43084708219E+02  0.65510091793E+02  0.41800000000E+01 0.  1.
         -5    1    1    2    0  502  0.93473847955E+02  0.54431641307E+02 -0.26993601403E+02  0.11156294521E+03  0.41800000000E+01 0.  1.
        -11    1    1    2    0    0  0.31405373204E+01 -0.39672362909E+02  0.63142758385E+02  0.74637572910E+02  0.00000000000E+00 0.  1.
         11    1    1    2    0    0 -0.59838902614E+02 -0.47399307801E+02  0.95438200464E+01  0.76931613444E+02  0.00000000000E+00 0. -1.
</event>
<event>
 6    1  0.6597032E-006  0.1087858E+03  0.7561462E-02  0.1262835E+00
         -1   -1    0    0    0  501 -0.00000000000E+00  0.00000000000E+00  0.34521325255E+02  0.34521325255E+02  0.00000000000E+00 0.  1.
          1   -1    0    0  501    0  0.00000000000E+00 -0.00000000000E+00 -0.46715198765E+03  0.46715198765E+03  0.00000000000E+00 0. -1.
          5    1    1    2  502    0  0.51296189547E+02 -0.73325347852E+02 -0.11774531454E+03  0.14795045520E+03  0.41800000000E+01 0.  1.
         -5    1    1    2    0  502  0.45259618873E+01  0.49111893817E+02 -0.62867869792E+02  0.80014398063E+02  0.41800000000E+01 0.  1.
        -11    1    1    2    0    0 -0.61677862733E+02  0.91807268757E+01 -0.24974993608E+03  0.25741692848E+03  0.00000000000E+00 0. -1.
         11    1    1    2    0    0  0.58557112982E+01  0.15032727159E+02 -0.22675419820E+01  0.16291531152E+02  0.00000000000E+00 0.  1.
</event>
<event>
 6    1  0.6597032E-006  0.9560501E+02  0.7561462E-02  0.1289819E+00
         -1   -1    0    0    0  501 -0.00000000000E+00  0.00000000000E+00  0.49952068085E+02  0.49952068085E+02  0.00000000000E+00 0.  1.
          1   -1    0    0  501    0  0.00000000000E+00 -0.00000000000E+00 -0.32665948097E+03  0.32665948097E+03  0.00000000000E+00 0. -1.
          5    1    1    2  502    0  0.25394583645E+02  0.88458776611E+02 -0.14337756967E+03  0.17042429381E+03  0.41800000000E+01 0. -1.
         -5    1    1    2    0  502 -0.79772159156E+00 -0.15765335839E+02  0.10810024524E+02  0.19583442089E+02  0.41800000000E+01 0.  1.
        -11    1    1    2    0    0  0.55746781780E+01 -0.29768727009E+02  0.29565418934E+01  0.30430170629E+02  0.00000000000E+00 0. -1.
         11    1    1    2    0    0 -0.30171540232E+02 -0.42924713763E+02 -0.14709640963E+03  0.15617364252E+03  0.00000000000E+00 0.  1.
</event>
<event>
 6    1  0.6597032E-006  0.1539981E+03  0.7561462E-02  0.1195644E+00
          1   -1    0    0  501    0  0.00000000000E+00  0.00000000000E+00  0.43940250463E+03  0.43940250463E+03  0.00000000000E+00 0. -1.
         -1   -1    0    0    0  501 -0.00000000000E+00 -0.00000000000E+00 -0.68952042082E+02  0.68952042082E+02  0.00000000000E+00 0.  1.
          5    1    1    2  502    0 -0.49072412158E+02 -0.57375086773E+02  0.30335586565E+02  0.81472218759E+02  0.41800000000E+01 0.  1.
         -5    1    1    2    0  502 -0.84367641896E+02  0.44819524948E+02  0.13464931719E+03  0.16515023413E+03  0.41800000000E+01 0.  1.
        -11    1    1    2    0    0  0.47985546876E+02 -0.85344895845E+01  0.14994156823E+03  0.15766395944E+03  0.00000000000E+00 0. -1.
         11    1    1    2    0    0  0.85454507178E+02  0.21090051410E+02  0.55523990565E+02  0.10406813438E+03  0.00000000000E+00 0.  1.
</event>
<event>
 6    1  0.6597032E-006  0.1046672E+03  0.7561462E-02  0.1270777E+00
         -1   -1    0    0    0  501 -0.00000000000E+00  0.00000000000E+00  0.23049977423E+03  0.23049977423E+03  0.00000000000E+00 0.  1.
          1   -1    0    0  501    0  0.00000000000E+00 -0.00000000000E+00 -0.64250783012E+02  0.64250783012E+02  0.00000000000E+00 0. -1.
          5    1    1    2  502    0 -0.68585619477E+02 -0.62575124479E+01  0.97377195225E+02  0.11934376486E+03  0.41800000000E+01 0.  1.
         -5    1    1    2    0  502  0.30066094888E+02 -0.35217440022E+02 -0.40534275283E+01  0.46670556224E+02  0.41800000000E+01 0.  1.
        -11    1    1    2    0    0  0.11641145502E+02  0.60051807691E+02  0.16207384047E+02  0.63280448585E+02  0.00000000000E+00 0. -1.
         11    1    1    2    0    0  0.26878379087E+02 -0.18576855221E+02  0.56717839478E+02  0.65455787577E+02  0.00000000000E+00 0.  1.
</event>
<event>
 6    1  0.6597032E-006  0.1212445E+03  0.7561462E-02  0.1241058E+00
         -1   -1    0    0    0  501 -0.00000000000E+00  0.00000000000E+00  0.16294652652E+02  0.16294652652E+02  0.00000000000E+00 0.  1.
          1   -1    0    0  501    0  0.00000000000E+00 -0.00000000000E+00 -0.98596650937E+03  0.98596650937E+03  0.00000000000E+00 0. -1.
          5    1    1    2  502    0 -0.30022262481E+02  0.25306198836E+02 -0.84719694985E+02  0.93469990170E+02  0.41800000000E+01 0.  1.
         -5    1    1    2    0  502  0.84362867614E+02 -0.44153651589E+02 -0.33147253614E+03  0.34490310667E+03  0.41800000000E+01 0.  1.
        -11    1    1    2    0    0 -0.15942864553E+02  0.53588597381E+02 -0.27240139976E+03  0.27807990810E+03  0.00000000000E+00 0. -1.
         11    1    1    2    0    0 -0.38397740579E+02 -0.34741144629E+02 -0.28107822583E+03  0.28580815707E+03  0.00000000000E+00 0.  1.
</event>
<event>
 6    1  0.6597032E-006  0.1043030E+03  0.7561462E-02  0.1271499E+00
          4   -1    0    0  501    0  0.00000000000E+00  0.00000000000E+00  0.34109263314E+03  0.34109263314E+03  0.00000000000E+00 0. -1.
         -4   -1    0    0    0  501 -0.00000000000E+00 -0.00000000000E+00 -0.43445402323E+02  0.43445402323E+02  0.00000000000E+00 0.  1.
          5    1    1    2  502    0 -0.48900851158E+02  0.28232986368E+02  0.38566536696E+02  0.68507261775E+02  0.41800000000E+01 0.  1.
         -5    1    1    2    0  502  0.68018102657E+02 -0.17533607234E+02  0.49687560886E+02  0.86140674356E+02  0.41800000000E+01 0.  1.
        -11    1    1    2    0    0 -0.48883640568E+02  0.27391417228E+01  0.62413322807E+02  0.79325507098E+02  0.00000000000E+00 0.  1.
         11    1    1    2    0    0  0.29766389069E+02 -0.13438520856E+02  0.14697981043E+03  0.15056459223E+03  0.00000000000E+00 0. -1.
</event>
<event>
 6    1  0.6597032E-006  0.9741628E+02  0.7561462E-02  0.1285825E+00
         -1   -1    0    0    0  501 -0.00000000000E+00  0.00000000000E+00  0.21654928826E+02  0.21654928826E+02  0.00000000000E+00 0.  1.
          1   -1    0    0  501    0  0.00000000000E+00 -0.00000000000E+00 -0.58920154842E+03  0.58920154842E+03  0.00000000000E+00 0. -1.
          5    1    1    2  502    0 -0.21079707734E+02  0.32433981897E+02 -0.34501587050E+02  0.52001434296E+02  0.41800000000E+01 0.  1.
         -5    1    1    2    0  502  0.49382131810E+02 -0.48266299900E+02 -0.27139326583E+03  0.28007143336E+03  0.41800000000E+01 0.  1.
        -11    1    1    2    0    0 -0.13691724581E+02 -0.33025224803E+02 -0.52583059179E+02  0.63585429997E+02  0.00000000000E+00 0.  1.
         11    1    1    2    0    0 -0.14610699496E+02  0.48857542806E+02 -0.20906870754E+03  0.21519817959E+03  0.00000000000E+00 0. -1.
</event>
<event>
 6    1  0.6597032E-006  0.1039765E+03  0.7561462E-02  0.1272149E+00
         -2   -1    0    0    0  501 -0.00000000000E+00  0.00000000000E+00  0.62350303076E+02  0.62350303076E+02  0.00000000000E+00 0.  1.
          2   -1    0    0  501    0  0.00000000000E+00 -0.00000000000E+00 -0.23355587748E+03  0.23355587748E+03  0.00000000000E+00 0. -1.
          5    1    1    2  502    0 -0.52861622249E+02 -0.47269531489E+02 -0.55405072927E+02  0.90088590953E+02  0.41800000000E+01 0. -1.
         -5    1    1    2    0  502  0.52051597695E+02  0.12507456853E+02  0.10676733126E+01  0.53706774487E+02  0.41800000000E+01 0.  1.
        -11    1    1    2    0    0  0.37473287613E+02  0.93844741157E+01 -0.15974176712E+02  0.41802989853E+02  0.00000000000E+00 0.  1.
         11    1    1    2    0    0 -0.36663263059E+02  0.25377600520E+02 -0.10089399807E+03  0.11030782526E+03  0.00000000000E+00 0. -1.
</event>
<event>
 6    1  0.6597032E-006  0.9363274E+02  0.7561462E-02  0.1294286E+00
         -2   -1    0    0    0  501 -0.00000000000E+00  0.00000000000E+00  0.42375395714E+02  0.42375395714E+02  0.00000000000E+00 0.  1.
          2   -1    0    0  501    0  0.00000000000E+00 -0.00000000000E+00 -0.43575581664E+03  0.43575581664E+03  0.00000000000E+00 0. -1.
          5    1    1    2  502    0  0.35464246265E+02  0.36176605910E+02 -0.10955351649E+03  0.12077211993E+03  0.41800000000E+01 0. -1.
         -5    1    1    2    0  502  0.67585245347E+01 -0.35918512979E+02  0.16939970382E+02  0.40500027470E+02  0.41800000000E+01 0. -1.
        -11    1    1    2    0    0 -0.43173011739E+02  0.40310398362E+02 -0.17341043850E+03  0.18319393369E+03  0.00000000000E+00 0.  1.
         11    1    1    2    0    0  0.95024093941E+00 -0.40568491293E+02 -0.12735643632E+03  0.13366513126E+03  0.00000000000E+00 0. -1.
</event>
<event>
 6    1  0.6597032E-006  0.1143752E+03  0.7561462E-02  0.1252676E+00
         -2   -1    0    0    0  501 -0.00000000000E+00  0.00000000000E+00  0.41873016572E+02  0.41873016572E+02  0.00000000000E+00 0.  1.
          2   -1    0    0  501    0  0.00000000000E+00 -0.00000000000E+00 -0.34046980049E+03  0.34046980049E+03  0.00000000000E+00 0. -1.
          5    1    1    2  502    0 -0.79637163663E+02 -0.49933934607E+02 -0.11225698648E+03  0.14647381703E+03  0.41800000000E+01 0.  1.
         -5    1    1    2    0  502  0.37115627776E+02  0.18522168595E+02 -0.47758969983E+02  0.63395837154E+02  0.41800000000E+01 0.  1.
        -11    1    1    2    0    0  0.56452016563E+02 -0.22939099822E+01 -0.45630901999E+02  0.72624179268E+02  0.00000000000E+00 0.  1.
         11    1    1    2    0    0 -0.13930480676E+02  0.33705675995E+02 -0.92949925454E+02  0.99848983610E+02  0.00000000000E+00 0. -1.
</event>
<event>
 6    1  0.6597032E-006  0.1728983E+03  0.7561462E-02  0.1174859E+00
         -2   -1    0    0    0  501 -0.00000000000E+00  0.00000000000E+00  0.59600854301E+02  0.59600854301E+02  0.00000000000E+00 0.  1.
          2   -1    0    0  501    0  0.00000000000E+00 -0.00000000000E+00 -0.91517298158E+03  0.91517298158E+03  0.00000000000E+00 0. -1.
          5    1    1    2  502    0  0.12875583842E+03 -0.27334091457E+02 -0.13990209812E+03  0.19213351592E+03  0.41800000000E+01 0.  1.
         -5    1    1    2    0  502  0.20136045189E+02  0.47314619425E+02 -0.62901181281E+01  0.51972795896E+02  0.41800000000E+01 0.  1.
        -11    1    1    2    0    0 -0.11472988894E+03  0.12458566658E+02 -0.60827721443E+03  0.61912788088E+03  0.00000000000E+00 0. -1.
         11    1    1    2    0    0 -0.34161994669E+02 -0.32439094626E+02 -0.10110269660E+03  0.11153964318E+03  0.00000000000E+00 0.  1.
</event>
<event>
 6    1  0.6597032E-006  0.1328697E+03  0.7561462E-02  0.1223259E+00
         -2   -1    0    0    0  501 -0.00000000000E+00  0.00000000000E+00  0.96837361168E+02  0.96837361168E+02  0.00000000000E+00 0. -1.
          2   -1    0    0  501    0  0.00000000000E+00 -0.00000000000E+00 -0.20173096077E+03  0.20173096077E+03  0.00000000000E+00 0.  1.
          5    1    1    2  502    0 -0.90701763058E+02 -0.25756640173E+02 -0.30680216875E+02  0.99241938929E+02  0.41800000000E+01 0.  1.
         -5    1    1    2    0  502  0.16369902018E+02  0.44291297266E+02  0.11251365486E+02  0.48721230802E+02  0.41800000000E+01 0.  1.
        -11    1    1    2    0    0 -0.10815728746E+02 -0.35519303254E+02 -0.23612321295E+02  0.44001620525E+02  0.00000000000E+00 0.  1.
         11    1    1    2    0    0  0.85147589785E+02  0.16984646160E+02 -0.61852426918E+02  0.10660353168E+03  0.00000000000E+00 0. -1.
</event>
<event>
 6    1  0.6597032E-006  0.1063486E+03  0.7561462E-02  0.1267485E+00
         -1   -1    0    0    0  501 -0.00000000000E+00  0.00000000000E+00  0.29753537552E+03  0.29753537552E+03  0.00000000000E+00 0.  1.
          1   -1    0    0  501    0  0.00000000000E+00 -0.00000000000E+00 -0.49854222636E+02  0.49854222636E+02  0.00000000000E+00 0. -1.
          5    1    1    2  502    0 -0.14607927134E+02  0.42313802206E+02  0.21402272021E+02  0.49793363413E+02  0.41800000000E+01 0. -1.
         -5    1    1    2    0  502  0.58585389057E+02 -0.44749672717E+02  0.16573955480E+03  0.18144380244E+03  0.41800000000E+01 0.  1.
        -11    1    1    2    0    0 -0.11633594255E+02  0.41547711884E+02  0.46628266201E+02  0.63527538022E+02  0.00000000000E+00 0.  1.
         11    1    1    2    0    0 -0.32343867667E+02 -0.39111841373E+02  0.13911059860E+02  0.52624894278E+02  0.00000000000E+00 0. -1.
</event>
<event>
 6    1  0.6597032E-006  0.9946752E+02  0.7561462E-02  0.1281420E+00
          2   -1    0    0  501    0  0.00000000000E+00  0.00000000000E+00  0.98224368440E+02  0.98224368440E+02  0.00000000000E+00 0. -1.
         -2   -1    0    0    0  501 -0.00000000000E+00 -0.00000000000E+00 -0.13950650476E+03  0.13950650476E+03  0.00000000000E+00 0.  1.
          5    1    1    2  502    0 -0.22249771655E+01  0.39633595495E+02  0.17780989293E+02  0.43696777861E+02  0.41800000000E+01 0. -1.
         -5    1    1    2    0  502  0.30160077973E+02 -0.59769973932E+02 -0.67756032423E+02  0.95343759192E+02  0.41800000000E+01 0. -1.
        -11    1    1    2    0    0 -0.40191549076E+02 -0.23539708759E+02 -0.13070261865E+02  0.48376753206E+02  0.00000000000E+00 0.  1.
         11    1    1    2    0    0  0.12256448269E+02  0.43676087196E+02  0.21763168680E+02  0.50313582936E+02  0.00000000000E+00 0. -1.
</event>
<event>
 6    1  0.6597032E-006  0.1101373E+03  0.7561462E-02  0.1260316E+00
          1   -1    0    0  501    0  0.00000000000E+00  0.00000000000E+00  0.76110179978E+03  0.76110179978E+03  0.00000000000E+00 0. -1.
         -1   -1    0    0    0  501 -0.00000000000E+00 -0.00000000000E+00 -0.20361285389E+02  0.20361285389E+02  0.00000000000E+00 0.  1.
          5    1    1    2  502    0 -0.78774254244E+02  0.22132870344E+02  0.12676646660E+03  0.15093858531E+03  0.41800000000E+01 0.  1.
         -5    1    1    2    0  502  0.25120356390E+02  0.41250397400E+02  0.24974237642E+03  0.25440392012E+03  0.41800000000E+01 0.  1.
        -11    1    1    2    0    0  0.24859449850E+02 -0.58643815602E+01  0.60821460332E+02  0.65966910303E+02  0.00000000000E+00 0.  1.
         11    1    1    2    0    0  0.28794448003E+02 -0.57518886184E+02  0.30341021104E+03  0.31015366944E+03  0.00000000000E+00 0. -1.
</event>
<event>
 6    1  0.6597032E-006  0.1366787E+03  0.7561462E-02  0.1217869E+00
         -2   -1    0    0    0  501 -0.00000000000E+00  0.00000000000E+00  0.67319142198E+02  0.67319142198E+02  0.00000000000E+00 0.  1.
          2   -1    0    0  501    0  0.00000000000E+00 -0.00000000000E+00 -0.49717625248E+03  0.49717625248E+03  0.00000000000E+00 0. -1.
          5    1    1    2  502    0  0.40196920212E+01  0.18598292079E+02 -0.15660569382E+03  0.15781276922E+03  0.41800000000E+01 0. -1.
         -5    1    1    2    0  502 -0.15457948007E+02 -0.11913772413E+03 -0.24374014652E+02  0.12265525043E+03  0.41800000000E+01 0.  1.
        -11    1    1    2    0    0 -0.34068732778E+02  0.72785701867E+02 -0.11855841333E+03  0.14322895769E+03  0.00000000000E+00 0. -1.
         11    1    1    2    0    0  0.45506988764E+02  0.27753730189E+02 -0.13031898849E+03  0.14079841734E+03  0.00000000000E+00 0.  1.
</event>
<event>
 6    1  0.6597032E-006  0.1102107E+03  0.7561462E-02  0.1260180E+00
          1   -1    0    0  501    0  0.00000000000E+00  0.00000000000E+00  0.57668701136E+02  0.57668701136E+02  0.00000000000E+00 0. -1.
         -1   -1    0    0    0  501 -0.00000000000E+00 -0.00000000000E+00 -0.25140684731E+03  0.25140684731E+03  0.00000000000E+00 0.  1.
          5    1    1    2  502    0 -0.22487045650E+02  0.64011011830E+02 -0.52764331725E+02  0.86050124695E+02  0.41800000000E+01 0. -1.
         -5    1    1    2    0  502 -0.17325047283E+02 -0.55211782873E+02 -0.99527452693E+02  0.11520279715E+03  0.41800000000E+01 0. -1.
        -11    1    1    2    0    0  0.41466919525E+02  0.32754754096E+02 -0.60063899458E+01  0.53183230918E+02  0.00000000000E+00 0. -1.
         11    1    1    2    0    0 -0.16548265914E+01 -0.41553983053E+02 -0.35439971807E+02  0.54639395680E+02  0.00000000000E+00 0.  1.
</event>
<event>
 6    1  0.6597032E-006  0.2050230E+03  0.7561462E-02  0.1145569E+00
          1   -1    0    0  501    0  0.00000000000E+00  0.00000000000E+00  0.70135361261E+02  0.70135361261E+02  0.00000000000E+00 0. -1.
         -1   -1    0    0    0  501 -0.00000000000E+00 -0.00000000000E+00 -0.10901213291E+04  0.10901213291E+04  0.00000000000E+00 0.  1.
          5    1    1    2  502    0 -0.89786661096E+02  0.10025337434E+03 -0.39314285376E+03  0.41556125835E+03  0.41800000000E+01 0. -1.
         -5    1    1    2    0  502 -0.58815253856E+02 -0.12520739334E+02 -0.59223783195E+02  0.84504034789E+02  0.41800000000E+01 0. -1.
        -11    1    1    2    0    0  0.23227738820E+02 -0.86683869955E+02 -0.51740685975E+03  0.52513186884E+03  0.00000000000E+00 0.  1.
         11    1    1    2    0    0  0.12537417613E+03 -0.10487650543E+01 -0.50212471139E+02  0.13505952838E+03  0.00000000000E+00 0. -1.
</event>
<event>
 6    1  0.6597032E-006  0.1355469E+03  0.7561462E-02  0.1219450E+00
          2   -1    0    0  501    0  0.00000000000E+00  0.00000000000E+00  0.19887754692E+03  0.19887754692E+03  0.00000000000E+00 0. -1.
         -2   -1    0    0    0  501 -0.00000000000E+00 -0.00000000000E+00 -0.93585475298E+02  0.93585475298E+02  0.00000000000E+00 0.  1.
          5    1    1    2  502    0  0.49755565414E+02 -0.30699446726E+02  0.10567441343E+02  0.59558505148E+02  0.41800000000E+01 0. -1.
         -5    1    1    2    0  502 -0.10981186035E+03  0.17316277690E+01  0.54668048627E+02  0.12275060549E+03  0.41800000000E+01 0.  1.
        -11    1    1    2    0    0  0.77422666531E+02  0.12094691489E+02  0.31857661503E+02  0.84589960701E+02  0.00000000000E+00 0. -1.
         11    1    1    2    0    0 -0.17366371596E+02  0.16873127468E+02  0.81989201540E+01  0.25563950882E+02  0.00000000000E+00 0.  1.
</event>
<event>
 6    1  0.6597032E-006  0.1276836E+03  0.7561462E-02  0.1230934E+00
         -1   -1    0    0    0  501 -0.00000000000E+00  0.00000000000E+00  0.58279200224E+02  0.58279200224E+02  0.00000000000E+00 0.  1.
          1   -1    0    0  501    0  0.00000000000E+00 -0.00000000000E+00 -0.37431576702E+03  0.37431576702E+03  0.00000000000E+00 0. -1.
          5    1    1    2  502    0 -0.29756072544E+02 -0.68745186299E+01 -0.28731406374E+02  0.42138450041E+02  0.41800000000E+01 0.  1.
         -5    1    1    2    0  502  0.12701857250E+03  0.69339837995E+01 -0.14866901109E+03  0.19570831650E+03  0.41800000000E+01 0.  1.
        -11    1    1    2    0    0 -0.19406561499E+02 -0.35479463381E+00  0.13639783783E+02  0.23723073369E+02  0.00000000000E+00 0.  1.
         11    1    1    2    0    0 -0.77855938454E+02  0.29532946412E+00 -0.15227593312E+03  0.17102512733E+03  0.00000000000E+00 0. -1.
</event>
<event>
 6    1  0.6597032E-006  0.9416170E+02  0.7561462E-02  0.1293075E+00
          1   -1    0    0  501    0  0.00000000000E+00  0.00000000000E+00  0.45100996911E+03  0.45100996911E+03  0.00000000000E+00 0. -1.
         -1   -1    0    0    0  501 -0.00000000000E+00 -0.00000000000E+00 -0.14084018912E+03  0.14084018912E+03  0.00000000000E+00 0.  1.
          5    1    1    2  502    0 -0.28107866272E+02 -0.26039870789E+02 -0.94779418451E+02  0.10231684895E+03  0.41800000000E+01 0. -1.
         -5    1    1    2    0  502  0.51549040304E+02  0.20158386603E+02 -0.16216217480E+02  0.57828212977E+02  0.41800000000E+01 0.  1.
        -11    1    1    2    0    0  0.27269678152E+02  0.27876434684E+02  0.19725905472E+03  0.20107676551E+03  0.00000000000E+00 0.  1.
         11    1    1    2    0    0 -0.50710852185E+02 -0.21994950498E+02  0.22390636120E+03  0.23062833079E+03  0.00000000000E+00 0. -1.
</event>
<event>
 6    1  0.6597032E-006  0.3073707E+03  0.7561462E-02  0.1081613E+00
         -1   -1    0    0    0  501 -0.00000000000E+00  0.00000000000E+00  0.30798351554E+03  0.30798351554E+03  0.00000000000E+00 0. -1.
          1   -1    0    0  501    0  0.00000000000E+00 -0.00000000000E+00 -0.37256612702E+03  0.37256612702E+03  0.00000000000E+00 0.  1.
          5    1    1    2  502    0 -0.17514432707E+03 -0.29020632109E+02  0.64109007310E+02  0.18879928392E+03  0.41800000000E+01 0. -1.
         -5    1    1    2    0  502 -0.81779586250E+02 -0.11573588354E+03  0.28049769725E+02  0.14452320730E+03  0.41800000000E+01 0. -1.
        -11    1    1    2    0    0  0.22084269836E+03  0.13098003157E+03 -0.16818921461E+03  0.30694442168E+03  0.00000000000E+00 0.  1.
         11    1    1    2    0    0  0.36081214953E+02  0.13776484083E+02  0.11447826090E+02  0.40282729654E+02  0.00000000000E+00 0. -1.
</event>
<event>
 6    1  0.6597032E-006  0.1143597E+03  0.7561462E-02  0.1252703E+00
         -1   -1    0    0    0  501 -0.00000000000E+00  0.00000000000E+00  0.24881106230E+02  0.24881106230E+02  0.00000000000E+00 0.  1.
          1   -1    0    0  501    0  0.00000000000E+00 -0.00000000000E+00 -0.98827229382E+03  0.98827229382E+03  0.00000000000E+00 0. -1.
          5    1    1    2  502    0  0.20741881092E+02  0.40768781043E+02 -0.30422486238E+03  0.30767281068E+03  0.41800000000E+01 0.  1.
         -5    1    1    2    0  502  0.23307791638E+02  0.42861913966E+02 -0.20814347702E+02  0.53208141201E+02  0.41800000000E+01 0.  1.
        -11    1    1    2    0    0 -0.67124931348E+02 -0.26433036486E+02 -0.32548373418E+03  0.33338284755E+03  0.00000000000E+00 0. -1.
         11    1    1    2    0    0  0.23075258618E+02 -0.57197658524E+02 -0.31286824333E+03  0.31888960062E+03  0.00000000000E+00 0.  1.
</event>
<event>
 6    1  0.1049540E-005  0.1326328E+03  0.7561462E-02  0.1223601E+00
         -2   -1    0    0    0  501 -0.00000000000E+00  0.00000000000E+00  0.13351480316E+02  0.13351480316E+02  0.00000000000E+00 0.  1.
          2   -1    0    0  501    0  0.00000000000E+00 -0.00000000000E+00 -0.17216001882E+04  0.17216001882E+04  0.00000000000E+00 0. -1.
          5    1    1    2  502    0 -0.38396581216E+01  0.12250708643E+02 -0.48092870493E+03  0.48111819178E+03  0.41800000000E+01 0.  1.
         -5    1    1    2    0  502  0.10392664778E+03 -0.43889015803E+02 -0.44477314217E+03  0.45887646946E+03  0.41800000000E+01 0.  1.
        -11    1    1    2    0    0 -0.49835299158E+01 -0.26793362767E+02 -0.11841674346E+03  0.12151232444E+03  0.00000000000E+00 0.  1.
         11    1    1    2    0    0 -0.95103459744E+02  0.58431669927E+02 -0.66413011730E+03  0.67344468282E+03  0.00000000000E+00 0. -1.
</event>
<event>
 6    1  0.6597032E-006  0.1049185E+03  0.7561462E-02  0.1270280E+00
         -2   -1    0    0    0  501 -0.00000000000E+00  0.00000000000E+00  0.54138117505E+02  0.54138117505E+02  0.00000000000E+00 0.  1.
          2   -1    0    0  501    0  0.00000000000E+00 -0.00000000000E+00 -0.24477991959E+03  0.24477991959E+03  0.00000000000E+00 0. -1.
          5    1    1    2  502    0  0.25835534193E+01 -0.58036020442E+02 -0.44522034341E+01  0.58413602289E+02  0.41800000000E+01 0. -1.
         -5    1    1    2    0  502  0.26476899553E+02  0.48623879928E+02 -0.73365566985E+02  0.92006992822E+02  0.41800000000E+01 0. -1.
        -11    1    1    2    0    0 -0.53081756250E+02  0.32919412536E+02 -0.80249229068E+02  0.10169217932E+03  0.00000000000E+00 0.  1.
         11    1    1    2    0    0  0.24021303278E+02 -0.23507272022E+02 -0.32574802602E+02  0.46805262670E+02  0.00000000000E+00 0. -1.
</event>
<event>
 6    1  0.6597032E-006  0.7015846E+02  0.7561462E-02  0.1359555E+00
         -2   -1    0    0    0  501 -0.00000000000E+00  0.00000000000E+00  0.52310984078E+03  0.52310984078E+03  0.00000000000E+00 0.  1.
          2   -1    0    0  501    0  0.00000000000E+00 -0.00000000000E+00 -0.89380360979E+02  0.89380360979E+02  0.00000000000E+00 0. -1.
          5    1    1    2  502    0  0.12556037935E+02 -0.22543809340E+02 -0.26009260456E+02  0.36875892635E+02  0.41800000000E+01 0. -1.
         -5    1    1    2    0  502 -0.44918885579E+02  0.17546726814E+01  0.47411037598E+03  0.47625508519E+03  0.41800000000E+01 0.  1.
        -11    1    1    2    0    0 -0.42719132048E+01 -0.16327836601E+02  0.27643700763E+02  0.32388604205E+02  0.00000000000E+00 0. -1.
         11    1    1    2    0    0  0.36634760848E+02  0.37116973260E+02 -0.42015336488E+02  0.66970619727E+02  0.00000000000E+00 0.  1.
</event>
<event>
 6    1  0.6597032E-006  0.9145548E+02  0.7561462E-02  0.1299365E+00
         -1   -1    0    0    0  501 -0.00000000000E+00  0.00000000000E+00  0.24142091387E+03  0.24142091387E+03  0.00000000000E+00 0.  1.
          1   -1    0    0  501    0  0.00000000000E+00 -0.00000000000E+00 -0.56238078402E+02  0.56238078402E+02  0.00000000000E+00 0. -1.
          5    1    1    2  502    0  0.55351506623E+02 -0.44827459210E+02  0.14808673508E+03  0.16437896426E+03  0.41800000000E+01 0. -1.
         -5    1    1    2    0  502 -0.74337865680E+01  0.21675810401E+02 -0.13492995126E+02  0.26919050072E+02  0.41800000000E+01 0. -1.
        -11    1    1    2    0    0 -0.70952016406E+01  0.42503073979E+02  0.42389357186E+02  0.60445932755E+02  0.00000000000E+00 0.  1.
         11    1    1    2    0    0 -0.40822518415E+02 -0.19351425170E+02  0.81997383302E+01  0.45915045187E+02  0.00000000000E+00 0. -1.
</event>
<event>
 6    1  0.6597032E-006  0.1397379E+03  0.7561462E-02  0.1213682E+00
          2   -1    0    0  501    0  0.00000000000E+00  0.00000000000E+00  0.11471762221E+03  0.11471762221E+03  0.00000000000E+00 0. -1.
         -2   -1    0    0    0  501 -0.00000000000E+00 -0.00000000000E+00 -0.21132823473E+03  0.21132823473E+03  0.00000000000E+00 0.  1.
          5    1    1    2  502    0  0.62608400463E+02  0.26608706932E+02 -0.47016185892E+02  0.82799934957E+02  0.41800000000E+01 0. -1.
         -5    1    1    2    0  502  0.25345209631E+02 -0.90668707229E+02 -0.21928959281E+02  0.96755081401E+02  0.41800000000E+01 0. -1.
        -11    1    1    2    0    0 -0.40765298839E+02  0.43795085348E+01 -0.52359114893E+02  0.66501628528E+02  0.00000000000E+00 0.  1.
         11    1    1    2    0    0 -0.47188311255E+02  0.59680491762E+02  0.24693647551E+02  0.79989212056E+02  0.00000000000E+00 0. -1.
</event>
<event>
 6    1  0.6597032E-006  0.9120042E+02  0.7561462E-02  0.1299970E+00
          1   -1    0    0  501    0  0.00000000000E+00  0.00000000000E+00  0.44222121034E+03  0.44222121034E+03  0.00000000000E+00 0. -1.
         -1   -1    0    0    0  501 -0.00000000000E+00 -0.00000000000E+00 -0.37617125459E+02  0.37617125459E+02  0.00000000000E+00 0.  1.
          5    1    1    2  502    0  0.49279555421E+02  0.79892717292E+01  0.21789649078E+03  0.22358143067E+03  0.41800000000E+01 0. -1.
         -5    1    1    2    0  502 -0.42127620643E+02 -0.25556525252E+02  0.24242399954E+01  0.49509814619E+02  0.41800000000E+01 0.  1.
        -11    1    1    2    0    0  0.10352598903E+02 -0.30228655686E+02  0.28349179857E+02  0.42715616900E+02  0.00000000000E+00 0.  1.
         11    1    1    2    0    0 -0.17504533680E+02  0.47795909209E+02  0.15593417425E+03  0.16403147361E+03  0.00000000000E+00 0. -1.
</event>
<event>
 6    1  0.6597032E-006  0.1034134E+03  0.7561462E-02  0.1273278E+00
          1   -1    0    0  501    0  0.00000000000E+00  0.00000000000E+00  0.59970517779E+03  0.59970517779E+03  0.00000000000E+00 0. -1.
         -1   -1    0    0    0  501 -0.00000000000E+00 -0.00000000000E+00 -0.32034624993E+02  0.32034624993E+02  0.00000000000E+00 0.  1.
          5    1    1    2  502    0  0.50283633312E+02  0.35183233709E+02  0.24565376631E+02  0.66236197372E+02  0.41800000000E+01 0. -1.
         -5    1    1    2    0  502  0.27873056470E+02  0.45997932269E+01  0.22196095253E+03  0.22379053202E+03  0.41800000000E+01 0. -1.
        -11    1    1    2    0    0 -0.24002401003E+02  0.23413842650E+02  0.94149031813E+02  0.99941800429E+02  0.00000000000E+00 0.  1.
         11    1    1    2    0    0 -0.54154288778E+02 -0.63196869587E+02  0.22699519182E+03  0.24177127296E+03  0.00000000000E+00 0. -1.
</event>
<event>
 6    1  0.6597032E-006  0.1300009E+03  0.7561462E-02  0.1227454E+00
         -2   -1    0    0    0  501 -0.00000000000E+00  0.00000000000E+00  0.53823188207E+02  0.53823188207E+02  0.00000000000E+00 0.  1.
          2   -1    0    0  501    0  0.00000000000E+00 -0.00000000000E+00 -0.51978883966E+03  0.51978883966E+03  0.00000000000E+00 0. -1.
          5    1    1    2  502    0 -0.99155039603E+02  0.63206532740E+01 -0.24700181958E+03  0.26626874359E+03  0.41800000000E+01 0. -1.
         -5    1    1    2    0  502 -0.26790820377E+02  0.16198387796E+02  0.77226671938E+01  0.32515347334E+02  0.41800000000E+01 0. -1.
        -11    1    1    2    0    0  0.11411407508E+02  0.26279999607E+01  0.68058271497E+01  0.13544219737E+02  0.00000000000E+00 0.  1.
         11    1    1    2    0    0  0.11453445247E+03 -0.25147041031E+02 -0.23349232621E+03  0.26128371720E+03  0.00000000000E+00 0. -1.
</event>
<event>
 6    1  0.6597032E-006  0.1276866E+03  0.7561462E-02  0.1230929E+00
          1   -1    0    0  501    0  0.00000000000E+00  0.00000000000E+00  0.15259958247E+03  0.15259958247E+03  0.00000000000E+00 0. -1.
         -1   -1    0    0    0  501 -0.00000000000E+00 -0.00000000000E+00 -0.13325796980E+03  0.13325796980E+03  0.00000000000E+00 0.  1.
          5    1    1    2  502    0 -0.21594887071E+02 -0.16260678193E+02  0.19137148468E+02  0.33383403877E+02  0.41800000000E+01 0.  1.
         -5    1    1    2    0  502  0.66191608318E+02  0.10277068768E+03 -0.27335782673E+02  0.12533100443E+03  0.41800000000E+01 0.  1.
        -11    1    1    2    0    0 -0.47652318858E+02 -0.50008126443E+02 -0.15328233786E+02  0.70756702537E+02  0.00000000000E+00 0.  1.
         11    1    1    2    0    0  0.30555976111E+01 -0.36501883045E+02  0.42868480654E+02  0.56386441422E+02  0.00000000000E+00 0. -1.
</event>
<event>
 6    1  0.6597032E-006  0.8200353E+02  0.7561462E-02  0.1323460E+00
         -1   -1    0    0    0  501 -0.00000000000E+00  0.00000000000E+00  0.35267702114E+03  0.35267702114E+03  0.00000000000E+00 0.  1.
          1   -1    0    0  501    0  0.00000000000E+00 -0.00000000000E+00 -0.40662082151E+02  0.40662082151E+02  0.00000000000E+00 0. -1.
          5    1    1    2  502    0  0.36531144190E+02 -0.29077108265E+02  0.35881134206E+02  0.59033303421E+02  0.41800000000E+01 0.  1.
         -5    1    1    2    0  502 -0.58098026497E+02  0.13690056039E+02  0.20666195795E+03  0.21514979800E+03  0.41800000000E+01 0.  1.
        -11    1    1    2    0    0  0.62134898711E+01  0.33200857493E+02  0.84667637135E+02  0.91156531158E+02  0.00000000000E+00 0.  1.
         11    1    1    2    0    0  0.15353392436E+02 -0.17813805267E+02 -0.15195790299E+02  0.27999470713E+02  0.00000000000E+00 0. -1.
</event>
<event>
 6    1  0.6597032E-006  0.1187762E+03  0.7561462E-02  0.1245130E+00
         -2   -1    0    0    0  501 -0.00000000000E+00  0.00000000000E+00  0.99590915184E+02  0.99590915184E+02  0.00000000000E+00 0.  1.
          2   -1    0    0  501    0  0.00000000000E+00 -0.00000000000E+00 -0.26795564719E+03  0.26795564719E+03  0.00000000000E+00 0. -1.
          5    1    1    2  502    0  0.89085367489E+02  0.13758012783E+01  0.30758400080E+02  0.94348540557E+02  0.41800000000E+01 0. -1.
         -5    1    1    2    0  502  0.21520945625E+02  0.22709405936E+02 -0.73047748339E+02  0.79575839022E+02  0.41800000000E+01 0. -1.
        -11    1    1    2    0    0 -0.18486658984E+02 -0.15770309232E+02 -0.91832297815E+02  0.94992789914E+02  0.00000000000E+00 0.  1.
         11    1    1    2    0    0 -0.92119654131E+02 -0.83148979826E+01 -0.34243085928E+02  0.98629392878E+02  0.00000000000E+00 0. -1.
</event>
<event>
 6    1  0.6597032E-006  0.1216177E+03  0.7561462E-02  0.1240452E+00
         -2   -1    0    0    0  501 -0.00000000000E+00  0.00000000000E+00  0.12721884736E+03  0.12721884736E+03  0.00000000000E+00 0.  1.
          2   -1    0    0  501    0  0.00000000000E+00 -0.00000000000E+00 -0.28686859038E+03  0.28686859038E+03  0.00000000000E+00 0. -1.
          5    1    1    2  502    0 -0.72527541158E+01  0.86582393429E+01 -0.30383137489E+02  0.32682946539E+02  0.41800000000E+01 0.  1.
         -5    1    1    2    0  502  0.11201692315E+03 -0.30171052080E+02  0.73679414703E+02  0.13749258891E+03  0.41800000000E+01 0.  1.
        -11    1    1    2    0    0 -0.61936379998E+02 -0.89105068003E+01 -0.43962319454E+02  0.76473510645E+02  0.00000000000E+00 0.  1.
         11    1    1    2    0    0 -0.42827789033E+02  0.30423319538E+02 -0.15898370078E+03  0.16743839165E+03  0.00000000000E+00 0. -1.
</event>
<event>
 6    1  0.6597032E-006  0.1314942E+03  0.7561462E-02  0.1225255E+00
         -2   -1    0    0    0  501 -0.00000000000E+00  0.00000000000E+00  0.28978413067E+03  0.28978413067E+03  0.00000000000E+00 0.  1.
          2   -1    0    0  501    0  0.00000000000E+00 -0.00000000000E+00 -0.84725709044E+02  0.84725709044E+02  0.00000000000E+00 0. -1.
          5    1    1    2  502    0  0.75976043458E+02 -0.98660655100E+02  0.57174968084E+02  0.13708659096E+03  0.41800000000E+01 0.  1.
         -5    1    1    2    0  502 -0.14302338926E+02  0.67999791801E+01  0.72589551356E+02  0.74414460837E+02  0.41800000000E+01 0.  1.
        -11    1    1    2    0    0 -0.21179196762E+02 -0.48102108427E+00 -0.16345021179E+02  0.26757232184E+02  0.00000000000E+00 0. -1.
         11    1    1    2    0    0 -0.40494507770E+02  0.92341697004E+02  0.91638923363E+02  0.13625155574E+03  0.00000000000E+00 0.  1.
</event>
<event>
 6    1  0.6597032E-006  0.8654107E+02  0.7561462E-02  0.1311451E+00
         -2   -1    0    0    0  501 -0.00000000000E+00  0.00000000000E+00  0.21384057693E+03  0.21384057693E+03  0.00000000000E+00 0. -1.
          2   -1    0    0  501    0  0.00000000000E+00 -0.00000000000E+00 -0.40790336405E+02  0.40790336405E+02  0.00000000000E+00 0.  1.
          5    1    1    2  502    0  0.44100508306E+02  0.66669975738E+02  0.68060952817E+02  0.10506905442E+03  0.41800000000E+01 0.  1.
         -5    1    1    2    0  502 -0.37446230753E+02 -0.15184791524E+02  0.81232083188E+02  0.90823575300E+02  0.41800000000E+01 0. -1.
        -11    1    1    2    0    0  0.95377924135E+00 -0.19980619667E+02  0.29394972511E+01  0.20218197278E+02  0.00000000000E+00 0. -1.
         11    1    1    2    0    0 -0.76080567947E+01 -0.31504564547E+02  0.20817707265E+02  0.38520086335E+02  0.00000000000E+00 0.  1.
</event>
<event>
 6    1  0.6597032E-006  0.9971407E+02  0.7561462E-02  0.1280898E+00
          1   -1    0    0  501    0  0.00000000000E+00  0.00000000000E+00  0.49311294016E+03  0.49311294016E+03  0.00000000000E+00 0. -1.
         -1   -1    0    0    0  501 -0.00000000000E+00 -0.00000000000E+00 -0.28288230216E+02  0.28288230216E+02  0.00000000000E+00 0.  1.
          5    1    1    2  502    0  0.12104022525E+02 -0.43094208329E+02  0.33943338839E+02  0.56331525847E+02  0.41800000000E+01 0. -1.
         -5    1    1    2    0  502 -0.36242185654E+01  0.60905575636E+02  0.20724500878E+03  0.21608005500E+03  0.41800000000E+01 0. -1.
        -11    1    1    2    0    0 -0.12548426214E+02  0.36631193024E+02  0.16239138907E+03  0.16694391438E+03  0.00000000000E+00 0. -1.
         11    1    1    2    0    0  0.40686222541E+01 -0.54442560331E+02  0.61244973253E+02  0.82045675153E+02  0.00000000000E+00 0.  1.
</event>
<event>
 6    1  0.6597032E-006  0.1721730E+03  0.7561462E-02  0.1175601E+00
          2   -1    0    0  501    0  0.00000000000E+00  0.00000000000E+00  0.37913611456E+03  0.37913611456E+03  0.00000000000E+00 0. -1.
         -2   -1    0    0    0  501 -0.00000000000E+00 -0.00000000000E+00 -0.86720382017E+02  0.86720382017E+02  0.00000000000E+00 0.  1.
          5    1    1    2  502    0  0.10043075687E+03 -0.34631450626E+02  0.38220069041E+02  0.11297752155E+03  0.41800000000E+01 0. -1.
         -5    1    1    2    0  502  0.33685340926E+02  0.69737252668E+02  0.59649780330E+02  0.97844546584E+02  0.41800000000E+01 0. -1.
        -11    1    1    2    0    0 -0.57340985535E+02 -0.56777682550E+02  0.68419924619E+02  0.10579688059E+03  0.00000000000E+00 0.  1.
         11    1    1    2    0    0 -0.76775112262E+02  0.21671880509E+02  0.12612595855E+03  0.14923754785E+03  0.00000000000E+00 0. -1.
</event>
<event>
 6    1  0.6597032E-006  0.1173125E+03  0.7561462E-02  0.1247598E+00
         -1   -1    0    0    0  501 -0.00000000000E+00  0.00000000000E+00  0.10845039001E+03  0.10845039001E+03  0.00000000000E+00 0.  1.
          1   -1    0    0  501    0  0.00000000000E+00 -0.00000000000E+00 -0.15197611914E+03  0.15197611914E+03  0.00000000000E+00 0. -1.
          5    1    1    2  502    0 -0.54607476196E+02 -0.55433222783E+01  0.22333289196E+02  0.59404992086E+02  0.41800000000E+01 0.  1.
         -5    1    1    2    0  502  0.29075027220E+02  0.67815241453E+02 -0.39146378339E+02  0.83631187473E+02  0.41800000000E+01 0.  1.
        -11    1    1    2    0    0 -0.59796843507E+01 -0.72344807118E+02  0.33776527789E+01  0.72670050779E+02  0.00000000000E+00 0.  1.
         11    1    1    2    0    0  0.31512133327E+02  0.10072887944E+02 -0.30090292772E+02  0.44720278816E+02  0.00000000000E+00 0. -1.
</event>
<event>
 6    1  0.6597032E-006  0.1515730E+03  0.7561462E-02  0.1198553E+00
         -2   -1    0    0    0  501 -0.00000000000E+00  0.00000000000E+00  0.11116317758E+03  0.11116317758E+03  0.00000000000E+00 0.  1.
          2   -1    0    0  501    0  0.00000000000E+00 -0.00000000000E+00 -0.39051112249E+03  0.39051112249E+03  0.00000000000E+00 0. -1.
          5    1    1    2  502    0  0.91846921476E+01 -0.19363701907E+02  0.42429584074E+02  0.47718482018E+02  0.41800000000E+01 0. -1.
         -5    1    1    2    0  502 -0.29286807278E+02 -0.12714971979E+03 -0.69500146155E+02  0.14789358011E+03  0.41800000000E+01 0. -1.
        -11    1    1    2    0    0  0.20930597057E+02  0.49443510954E+02 -0.17171507031E+03  0.17991335704E+03  0.00000000000E+00 0. -1.
         11    1    1    2    0    0 -0.82848192679E+00  0.97069910742E+02 -0.80562312514E+02  0.12614888090E+03  0.00000000000E+00 0.  1.
</event>
<event>
 6    1  0.6597032E-006  0.1005007E+03  0.7561462E-02  0.1279246E+00
          1   -1    0    0  501    0  0.00000000000E+00  0.00000000000E+00  0.38533703168E+03  0.38533703168E+03  0.00000000000E+00 0. -1.
         -1   -1    0    0    0  501 -0.00000000000E+00 -0.00000000000E+00 -0.48389653530E+02  0.48389653530E+02  0.00000000000E+00 0.  1.
          5    1    1    2  502    0 -0.25099828893E+02 -0.39155518358E+02  0.29434802779E+01  0.46789876090E+02  0.41800000000E+01 0.  1.
         -5    1    1    2    0  502  0.51471962143E+02 -0.38275544109E+02  0.17024147315E+03  0.18197255767E+03  0.41800000000E+01 0.  1.
        -11    1    1    2    0    0 -0.31865342326E+02  0.35372270341E+02  0.14463946813E+02  0.49757444750E+02  0.00000000000E+00 0.  1.
         11    1    1    2    0    0  0.54932090763E+01  0.42058792125E+02  0.14929847791E+03  0.15520680671E+03  0.00000000000E+00 0. -1.
</event>
<event>
 6    1  0.6597032E-006  0.1281972E+03  0.7561462E-02  0.1230156E+00
         -1   -1    0    0    0  501 -0.00000000000E+00  0.00000000000E+00  0.57439936042E+02  0.57439936042E+02  0.00000000000E+00 0.  1.
          1   -1    0    0  501    0  0.00000000000E+00 -0.00000000000E+00 -0.38328424762E+03  0.38328424762E+03  0.00000000000E+00 0. -1.
          5    1    1    2  502    0  0.12894110999E+02  0.14566390352E+02 -0.90388651708E+02  0.92552788094E+02  0.41800000000E+01 0.  1.
         -5    1    1    2    0  502 -0.38958651999E+02 -0.93678210577E+02 -0.50336817064E+02  0.11333424573E+03  0.41800000000E+01 0.  1.
        -11    1    1    2    0    0  0.25788987944E+02  0.10547900304E+03 -0.17625491776E+03  0.20701856925E+03  0.00000000000E+00 0. -1.
         11    1    1    2    0    0  0.27555305540E+00 -0.26367182811E+02 -0.88639250501E+01  0.27818580592E+02  0.00000000000E+00 0.  1.
</event>
<event>
 6    1  0.6597032E-006  0.7958773E+02  0.7561462E-02  0.1330225E+00
          1   -1    0    0  501    0  0.00000000000E+00  0.00000000000E+00  0.23354783504E+03  0.23354783504E+03  0.00000000000E+00 0. -1.
         -1   -1    0    0    0  501 -0.00000000000E+00 -0.00000000000E+00 -0.64169712943E+02  0.64169712943E+02  0.00000000000E+00 0.  1.
          5    1    1    2  502    0 -0.12133463735E+01 -0.28236937169E+02 -0.35478842180E+02  0.45552359681E+02  0.41800000000E+01 0.  1.
         -5    1    1    2    0  502 -0.94315963078E+01  0.51293406664E+02  0.68688446895E+02  0.86345490403E+02  0.41800000000E+01 0.  1.
        -11    1    1    2    0    0  0.11545354065E+02  0.26402955022E+02  0.10338537695E+02  0.30615300032E+02  0.00000000000E+00 0.  1.
         11    1    1    2    0    0 -0.90041138401E+00 -0.49459424518E+02  0.12582997969E+03  0.13520439787E+03  0.00000000000E+00 0. -1.
</event>
<event>
 6    1  0.6597032E-006  0.1284052E+03  0.7561462E-02  0.1229841E+00
          4   -1    0    0  501    0  0.00000000000E+00  0.00000000000E+00  0.11233030018E+04  0.11233030018E+04  0.00000000000E+00 0. -1.
         -4   -1    0    0    0  501 -0.00000000000E+00 -0.00000000000E+00 -0.15089574838E+02  0.15089574838E+02  0.00000000000E+00 0.  1.
          5    1    1    2  502    0 -0.21652164092E+02 -0.56024863523E+02  0.19512843819E+03  0.20420622257E+03  0.41800000000E+01 0. -1.
         -5    1    1    2    0  502 -0.53111340478E+02  0.59258403881E+02  0.33586821246E+03  0.34519168799E+03  0.41800000000E+01 0.  1.
        -11    1    1    2    0    0 -0.10736585886E+01  0.32895088058E+02  0.18149578120E+03  0.18445584338E+03  0.00000000000E+00 0. -1.
         11    1    1    2    0    0  0.75837163158E+02 -0.36128628416E+02  0.39572099511E+03  0.40453882270E+03  0.00000000000E+00 0.  1.
</event>
<event>
 6    1  0.6597032E-006  0.9803677E+02  0.7561462E-02  0.1284479E+00
         -1   -1    0    0    0  501 -0.00000000000E+00  0.00000000000E+00  0.30200251277E+02  0.30200251277E+02  0.00000000000E+00 0.  1.
          1   -1    0    0  501    0  0.00000000000E+00 -0.00000000000E+00 -0.36572372299E+03  0.36572372299E+03  0.00000000000E+00 0. -1.
          5    1    1    2  502    0  0.49288932553E+02 -0.73182793279E+00 -0.13019011479E+03  0.13927265645E+03  0.41800000000E+01 0. -1.
         -5    1    1    2    0  502 -0.55716119449E+02 -0.21055737356E+02 -0.60105849370E+02  0.84721989887E+02  0.41800000000E+01 0.  1.
        -11    1    1    2    0    0  0.43843436692E+02  0.22894558333E+02 -0.10963808088E+03  0.12027849567E+03  0.00000000000E+00 0. -1.
         11    1    1    2    0    0 -0.37416249796E+02 -0.11069930448E+01 -0.35589426670E+02  0.51650832259E+02  0.00000000000E+00 0.  1.
</event>
<event>
 6    1  0.6597032E-006  0.2047927E+03  0.7561462E-02  0.1145757E+00
          1   -1    0    0  501    0  0.00000000000E+00  0.00000000000E+00  0.22588572116E+03  0.22588572116E+03  0.00000000000E+00 0. -1.
         -1   -1    0    0    0  501 -0.00000000000E+00 -0.00000000000E+00 -0.24224213752E+03  0.24224213752E+03  0.00000000000E+00 0.  1.
          5    1    1    2  502    0  0.36052492182E+00 -0.69466798395E+02 -0.10570837180E+01  0.69601407195E+02  0.41800000000E+01 0.  1.
         -5    1    1    2    0  502 -0.12580679047E+03 -0.63114328705E+02 -0.10578503724E+03  0.17612130343E+03  0.41800000000E+01 0.  1.
        -11    1    1    2    0    0  0.91513027729E+02  0.38710703756E+02  0.67065775511E+02  0.11987898512E+03  0.00000000000E+00 0. -1.
         11    1    1    2    0    0  0.33933237821E+02  0.93870423344E+02  0.23419929093E+02  0.10252616294E+03  0.00000000000E+00 0.  1.
</event>
<event>
 6    1  0.6597032E-006  0.1002608E+03  0.7561462E-02  0.1279749E+00
         -2   -1    0    0    0  501 -0.00000000000E+00  0.00000000000E+00  0.52693440764E+02  0.52693440764E+02  0.00000000000E+00 0.  1.
          2   -1    0    0  501    0  0.00000000000E+00 -0.00000000000E+00 -0.31401063794E+03  0.31401063794E+03  0.00000000000E+00 0. -1.
          5    1    1    2  502    0  0.14647393800E+01 -0.14045487230E+02 -0.10154523433E+03  0.10260764196E+03  0.41800000000E+01 0.  1.
         -5    1    1    2    0  502  0.40111320417E+02  0.63131261300E+02 -0.73178896715E+01  0.75269503042E+02  0.41800000000E+01 0.  1.
        -11    1    1    2    0    0 -0.80915546944E+01 -0.70612189519E+02 -0.10637812073E+03  0.12793693421E+03  0.00000000000E+00 0.  1.
         11    1    1    2    0    0 -0.33484505103E+02  0.21526415449E+02 -0.46075952442E+02  0.60889999487E+02  0.00000000000E+00 0. -1.
</event>
<event>
 6    1  0.6597032E-006  0.1628090E+03  0.7561462E-02  0.1185561E+00
         -2   -1    0    0    0  501 -0.00000000000E+00  0.00000000000E+00  0.32588131704E+03  0.32588131704E+03  0.00000000000E+00 0.  1.
          2   -1    0    0  501    0  0.00000000000E+00 -0.00000000000E+00 -0.89434683020E+02  0.89434683020E+02  0.00000000000E+00 0. -1.
          5    1    1    2  502    0  0.17535381168E+02  0.11483622746E+03  0.31327059196E+02  0.12038980758E+03  0.41800000000E+01 0.  1.
         -5    1    1    2    0  502  0.54202934845E+02 -0.14588328554E+02  0.40561561857E+02  0.69379320954E+02  0.41800000000E+01 0.  1.
        -11    1    1    2    0    0  0.13662468772E+02 -0.54539612404E+02  0.47456579781E+02  0.73575534919E+02  0.00000000000E+00 0.  1.
         11    1    1    2    0    0 -0.85400784784E+02 -0.45708286503E+02  0.11710143318E+03  0.15197133661E+03  0.00000000000E+00 0. -1.
</event>
<event>
 6    1  0.6597032E-006  0.1054514E+03  0.7561462E-02  0.1269233E+00
         -2   -1    0    0    0  501 -0.00000000000E+00  0.00000000000E+00  0.43504665880E+02  0.43504665880E+02  0.00000000000E+00 0.  1.
          2   -1    0    0  501    0  0.00000000000E+00 -0.00000000000E+00 -0.29013741502E+03  0.29013741502E+03  0.00000000000E+00 0. -1.
          5    1    1    2  502    0 -0.63807501396E+02 -0.30279894589E+02 -0.37616893442E+02  0.80129721845E+02  0.41800000000E+01 0.  1.
         -5    1    1    2    0  502  0.44837081843E+02  0.13889287294E+02 -0.82967931359E+02  0.95417117142E+02  0.41800000000E+01 0.  1.
        -11    1    1    2    0    0  0.27420663357E+02  0.50728074619E+02 -0.60259157965E+02  0.83405014550E+02  0.00000000000E+00 0.  1.
         11    1    1    2    0    0 -0.84502438040E+01 -0.34337467324E+02 -0.65788766375E+02  0.74690227364E+02  0.00000000000E+00 0. -1.
</event>
<event>
 6    1  0.6597032E-006  0.1988838E+03  0.7561462E-02  0.1150684E+00
          2   -1    0    0  501    0  0.00000000000E+00  0.00000000000E+00  0.56946003333E+03  0.56946003333E+03  0.00000000000E+00 0. -1.
         -2   -1    0    0    0  501 -0.00000000000E+00 -0.00000000000E+00 -0.16994666674E+03  0.16994666674E+03  0.00000000000E+00 0.  1.
          5    1    1    2  502    0 -0.15373455129E+03 -0.17329986856E+01  0.38170159584E+03  0.41152265577E+03  0.41800000000E+01 0. -1.
         -5    1    1    2    0  502  0.16467344853E+03 -0.34023311268E+02 -0.81301131733E+02  0.18682151049E+03  0.41800000000E+01 0.  1.
        -11    1    1    2    0    0 -0.34959977981E+02  0.38002581914E+02  0.15314482727E+02  0.53860279184E+02  0.00000000000E+00 0.  1.
         11    1    1    2    0    0  0.24021080740E+02 -0.22462719604E+01  0.83798419761E+02  0.87202254628E+02  0.00000000000E+00 0. -1.
</event>
<event>
 6    1  0.6597032E-006  0.1026427E+03  0.7561462E-02  0.1274835E+00
         -4   -1    0    0    0  501 -0.00000000000E+00  0.00000000000E+00  0.13149264285E+03  0.13149264285E+03  0.00000000000E+00 0.  1.
          4   -1    0    0  501    0  0.00000000000E+00 -0.00000000000E+00 -0.10122132777E+03  0.10122132777E+03  0.00000000000E+00 0. -1.
          5    1    1    2  502    0 -0.39622224912E+02 -0.86553035355E+01 -0.16985249766E+02  0.44167930627E+02  0.41800000000E+01 0. -1.
         -5    1    1    2    0  502  0.34229104210E+02  0.51949905777E+02  0.57661172287E+02  0.84927660246E+02  0.41800000000E+01 0.  1.
        -11    1    1    2    0    0  0.27942987679E+02  0.20396929642E+02 -0.10145100538E+02  0.36052300401E+02  0.00000000000E+00 0.  1.
         11    1    1    2    0    0 -0.22549866977E+02 -0.63691531884E+02 -0.25950691306E+00  0.67566079347E+02  0.00000000000E+00 0. -1.
</event>
<event>
 6    1  0.6597032E-006  0.1557825E+03  0.7561462E-02  0.1193542E+00
         -2   -1    0    0    0  501 -0.00000000000E+00  0.00000000000E+00  0.45780206192E+02  0.45780206192E+02  0.00000000000E+00 0.  1.
          2   -1    0    0  501    0  0.00000000000E+00 -0.00000000000E+00 -0.66592704717E+03  0.66592704717E+03  0.00000000000E+00 0. -1.
          5    1    1    2  502    0 -0.52422606847E+02  0.66877713470E+01 -0.16581444013E+03  0.17408261530E+03  0.41800000000E+01 0.  1.
         -5    1    1    2    0  502 -0.19192958232E+02  0.10312520199E+03 -0.83568528925E+02  0.13418028305E+03  0.41800000000E+01 0.  1.
        -11    1    1    2    0    0  0.27654369775E+02 -0.10588508877E+03 -0.21094527967E+03  0.23764327722E+03  0.00000000000E+00 0.  1.
         11    1    1    2    0    0  0.43961195305E+02 -0.39278845697E+01 -0.15981859225E+03  0.16580107779E+03  0.00000000000E+00 0. -1.
</event>
<event>
 6    1  0.6597032E-006  0.9918936E+02  0.7561462E-02  0.1282010E+00
         -2   -1    0    0    0  501 -0.00000000000E+00  0.00000000000E+00  0.19154384940E+03  0.19154384940E+03  0.00000000000E+00 0.  1.
          2   -1    0    0  501    0  0.00000000000E+00 -0.00000000000E+00 -0.70106838922E+02  0.70106838922E+02  0.00000000000E+00 0. -1.
          5    1    1    2  502    0  0.68601684004E+02  0.16784479923E+02  0.10511988655E+03  0.12671058663E+03  0.41800000000E+01 0.  1.
         -5    1    1    2    0  502 -0.47221290405E+02  0.29400161413E+02  0.26099815054E+02  0.61586463647E+02  0.41800000000E+01 0.  1.
        -11    1    1    2    0    0  0.96288065363E+01  0.58551826373E+01  0.24988962333E+01  0.11543030859E+02  0.00000000000E+00 0.  1.
         11    1    1    2    0    0 -0.31009200135E+02 -0.52039823973E+02 -0.12281587368E+02  0.61810607184E+02  0.00000000000E+00 0. -1.
</event>
<event>
 6    1  0.6597032E-006  0.7055412E+02  0.7561462E-02  0.1358219E+00
          4   -1    0    0  501    0  0.00000000000E+00  0.00000000000E+00  0.56391138564E+02  0.56391138564E+02  0.00000000000E+00 0. -1.
         -4   -1    0    0    0  501 -0.00000000000E+00 -0.00000000000E+00 -0.24154474342E+03  0.24154474342E+03  0.00000000000E+00 0.  1.
          5    1    1    2  502    0  0.45913182947E-01 -0.48811751884E+02 -0.16315017511E+03  0.17034682641E+03  0.41800000000E+01 0.  1.
         -5    1    1    2    0  502 -0.12860672719E+02  0.22541347634E+02  0.11247005446E+02  0.28591550980E+02  0.41800000000E+01 0.  1.
        -11    1    1    2    0    0  0.15945041769E+02 -0.16500594454E+02 -0.48360503710E+02  0.53528051463E+02  0.00000000000E+00 0.  1.
         11    1    1    2    0    0 -0.31302822329E+01  0.42770998705E+02  0.15110068519E+02  0.45469453128E+02  0.00000000000E+00 0. -1.
</event>
<event>
 6    1  0.6597032E-006  0.1049010E+03  0.7561462E-02  0.1270315E+00
         -2   -1    0    0    0  501 -0.00000000000E+00  0.00000000000E+00  0.55899289266E+02  0.55899289266E+02  0.00000000000E+00 0.  1.
          2   -1    0    0  501    0  0.00000000000E+00 -0.00000000000E+00 -0.24172966735E+03  0.24172966735E+03  0.00000000000E+00 0. -1.
          5    1    1    2  502    0 -0.41678708478E+02 -0.37467299792E+02 -0.37410504281E+02  0.67512454589E+02  0.41800000000E+01 0. -1.
         -5    1    1    2    0  502  0.42923310321E+02  0.50615607035E+02 -0.11757200037E+02  0.67528174840E+02  0.41800000000E+01 0. -1.
        -11    1    1    2    0    0 -0.31737610983E+02  0.23455688709E+02 -0.74071531934E+02  0.83928762214E+02  0.00000000000E+00 0.  1.
         11    1    1    2    0    0  0.30493009140E+02 -0.36603995952E+02 -0.62591141835E+02  0.78659564977E+02  0.00000000000E+00 0. -1.
</event>
<event>
 6    1  0.6597032E-006  0.1082092E+03  0.7561462E-02  0.1263923E+00
         -2   -1    0    0    0  501 -0.00000000000E+00  0.00000000000E+00  0.39728878684E+02  0.39728878684E+02  0.00000000000E+00 0. -1.
          2   -1    0    0  501    0  0.00000000000E+00 -0.00000000000E+00 -0.43724650048E+03  0.43724650048E+03  0.00000000000E+00 0.  1.
          5    1    1    2  502    0  0.73646926542E+02  0.37472248908E+02 -0.13980347780E+03  0.16245160520E+03  0.41800000000E+01 0.  1.
         -5    1    1    2    0  502 -0.24256120643E+02 -0.97539616551E+01  0.82758481343E+01  0.27739163992E+02  0.41800000000E+01 0.  1.
        -11    1    1    2    0    0 -0.29389600704E+02  0.32461015185E+02 -0.10686787725E+03  0.11549116557E+03  0.00000000000E+00 0.  1.
         11    1    1    2    0    0 -0.20001205196E+02 -0.60179302438E+02 -0.15912211487E+03  0.17129344439E+03  0.00000000000E+00 0. -1.
</event>
<event>
 6    1  0.6597032E-006  0.1107900E+03  0.7561462E-02  0.1259114E+00
         -1   -1    0    0    0  501 -0.00000000000E+00  0.00000000000E+00  0.20773426894E+03  0.20773426894E+03  0.00000000000E+00 0.  1.
          1   -1    0    0  501    0  0.00000000000E+00 -0.00000000000E+00 -0.79474724280E+02  0.79474724280E+02  0.00000000000E+00 0. -1.
          5    1    1    2  502    0  0.96542514612E+02  0.38736421438E+00  0.94889530328E+02  0.13543301866E+03  0.41800000000E+01 0. -1.
         -5    1    1    2    0  502 -0.52664154385E+02  0.17570288405E+02  0.47803853960E+02  0.73381939502E+02  0.41800000000E+01 0.  1.
        -11    1    1    2    0    0 -0.19501871459E+02 -0.34626480358E+02 -0.25091569629E+02  0.46998968061E+02  0.00000000000E+00 0. -1.
         11    1    1    2    0    0 -0.24376488768E+02  0.16668827738E+02  0.10657730004E+02  0.31395066996E+02  0.00000000000E+00 0.  1.
</event>
<event>
 6    1  0.6597032E-006  0.2397214E+03  0.7561462E-02  0.1119979E+00
          1   -1    0    0  501    0  0.00000000000E+00  0.00000000000E+00  0.92733348764E+03  0.92733348764E+03  0.00000000000E+00 0. -1.
         -1   -1    0    0    0  501 -0.00000000000E+00 -0.00000000000E+00 -0.78157121565E+02  0.78157121565E+02  0.00000000000E+00 0.  1.
          5    1    1    2  502    0  0.68092490804E+02 -0.16450000251E+03  0.26449189299E+03  0.31885776137E+03  0.41800000000E+01 0. -1.
         -5    1    1    2    0  502 -0.23162567923E+02 -0.63716815532E+02  0.23450098220E+02  0.71859005287E+02  0.41800000000E+01 0. -1.
        -11    1    1    2    0    0 -0.23772598736E+02  0.16653222759E+03  0.28496817571E+03  0.33091536750E+03  0.00000000000E+00 0. -1.
         11    1    1    2    0    0 -0.21157324145E+02  0.61684590449E+02  0.27626619916E+03  0.28385847506E+03  0.00000000000E+00 0.  1.
</event>
<event>
 6    1  0.6597032E-006  0.4991765E+02  0.7561462E-02  0.1445786E+00
          1   -1    0    0  501    0  0.00000000000E+00  0.00000000000E+00  0.88929420686E+02  0.88929420686E+02  0.00000000000E+00 0. -1.
         -1   -1    0    0    0  501 -0.00000000000E+00 -0.00000000000E+00 -0.16857867647E+03  0.16857867647E+03  0.00000000000E+00 0.  1.
          5    1    1    2  502    0 -0.43041260045E+02  0.29223551823E+01 -0.11740295668E+03  0.12514797986E+03  0.41800000000E+01 0. -1.
         -5    1    1    2    0  502  0.10525329210E+02  0.11315201801E+02  0.28274596525E+02  0.32492176834E+02  0.41800000000E+01 0. -1.
        -11    1    1    2    0    0  0.71503833794E+01 -0.13300907496E+02  0.49901754073E+02  0.52136620357E+02  0.00000000000E+00 0. -1.
         11    1    1    2    0    0  0.25365547456E+02 -0.93664948660E+00 -0.40422649699E+02  0.47731320102E+02  0.00000000000E+00 0.  1.
</event>
<event>
 6    1  0.6597032E-006  0.9999948E+02  0.7561462E-02  0.1280297E+00
         -2   -1    0    0    0  501 -0.00000000000E+00  0.00000000000E+00  0.48779647320E+02  0.48779647320E+02  0.00000000000E+00 0.  1.
          2   -1    0    0  501    0  0.00000000000E+00 -0.00000000000E+00 -0.24454462401E+03  0.24454462401E+03  0.00000000000E+00 0. -1.
          5    1    1    2  502    0  0.69041566825E+02  0.75300065781E+00 -0.58533631506E+02  0.90614366283E+02  0.41800000000E+01 0. -1.
         -5    1    1    2    0  502 -0.56115225136E+02  0.82979043961E+01 -0.49683847424E+02  0.75523048166E+02  0.41800000000E+01 0. -1.
        -11    1    1    2    0    0 -0.21071015315E+02 -0.38230495964E+02 -0.86480293855E+02  0.96873111508E+02  0.00000000000E+00 0. -1.
         11    1    1    2    0    0  0.81446736262E+01  0.29179590910E+02 -0.10672039026E+01  0.30313745369E+02  0.00000000000E+00 0.  1.
</event>
<event>
 6    1  0.6597032E-006  0.1126674E+03  0.7561462E-02  0.1255708E+00
          1   -1    0    0  501    0  0.00000000000E+00  0.00000000000E+00  0.31960126468E+03  0.31960126468E+03  0.00000000000E+00 0. -1.
         -1   -1    0    0    0  501 -0.00000000000E+00 -0.00000000000E+00 -0.40284546035E+02  0.40284546035E+02  0.00000000000E+00 0.  1.
          5    1    1    2  502    0 -0.16377258535E+02  0.48573878593E+02  0.71206736448E+02  0.87837964425E+02  0.41800000000E+01 0. -1.
         -5    1    1    2    0  502  0.46431178281E+02 -0.62496733391E+02  0.10929792095E+03  0.13425797527E+03  0.41800000000E+01 0. -1.
        -11    1    1    2    0    0 -0.36242252660E+02  0.48647403598E+02  0.65444529185E+02  0.89235963349E+02  0.00000000000E+00 0.  1.
         11    1    1    2    0    0  0.61883329149E+01 -0.34724548799E+02  0.33367532060E+02  0.48553907663E+02  0.00000000000E+00 0. -1.
</event>
<event>
 6    1  0.6597032E-006  0.9932321E+02  0.7561462E-02  0.1281726E+00
          3   -1    0    0  501    0  0.00000000000E+00  0.00000000000E+00  0.20487733331E+02  0.20487733331E+02  0.00000000000E+00 0. -1.
         -3   -1    0    0    0  501 -0.00000000000E+00 -0.00000000000E+00 -0.54668565220E+03  0.54668565220E+03  0.00000000000E+00 0.  1.
          5    1    1    2  502    0  0.55666007510E+02  0.23166230305E+02 -0.22677148852E+03  0.23468736444E+03  0.41800000000E+01 0. -1.
         -5    1    1    2    0  502 -0.47472213102E+02 -0.29954982362E+02 -0.12530455745E+03  0.13736672269E+03  0.41800000000E+01 0.  1.
        -11    1    1    2    0    0 -0.21645553971E+02  0.40335229576E+02 -0.13147944724E+03  0.13922034980E+03  0.00000000000E+00 0.  1.
         11    1    1    2    0    0  0.13451759562E+02 -0.33546477519E+02 -0.42642425653E+02  0.55898948602E+02  0.00000000000E+00 0. -1.
</event>
<event>
 6    1  0.6597032E-006  0.9601445E+02  0.7561462E-02  0.1288907E+00
          1   -1    0    0  501    0  0.00000000000E+00  0.00000000000E+00  0.50022457235E+03  0.50022457235E+03  0.00000000000E+00 0. -1.
         -1   -1    0    0    0  501 -0.00000000000E+00 -0.00000000000E+00 -0.32476625513E+02  0.32476625513E+02  0.00000000000E+00 0.  1.
          5    1    1    2  502    0  0.71525693534E+01  0.72038301409E+02  0.39930823115E+02  0.82780548155E+02  0.41800000000E+01 0.  1.
         -5    1    1    2    0  502 -0.14860291386E+02 -0.36626701331E+02  0.10394960581E+03  0.11128942653E+03  0.41800000000E+01 0.  1.
        -11    1    1    2    0    0 -0.69032785251E+01 -0.54944223292E+02  0.29790221182E+03  0.30300536421E+03  0.00000000000E+00 0. -1.
         11    1    1    2    0    0  0.14611000558E+02  0.19532623214E+02  0.25965306093E+02  0.35625858971E+02  0.00000000000E+00 0.  1.
</event>
<event>
 6    1  0.6597032E-006  0.9055687E+02  0.7561462E-02  0.1301509E+00
         -2   -1    0    0    0  501 -0.00000000000E+00  0.00000000000E+00  0.12601035475E+03  0.12601035475E+03  0.00000000000E+00 0.  1.
          2   -1    0    0  501    0  0.00000000000E+00 -0.00000000000E+00 -0.96541502732E+02  0.96541502732E+02  0.00000000000E+00 0. -1.
          5    1    1    2  502    0  0.15874913398E+02 -0.42779280779E+02  0.64154363640E+02  0.78837392863E+02  0.41800000000E+01 0. -1.
         -5    1    1    2    0  502 -0.89035505493E+01  0.42564580813E+02 -0.27598687528E+02  0.51673752577E+02  0.41800000000E+01 0. -1.
        -11    1    1    2    0    0 -0.23296194743E+02  0.41288635203E+02 -0.63890810002E+01  0.47836016164E+02  0.00000000000E+00 0.  1.
         11    1    1    2    0    0  0.16324831894E+02 -0.41073935236E+02 -0.69774309389E+00  0.44204695877E+02  0.00000000000E+00 0. -1.
</event>
<event>
 6    1  0.6597032E-006  0.8037622E+02  0.7561462E-02  0.1327987E+00
         -2   -1    0    0    0  501 -0.00000000000E+00  0.00000000000E+00  0.32205113736E+02  0.32205113736E+02  0.00000000000E+00 0.  1.
          2   -1    0    0  501    0  0.00000000000E+00 -0.00000000000E+00 -0.45298902542E+03  0.45298902542E+03  0.00000000000E+00 0. -1.
          5    1    1    2  502    0 -0.57617195895E+02 -0.26232410972E+01 -0.23078401160E+03  0.23791879931E+03  0.41800000000E+01 0.  1.
         -5    1    1    2    0  502  0.26438015127E+01  0.52854927906E+01  0.15485756742E+02  0.17094068630E+02  0.41800000000E+01 0.  1.
        -11    1    1    2    0    0  0.51047426263E+02  0.32362524347E+02 -0.82668820106E+02  0.10240755113E+03  0.00000000000E+00 0.  1.
         11    1    1    2    0    0  0.39259681196E+01 -0.35024776041E+02 -0.12281683672E+03  0.12777372009E+03  0.00000000000E+00 0. -1.
</event>
<event>
 6    1  0.6597032E-006  0.7178262E+02  0.7561462E-02  0.1354134E+00
          2   -1    0    0  501    0  0.00000000000E+00  0.00000000000E+00  0.99507861297E+02  0.99507861297E+02  0.00000000000E+00 0.  1.
         -2   -1    0    0    0  501 -0.00000000000E+00 -0.00000000000E+00 -0.14375150673E+03  0.14375150673E+03  0.00000000000E+00 0. -1.
          5    1    1    2  502    0 -0.12754792411E+02 -0.46003457534E+02 -0.96586431104E+02  0.10782121270E+03  0.41800000000E+01 0. -1.
         -5    1    1    2    0  502  0.21322010946E+02  0.32173662867E+02  0.15863730323E+02  0.41939278401E+02  0.41800000000E+01 0. -1.
        -11    1    1    2    0    0 -0.27275189341E+02 -0.76579949191E+01 -0.16903324994E+02  0.32989441275E+02  0.00000000000E+00 0. -1.
         11    1    1    2    0    0  0.18707970805E+02  0.21487789587E+02  0.53382380338E+02  0.60509435657E+02  0.00000000000E+00 0.  1.
</event>
<event>
 6    1  0.6597032E-006  0.1306877E+03  0.7561462E-02  0.1226439E+00
          1   -1    0    0  501    0  0.00000000000E+00  0.00000000000E+00  0.71757732255E+03  0.71757732255E+03  0.00000000000E+00 0. -1.
         -1   -1    0    0    0  501 -0.00000000000E+00 -0.00000000000E+00 -0.24884321156E+02  0.24884321156E+02  0.00000000000E+00 0.  1.
          5    1    1    2  502    0 -0.50717844762E+02  0.89529430633E+01  0.10266337975E+03  0.11493344556E+03  0.41800000000E+01 0.  1.
         -5    1    1    2    0  502  0.35869840512E+02 -0.85336399247E+02  0.29067842483E+03  0.30509074970E+03  0.41800000000E+01 0.  1.
        -11    1    1    2    0    0  0.44906237623E+02  0.12774738921E+02  0.15458434600E+03  0.16148090959E+03  0.00000000000E+00 0. -1.
         11    1    1    2    0    0 -0.30058233374E+02  0.63608717262E+02  0.14476685081E+03  0.16095653885E+03  0.00000000000E+00 0.  1.
</event>
<event>
 6    1  0.6597032E-006  0.1169038E+03  0.7561462E-02  0.1248294E+00
         -1   -1    0    0    0  501 -0.00000000000E+00  0.00000000000E+00  0.10089521969E+03  0.10089521969E+03  0.00000000000E+00 0.  1.
          1   -1    0    0  501    0  0.00000000000E+00 -0.00000000000E+00 -0.24183576935E+03  0.24183576935E+03  0.00000000000E+00 0. -1.
          5    1    1    2  502    0  0.54352723184E+02 -0.45259168505E+01 -0.86723930982E+02  0.10253397020E+03  0.41800000000E+01 0. -1.
         -5    1    1    2    0  502  0.53621787366E+02 -0.40850299233E+00  0.42551354697E+02  0.68582455057E+02  0.41800000000E+01 0. -1.
        -11    1    1    2    0    0 -0.37379523479E+02 -0.28696245918E+02  0.98515180100E-01  0.47124441753E+02  0.00000000000E+00 0. -1.
         11    1    1    2    0    0 -0.70594987071E+02  0.33630665760E+02 -0.96866488556E+02  0.12449012203E+03  0.00000000000E+00 0.  1.
</event>
<event>
 6    1  0.6597032E-006  0.1113063E+03  0.7561462E-02  0.1258170E+00
         -1   -1    0    0    0  501 -0.00000000000E+00  0.00000000000E+00  0.35070205623E+02  0.35070205623E+02  0.00000000000E+00 0.  1.
          1   -1    0    0  501    0  0.00000000000E+00 -0.00000000000E+00 -0.44234609824E+03  0.44234609824E+03  0.00000000000E+00 0. -1.
          5    1    1    2  502    0  0.44360368235E+02 -0.10918657959E+02 -0.72576966623E+02  0.85860048018E+02  0.41800000000E+01 0.  1.
         -5    1    1    2    0  502 -0.73936237307E+02  0.28291589890E+02 -0.58304845146E+02  0.98406852471E+02  0.41800000000E+01 0.  1.
        -11    1    1    2    0    0 -0.11105568159E+00  0.36207649962E+02 -0.93240223994E+02  0.10002372528E+03  0.00000000000E+00 0.  1.
         11    1    1    2    0    0  0.29686924754E+02 -0.53580581893E+02 -0.18315385686E+03  0.19312567809E+03  0.00000000000E+00 0. -1.
</event>
<event>
 6    1  0.6597032E-006  0.9420682E+02  0.7561462E-02  0.1292973E+00
          1   -1    0    0  501    0  0.00000000000E+00  0.00000000000E+00  0.27322832901E+03  0.27322832901E+03  0.00000000000E+00 0. -1.
         -1   -1    0    0    0  501 -0.00000000000E+00 -0.00000000000E+00 -0.40135382326E+02  0.40135382326E+02  0.00000000000E+00 0.  1.
          5    1    1    2  502    0 -0.41746564198E+02  0.46429665503E+02  0.33366439274E+02  0.70917424734E+02  0.41800000000E+01 0.  1.
         -5    1    1    2    0  502  0.71364459188E+02 -0.12989731208E+01  0.70413331771E+02  0.10034980348E+03  0.41800000000E+01 0.  1.
        -11    1    1    2    0    0 -0.23087883132E+02 -0.29983165945E+02  0.60712476418E+02  0.71540515656E+02  0.00000000000E+00 0.  1.
         11    1    1    2    0    0 -0.65300118584E+01 -0.15147526437E+02  0.68600699222E+02  0.70555967472E+02  0.00000000000E+00 0. -1.
</event>
<event>
 6    1  0.6597032E-006  0.3424185E+03  0.7561462E-02  0.1065770E+00
          1   -1    0    0  501    0  0.00000000000E+00  0.00000000000E+00  0.94880816105E+03  0.94880816105E+03  0.00000000000E+00 0. -1.
         -1   -1    0    0    0  501 -0.00000000000E+00 -0.00000000000E+00 -0.16178431726E+03  0.16178431726E+03  0.00000000000E+00 0.  1.
          5    1    1    2  502    0 -0.73081945006E+02  0.26714081002E+02  0.12195446289E+03  0.14472379289E+03  0.41800000000E+01 0. -1.
         -5    1    1    2    0  502 -0.11368774033E+03  0.24369460322E+03  0.66618269524E+02  0.27706935625E+03  0.41800000000E+01 0.  1.
        -11    1    1    2    0    0  0.21145614781E+02 -0.92567457010E+02  0.21191809012E+03  0.23221788915E+03  0.00000000000E+00 0.  1.
         11    1    1    2    0    0  0.16562407055E+03 -0.17784122721E+03  0.38653302127E+03  0.45658144002E+03  0.00000000000E+00 0. -1.
</event>
<event>
 6    1  0.6597032E-006  0.9954146E+02  0.7561462E-02  0.1281263E+00
         -2   -1    0    0    0  501 -0.00000000000E+00  0.00000000000E+00  0.49090441111E+02  0.49090441111E+02  0.00000000000E+00 0.  1.
          2   -1    0    0  501    0  0.00000000000E+00 -0.00000000000E+00 -0.48423845049E+03  0.48423845049E+03  0.00000000000E+00 0. -1.
          5    1    1    2  502    0  0.45111288682E+02  0.31271853650E+02  0.17228066425E+02  0.57682197167E+02  0.41800000000E+01 0. -1.
         -5    1    1    2    0  502 -0.56486256102E+01  0.26316770493E+02 -0.10921674698E+03  0.11256220326E+03  0.41800000000E+01 0. -1.
        -11    1    1    2    0    0  0.30185318061E+02 -0.27825890051E+02 -0.91800217947E+02  0.10056198884E+03  0.00000000000E+00 0.  1.
         11    1    1    2    0    0 -0.69647981132E+02 -0.29762734092E+02 -0.25135911087E+03  0.26252250234E+03  0.00000000000E+00 0. -1.
</event>
<event>
 6    1  0.6597032E-006  0.1367689E+03  0.7561462E-02  0.1217744E+00
          2   -1    0    0  501    0  0.00000000000E+00  0.00000000000E+00  0.32511817892E+03  0.32511817892E+03  0.00000000000E+00 0. -1.
         -2   -1    0    0    0  501 -0.00000000000E+00 -0.00000000000E+00 -0.11093831066E+03  0.11093831066E+03  0.00000000000E+00 0.  1.
          5    1    1    2  502    0 -0.11692243756E+02 -0.77363007852E+01 -0.36664055904E+02  0.39475109997E+02  0.41800000000E+01 0. -1.
         -5    1    1    2    0  502  0.87524577498E+02 -0.91775861604E+02  0.55385762089E+02  0.13845004688E+03  0.41800000000E+01 0. -1.
        -11    1    1    2    0    0 -0.42744603105E+02  0.22733202995E+02  0.32445199141E+01  0.48522433188E+02  0.00000000000E+00 0.  1.
         11    1    1    2    0    0 -0.33087730636E+02  0.76778959395E+02  0.19221364216E+03  0.20960889952E+03  0.00000000000E+00 0. -1.
</event>
<event>
 6    1  0.6597032E-006  0.1525290E+03  0.7561462E-02  0.1197399E+00
         -1   -1    0    0    0  501 -0.00000000000E+00  0.00000000000E+00  0.91940480512E+02  0.91940480512E+02  0.00000000000E+00 0.  1.
          1   -1    0    0  501    0  0.00000000000E+00 -0.00000000000E+00 -0.31455579598E+03  0.31455579598E+03  0.00000000000E+00 0. -1.
          5    1    1    2  502    0  0.85226490016E+02 -0.11169644408E+03 -0.10696469571E+03  0.17663116585E+03  0.41800000000E+01 0. -1.
         -5    1    1    2    0  502 -0.19761798648E+02  0.72661711707E+01 -0.67817391455E+02  0.71133655277E+02  0.41800000000E+01 0. -1.
        -11    1    1    2    0    0 -0.69261162765E+02  0.43083610941E+02 -0.11957880224E+01  0.81576565926E+02  0.00000000000E+00 0. -1.
         11    1    1    2    0    0  0.37964713975E+01  0.61346661964E+02 -0.46637440280E+02  0.77154889444E+02  0.00000000000E+00 0.  1.
</event>
<event>
 6    1  0.6597032E-006  0.1126163E+03  0.7561462E-02  0.1255800E+00
          2   -1    0    0  501    0  0.00000000000E+00  0.00000000000E+00  0.45256458547E+03  0.45256458547E+03  0.00000000000E+00 0.  1.
         -2   -1    0    0    0  501 -0.00000000000E+00 -0.00000000000E+00 -0.35934532340E+02  0.35934532340E+02  0.00000000000E+00 0. -1.
          5    1    1    2  502    0 -0.39896042331E+02  0.73567351482E+02  0.11386012655E+03  0.14136990562E+03  0.41800000000E+01 0. -1.
         -5    1    1    2    0  502  0.70463772780E+01 -0.43021444190E+02  0.23288862327E+02  0.49601810465E+02  0.41800000000E+01 0. -1.
        -11    1    1    2    0    0  0.17150452828E+02  0.30294037784E+02  0.14456866285E+03  0.14870092480E+03  0.00000000000E+00 0. -1.
         11    1    1    2    0    0  0.15699212225E+02 -0.60839945075E+02  0.13491240141E+03  0.14882647693E+03  0.00000000000E+00 0.  1.
</event>
<event>
 6    1  0.6597032E-006  0.8901574E+02  0.7561462E-02  0.1305253E+00
         -2   -1    0    0    0  501 -0.00000000000E+00  0.00000000000E+00  0.84055971683E+02  0.84055971683E+02  0.00000000000E+00 0.  1.
          2   -1    0    0  501    0  0.00000000000E+00 -0.00000000000E+00 -0.14459401401E+03  0.14459401401E+03  0.00000000000E+00 0. -1.
          5    1    1    2  502    0 -0.50983534097E+02  0.33424569664E+02 -0.46619959826E+02  0.76859714158E+02  0.41800000000E+01 0.  1.
         -5    1    1    2    0  502  0.31873353510E+02 -0.33689387285E+02  0.22879133555E+02  0.51882681425E+02  0.41800000000E+01 0.  1.
        -11    1    1    2    0    0  0.22706403731E+02 -0.31256552476E+02 -0.51956631631E+02  0.64745999208E+02  0.00000000000E+00 0. -1.
         11    1    1    2    0    0 -0.35962231432E+01  0.31521370098E+02  0.15159415579E+02  0.35161590897E+02  0.00000000000E+00 0.  1.
</event>
<event>
 6    1  0.6597032E-006  0.9914337E+02  0.7561462E-02  0.1282108E+00
          3   -1    0    0  501    0  0.00000000000E+00  0.00000000000E+00  0.79599306697E+03  0.79599306697E+03  0.00000000000E+00 0. -1.
         -3   -1    0    0    0  501 -0.00000000000E+00 -0.00000000000E+00 -0.15758763530E+02  0.15758763530E+02  0.00000000000E+00 0.  1.
          5    1    1    2  502    0  0.42772877770E+02  0.75920449768E+01  0.27620429150E+03  0.27963090184E+03  0.41800000000E+01 0.  1.
         -5    1    1    2    0  502 -0.60807236930E+02  0.18552925425E+00  0.97924466403E+02  0.11534395521E+03  0.41800000000E+01 0.  1.
        -11    1    1    2    0    0  0.50762751893E+02 -0.25137874598E+02  0.24185280544E+03  0.24839796541E+03  0.00000000000E+00 0. -1.
         11    1    1    2    0    0 -0.32728392733E+02  0.17360300367E+02  0.16425274010E+03  0.16837900804E+03  0.00000000000E+00 0.  1.
</event>
<event>
 6    1  0.6597032E-006  0.9480071E+02  0.7561462E-02  0.1291626E+00
         -1   -1    0    0    0  501 -0.00000000000E+00  0.00000000000E+00  0.68137713221E+03  0.68137713221E+03  0.00000000000E+00 0.  1.
          1   -1    0    0  501    0  0.00000000000E+00 -0.00000000000E+00 -0.22954523089E+02  0.22954523089E+02  0.00000000000E+00 0. -1.
          5    1    1    2  502    0 -0.63432973972E+02  0.31702077897E+02  0.13294130030E+03  0.15073030769E+03  0.41800000000E+01 0. -1.
         -5    1    1    2    0  502  0.26031204136E+02 -0.46026719650E+00  0.33641300135E+03  0.33744483299E+03  0.41800000000E+01 0. -1.
        -11    1    1    2    0    0  0.12667919403E+02 -0.55872014734E+02  0.16246023554E+03  0.17226574339E+03  0.00000000000E+00 0.  1.
         11    1    1    2    0    0  0.24733850434E+02  0.24630204034E+02  0.26608071939E+02  0.43890771243E+02  0.00000000000E+00 0. -1.
</event>
<event>
 6    1  0.6597032E-006  0.9714850E+02  0.7561462E-02  0.1286409E+00
          1   -1    0    0  501    0  0.00000000000E+00  0.00000000000E+00  0.17436897511E+03  0.17436897511E+03  0.00000000000E+00 0. -1.
         -1   -1    0    0    0  501 -0.00000000000E+00 -0.00000000000E+00 -0.81120701677E+02  0.81120701677E+02  0.00000000000E+00 0.  1.
          5    1    1    2  502    0 -0.49457534799E+02  0.66404210518E+01  0.67767693354E+02  0.84261946350E+02  0.41800000000E+01 0.  1.
         -5    1    1    2    0  502  0.17827260823E+02 -0.38326116925E+02 -0.32184079499E+02  0.53291555055E+02  0.41800000000E+01 0.  1.
        -11    1    1    2    0    0 -0.29740814860E+02  0.27045279891E+02  0.14381893264E+02  0.42694286348E+02  0.00000000000E+00 0.  1.
         11    1    1    2    0    0  0.61371088836E+02  0.46404159824E+01  0.43282766311E+02  0.75241889031E+02  0.00000000000E+00 0. -1.
</event>
<event>
 6    1  0.6597032E-006  0.1018844E+03  0.7561462E-02  0.1276382E+00
         -1   -1    0    0    0  501 -0.00000000000E+00  0.00000000000E+00  0.29558618170E+02  0.29558618170E+02  0.00000000000E+00 0.  1.
          1   -1    0    0  501    0  0.00000000000E+00 -0.00000000000E+00 -0.65275884467E+03  0.65275884467E+03  0.00000000000E+00 0. -1.
          5    1    1    2  502    0  0.37118386634E+02 -0.44421233243E+02 -0.44714263560E+02  0.73265669688E+02  0.41800000000E+01 0. -1.
         -5    1    1    2    0  502  0.49182053928E+02  0.30777831566E+02 -0.27378261242E+03  0.27989380237E+03  0.41800000000E+01 0. -1.
        -11    1    1    2    0    0 -0.54570199981E+02  0.58119568934E+01 -0.28657943361E+03  0.29178666409E+03  0.00000000000E+00 0. -1.
         11    1    1    2    0    0 -0.31730240581E+02  0.78314447833E+01 -0.18123916913E+02  0.37371326696E+02  0.00000000000E+00 0.  1.
</event>
<event>
 6    1  0.6597032E-006  0.8809162E+02  0.7561462E-02  0.1307540E+00
         -2   -1    0    0    0  501 -0.00000000000E+00  0.00000000000E+00  0.77426107086E+02  0.77426107086E+02  0.00000000000E+00 0.  1.
          2   -1    0    0  501    0  0.00000000000E+00 -0.00000000000E+00 -0.19126910075E+03  0.19126910075E+03  0.00000000000E+00 0. -1.
          5    1    1    2  502    0  0.67408815142E+02  0.23536679712E+02 -0.90275203753E+02  0.11517381848E+03  0.41800000000E+01 0.  1.
         -5    1    1    2    0  502 -0.17017437645E+02 -0.33991696518E+02  0.13253746802E+02  0.40474224149E+02  0.41800000000E+01 0.  1.
        -11    1    1    2    0    0  0.44798684450E+01  0.10642564162E+02 -0.54257015769E+02  0.55472129519E+02  0.00000000000E+00 0. -1.
         11    1    1    2    0    0 -0.54871245941E+02 -0.18754735576E+00  0.17435479053E+02  0.57575035692E+02  0.00000000000E+00 0.  1.
</event>
<event>
 6    1  0.6597032E-006  0.7092529E+02  0.7561462E-02  0.1356975E+00
          2   -1    0    0  501    0  0.00000000000E+00  0.00000000000E+00  0.34002752169E+03  0.34002752169E+03  0.00000000000E+00 0. -1.
         -2   -1    0    0    0  501 -0.00000000000E+00 -0.00000000000E+00 -0.47085328668E+02  0.47085328668E+02  0.00000000000E+00 0.  1.
          5    1    1    2  502    0  0.15033903973E+01  0.81047971239E+01  0.10759297721E+03  0.10798920809E+03  0.41800000000E+01 0.  1.
         -5    1    1    2    0  502 -0.42273608126E+02 -0.26427106064E+02 -0.16929012287E+02  0.52815847394E+02  0.41800000000E+01 0.  1.
        -11    1    1    2    0    0  0.20864932514E+02 -0.26386595531E+02  0.15374956866E+03  0.15738655500E+03  0.00000000000E+00 0. -1.
         11    1    1    2    0    0  0.19905285215E+02  0.44708904471E+02  0.48528659444E+02  0.68921239875E+02  0.00000000000E+00 0.  1.
</event>
<event>
 6    1  0.6597032E-006  0.9894162E+02  0.7561462E-02  0.1282537E+00
          2   -1    0    0  501    0  0.00000000000E+00  0.00000000000E+00  0.72386003656E+03  0.72386003656E+03  0.00000000000E+00 0. -1.
         -2   -1    0    0    0  501 -0.00000000000E+00 -0.00000000000E+00 -0.22387435336E+02  0.22387435336E+02  0.00000000000E+00 0.  1.
          5    1    1    2  502    0  0.72762249824E+01  0.58581333078E+02  0.24259134265E+03  0.24970532226E+03  0.41800000000E+01 0.  1.
         -5    1    1    2    0  502 -0.38611266278E+02 -0.18816970477E+02  0.24711884307E+02  0.49729849060E+02  0.41800000000E+01 0.  1.
        -11    1    1    2    0    0 -0.80547268923E+00 -0.58393803149E+02  0.34958701097E+03  0.35443132377E+03  0.00000000000E+00 0. -1.
         11    1    1    2    0    0  0.32140513985E+02  0.18629440548E+02  0.84582363294E+02  0.92380976801E+02  0.00000000000E+00 0.  1.
</event>
<event>
 6    1  0.6597032E-006  0.1071088E+03  0.7561462E-02  0.1266020E+00
          1   -1    0    0  501    0  0.00000000000E+00  0.00000000000E+00  0.11278239088E+03  0.11278239088E+03  0.00000000000E+00 0. -1.
         -1   -1    0    0    0  501 -0.00000000000E+00 -0.00000000000E+00 -0.12848996549E+03  0.12848996549E+03  0.00000000000E+00 0.  1.
          5    1    1    2  502    0  0.32563585482E+02 -0.27179235025E+02  0.10626231932E+02  0.43925927663E+02  0.41800000000E+01 0. -1.
         -5    1    1    2    0  502 -0.64173484249E+02  0.40263826165E+02 -0.52814958930E+02  0.92446222556E+02  0.41800000000E+01 0. -1.
        -11    1    1    2    0    0  0.62182102484E+02 -0.18051257461E+02  0.94248846117E+00  0.64756081180E+02  0.00000000000E+00 0.  1.
         11    1    1    2    0    0 -0.30572203718E+02  0.49666663213E+01  0.25538663926E+02  0.40144124970E+02  0.00000000000E+00 0. -1.
</event>
<event>
 6    1  0.6597032E-006  0.7503045E+02  0.7561462E-02  0.1343777E+00
          1   -1    0    0  501    0  0.00000000000E+00  0.00000000000E+00  0.33610874174E+03  0.33610874174E+03  0.00000000000E+00 0. -1.
         -1   -1    0    0    0  501 -0.00000000000E+00 -0.00000000000E+00 -0.48578390987E+02  0.48578390987E+02  0.00000000000E+00 0.  1.
          5    1    1    2  502    0  0.14024877323E+02 -0.26179599608E+01 -0.30130357387E+02  0.33598537685E+02  0.41800000000E+01 0. -1.
         -5    1    1    2    0  502  0.20286014357E+01 -0.43754482313E+02  0.12064382519E+03  0.12841719084E+03  0.41800000000E+01 0. -1.
        -11    1    1    2    0    0 -0.47275066569E+02  0.26768643915E+02  0.16543644468E+03  0.17412842801E+03  0.00000000000E+00 0. -1.
         11    1    1    2    0    0  0.31221587811E+02  0.19603798359E+02  0.31580438273E+02  0.48542976186E+02  0.00000000000E+00 0.  1.
</event>
<event>
 6    1  0.6597032E-006  0.8604732E+02  0.7561462E-02  0.1312716E+00
          2   -1    0    0  501    0  0.00000000000E+00  0.00000000000E+00  0.10021102408E+03  0.10021102408E+03  0.00000000000E+00 0. -1.
         -2   -1    0    0    0  501 -0.00000000000E+00 -0.00000000000E+00 -0.14168230173E+03  0.14168230173E+03  0.00000000000E+00 0.  1.
          5    1    1    2  502    0  0.15843163685E+02 -0.24072265234E+02 -0.57610680063E+02  0.64551860131E+02  0.41800000000E+01 0. -1.
         -5    1    1    2    0  502 -0.50552487179E+02 -0.87669366203E+01  0.47087063756E+02  0.69764440160E+02  0.41800000000E+01 0. -1.
        -11    1    1    2    0    0  0.55489030413E+02  0.35715982324E+01  0.61669969157E+01  0.55944800126E+02  0.00000000000E+00 0. -1.
         11    1    1    2    0    0 -0.20779706919E+02  0.29267603622E+02 -0.37114658254E+02  0.51632225390E+02  0.00000000000E+00 0.  1.
</event>
<event>
 6    1  0.6597032E-006  0.1829888E+03  0.7561462E-02  0.1164941E+00
          2   -1    0    0  501    0  0.00000000000E+00  0.00000000000E+00  0.21608815899E+03  0.21608815899E+03  0.00000000000E+00 0. -1.
         -2   -1    0    0    0  501 -0.00000000000E+00 -0.00000000000E+00 -0.17395893428E+03  0.17395893428E+03  0.00000000000E+00 0.  1.
          5    1    1    2  502    0 -0.96198695096E+02  0.43113221018E+02  0.25272071247E+02  0.10848543105E+03  0.41800000000E+01 0.  1.
         -5    1    1    2    0  502  0.77140855597E+01  0.87539868334E+02 -0.29929247361E+02  0.92929908595E+02  0.41800000000E+01 0.  1.
        -11    1    1    2    0    0  0.36115733272E+02 -0.11072465132E+03  0.13199730701E+01  0.11647333141E+03  0.00000000000E+00 0.  1.
         11    1    1    2    0    0  0.52368876264E+02 -0.19928438032E+02  0.45466427755E+02  0.72158422214E+02  0.00000000000E+00 0. -1.
</event>
<event>
 6    1  0.6597032E-006  0.3900150E+02  0.7561462E-02  0.1515691E+00
          2   -1    0    0  501    0  0.00000000000E+00  0.00000000000E+00  0.35905736689E+02  0.35905736689E+02  0.00000000000E+00 0. -1.
         -2   -1    0    0    0  501 -0.00000000000E+00 -0.00000000000E+00 -0.38609233157E+03  0.38609233157E+03  0.00000000000E+00 0.  1.
          5    1    1    2  502    0 -0.58091892440E+01 -0.10289748055E+01 -0.24760622161E+03  0.24771176567E+03  0.41800000000E+01 0. -1.
         -5    1    1    2    0  502 -0.22218934350E+01 -0.34037221483E+02 -0.27745188449E+01  0.34476653138E+02  0.41800000000E+01 0. -1.
        -11    1    1    2    0    0  0.77524971017E+01  0.21778044622E+02 -0.11632938050E+03  0.11860400165E+03  0.00000000000E+00 0.  1.
         11    1    1    2    0    0  0.27858557730E+00  0.13288151666E+02  0.16523526080E+02  0.21205647803E+02  0.00000000000E+00 0. -1.
</event>
<event>
 6    1  0.6597032E-006  0.1845242E+03  0.7561462E-02  0.1163495E+00
          1   -1    0    0  501    0  0.00000000000E+00  0.00000000000E+00  0.59476246743E+02  0.59476246743E+02  0.00000000000E+00 0. -1.
         -1   -1    0    0    0  501 -0.00000000000E+00 -0.00000000000E+00 -0.69517701875E+03  0.69517701875E+03  0.00000000000E+00 0.  1.
          5    1    1    2  502    0  0.14830761073E+02 -0.67834345859E+02 -0.59225094945E+02  0.91359368559E+02  0.41800000000E+01 0. -1.
         -5    1    1    2    0  502  0.97669579104E+02 -0.54548774312E+02 -0.35402673454E+03  0.37130488366E+03  0.41800000000E+01 0. -1.
        -11    1    1    2    0    0 -0.73689923767E+02  0.17549401998E+02 -0.10882893826E+03  0.13259684829E+03  0.00000000000E+00 0.  1.
         11    1    1    2    0    0 -0.38810416410E+02  0.10483371817E+03 -0.11362000427E+03  0.15939216498E+03  0.00000000000E+00 0. -1.
</event>
<event>
 6    1  0.6597032E-006  0.8525679E+02  0.7561462E-02  0.1314762E+00
         -2   -1    0    0    0  501 -0.00000000000E+00  0.00000000000E+00  0.21829954198E+03  0.21829954198E+03  0.00000000000E+00 0.  1.
          2   -1    0    0  501    0  0.00000000000E+00 -0.00000000000E+00 -0.61396652054E+02  0.61396652054E+02  0.00000000000E+00 0. -1.
          5    1    1    2  502    0 -0.15223592085E+02  0.31056106860E+02  0.79527047334E+02  0.86823171947E+02  0.41800000000E+01 0.  1.
         -5    1    1    2    0  502  0.77778603947E+01 -0.73788660095E+02  0.14898153793E+02  0.75793725712E+02  0.41800000000E+01 0.  1.
        -11    1    1    2    0    0  0.23653186338E+02  0.37485966007E+02  0.80738969787E+02  0.92105657339E+02  0.00000000000E+00 0.  1.
         11    1    1    2    0    0 -0.16207454648E+02  0.52465872275E+01 -0.18261280984E+02  0.24973639040E+02  0.00000000000E+00 0. -1.
</event>
<event>
 6    1  0.6597032E-006  0.1156361E+03  0.7561462E-02  0.1250475E+00
         -2   -1    0    0    0  501 -0.00000000000E+00  0.00000000000E+00  0.71502818871E+02  0.71502818871E+02  0.00000000000E+00 0. -1.
          2   -1    0    0  501    0  0.00000000000E+00 -0.00000000000E+00 -0.22828898058E+03  0.22828898058E+03  0.00000000000E+00 0.  1.
          5    1    1    2  502    0 -0.46251372708E+02  0.52427065654E+02  0.52571298365E+01  0.70234581971E+02  0.41800000000E+01 0. -1.
         -5    1    1    2    0  502  0.49614319034E+02  0.12261666360E+02 -0.64968255540E+02  0.82766392594E+02  0.41800000000E+01 0. -1.
        -11    1    1    2    0    0 -0.15480642694E+02 -0.84949746142E+02 -0.72988204735E+02  0.11306364446E+03  0.00000000000E+00 0.  1.
         11    1    1    2    0    0  0.12117696369E+02  0.20261014128E+02 -0.24086831267E+02  0.33727180423E+02  0.00000000000E+00 0. -1.
</event>
<event>
 6    1  0.6597032E-006  0.9757546E+02  0.7561462E-02  0.1285479E+00
          2   -1    0    0  501    0  0.00000000000E+00  0.00000000000E+00  0.85170352532E+03  0.85170352532E+03  0.00000000000E+00 0. -1.
         -2   -1    0    0    0  501 -0.00000000000E+00 -0.00000000000E+00 -0.21557051451E+02  0.21557051451E+02  0.00000000000E+00 0.  1.
          5    1    1    2  502    0  0.27588066381E+01  0.41420831180E+02  0.39450199762E+02  0.57420265856E+02  0.41800000000E+01 0. -1.
         -5    1    1    2    0  502 -0.26127265715E+02  0.31236312515E+02  0.49701822950E+03  0.49870124733E+03  0.41800000000E+01 0. -1.
        -11    1    1    2    0    0 -0.21238944307E+02 -0.63495088638E+02  0.11816891926E+03  0.13581830699E+03  0.00000000000E+00 0.  1.
         11    1    1    2    0    0  0.44607403384E+02 -0.91620550572E+01  0.17550912534E+03  0.18132075659E+03  0.00000000000E+00 0. -1.
</event>
<event>
 6    1  0.6597032E-006  0.1471031E+03  0.7561462E-02  0.1204079E+00
         -2   -1    0    0    0  501 -0.00000000000E+00  0.00000000000E+00  0.17150376125E+03  0.17150376125E+03  0.00000000000E+00 0.  1.
          2   -1    0    0  501    0  0.00000000000E+00 -0.00000000000E+00 -0.14163367737E+03  0.14163367737E+03  0.00000000000E+00 0. -1.
          5    1    1    2  502    0  0.84517583610E+02 -0.11773120461E+02  0.34949998344E+01  0.85507401601E+02  0.41800000000E+01 0. -1.
         -5    1    1    2    0  502 -0.20463126606E+02 -0.77114831097E+02  0.20667659980E+02  0.82523095522E+02  0.41800000000E+01 0. -1.
        -11    1    1    2    0    0 -0.56852482057E+02  0.10035264580E+03  0.28308158946E+02  0.11876114726E+03  0.00000000000E+00 0.  1.
         11    1    1    2    0    0 -0.72019749472E+01 -0.11464694244E+02 -0.22600734882E+02  0.26345794246E+02  0.00000000000E+00 0. -1.
</event>
<event>
 6    1  0.6597032E-006  0.1031665E+03  0.7561462E-02  0.1273775E+00
         -4   -1    0    0    0  501 -0.00000000000E+00  0.00000000000E+00  0.32337758497E+03  0.32337758497E+03  0.00000000000E+00 0.  1.
          4   -1    0    0  501    0  0.00000000000E+00 -0.00000000000E+00 -0.41508579520E+02  0.41508579520E+02  0.00000000000E+00 0. -1.
          5    1    1    2  502    0  0.46169440009E+02  0.20535755736E+02  0.58197564575E+02  0.77186549196E+02  0.41800000000E+01 0. -1.
         -5    1    1    2    0  502 -0.53092064589E+02 -0.60093006187E+02  0.11241852225E+03  0.13814967702E+03  0.41800000000E+01 0. -1.
        -11    1    1    2    0    0  0.25778598858E+02  0.48146957551E+02  0.11607032734E+03  0.12827699158E+03  0.00000000000E+00 0.  1.
         11    1    1    2    0    0 -0.18855974278E+02 -0.85897071000E+01 -0.48174087217E+01  0.21272946689E+02  0.00000000000E+00 0. -1.
</event>
<event>
 6    1  0.6597032E-006  0.1661739E+03  0.7561462E-02  0.1181898E+00
          4   -1    0    0  501    0  0.00000000000E+00  0.00000000000E+00  0.28195895552E+02  0.28195895552E+02  0.00000000000E+00 0. -1.
         -4   -1    0    0    0  501 -0.00000000000E+00 -0.00000000000E+00 -0.13445421143E+04  0.13445421143E+04  0.00000000000E+00 0.  1.
          5    1    1    2  502    0  0.17583153598E+02 -0.23911225279E+02 -0.19877723347E+02  0.35965403797E+02  0.41800000000E+01 0.  1.
         -5    1    1    2    0  502  0.11958056661E+03 -0.60427651501E+02 -0.67627540573E+03  0.68943230978E+03  0.41800000000E+01 0.  1.
        -11    1    1    2    0    0 -0.10081998956E+03  0.85163147167E+02 -0.57169235931E+03  0.58672786335E+03  0.00000000000E+00 0.  1.
         11    1    1    2    0    0 -0.36343730650E+02 -0.82427038598E+00 -0.48500730324E+02  0.60612432893E+02  0.00000000000E+00 0. -1.
</event>
<event>
 6    1  0.6597032E-006  0.9564445E+02  0.7561462E-02  0.1289731E+00
          1   -1    0    0  501    0  0.00000000000E+00  0.00000000000E+00  0.14669816576E+03  0.14669816576E+03  0.00000000000E+00 0. -1.
         -1   -1    0    0    0  501 -0.00000000000E+00 -0.00000000000E+00 -0.11158828426E+03  0.11158828426E+03  0.00000000000E+00 0.  1.
          5    1    1    2  502    0 -0.24160020141E+02 -0.48642345451E+02  0.66133953315E+02  0.85679382148E+02  0.41800000000E+01 0.  1.
         -5    1    1    2    0  502  0.17332314553E+02 -0.18031216506E+02 -0.51081714537E+02  0.57029359601E+02  0.41800000000E+01 0.  1.
        -11    1    1    2    0    0  0.48014266069E+02  0.38726684037E+02  0.22711682570E+02  0.65733905466E+02  0.00000000000E+00 0. -1.
         11    1    1    2    0    0 -0.41186560481E+02  0.27946877921E+02 -0.26540398497E+01  0.49843802797E+02  0.00000000000E+00 0.  1.
</event>
<event>
 6    1  0.6597032E-006  0.1087627E+03  0.7561462E-02  0.1262879E+00
         -2   -1    0    0    0  501 -0.00000000000E+00  0.00000000000E+00  0.16353880991E+03  0.16353880991E+03  0.00000000000E+00 0.  1.
          2   -1    0    0  501    0  0.00000000000E+00 -0.00000000000E+00 -0.98022180568E+02  0.98022180568E+02  0.00000000000E+00 0. -1.
          5    1    1    2  502    0 -0.46069850481E+02  0.11408344361E+02  0.74635022438E+02  0.88546261461E+02  0.41800000000E+01 0. -1.
         -5    1    1    2    0  502  0.42630004390E+02 -0.48820480339E+02  0.66360204224E+01  0.65286030220E+02  0.41800000000E+01 0. -1.
        -11    1    1    2    0    0  0.12024010716E+02  0.70106335845E+02 -0.19405982367E+02  0.73729690838E+02  0.00000000000E+00 0. -1.
         11    1    1    2    0    0 -0.85841646253E+01 -0.32694199867E+02  0.36515688487E+01  0.33999007960E+02  0.00000000000E+00 0.  1.
</event>
<event>
 6    1  0.6597032E-006  0.1499000E+03  0.7561462E-02  0.1200596E+00
          4   -1    0    0  501    0  0.00000000000E+00  0.00000000000E+00  0.16716036989E+03  0.16716036989E+03  0.00000000000E+00 0. -1.
         -4   -1    0    0    0  501 -0.00000000000E+00 -0.00000000000E+00 -0.15433686331E+03  0.15433686331E+03  0.00000000000E+00 0.  1.
          5    1    1    2  502    0  0.42532690906E+02 -0.84197497762E+02  0.52517044272E+01  0.94569028886E+02  0.41800000000E+01 0. -1.
         -5    1    1    2    0  502 -0.68691777620E+02 -0.28798223681E+02 -0.16390775777E+02  0.76380808652E+02  0.41800000000E+01 0. -1.
        -11    1    1    2    0    0  0.45385815379E+02  0.67021703993E+02 -0.20788800269E+02  0.83570061986E+02  0.00000000000E+00 0.  1.
         11    1    1    2    0    0 -0.19226728666E+02  0.45974017451E+02  0.44751378204E+02  0.66977333680E+02  0.00000000000E+00 0. -1.
</event>
<event>
 6    1  0.6597032E-006  0.2184134E+03  0.7561462E-02  0.1135071E+00
          2   -1    0    0  501    0  0.00000000000E+00  0.00000000000E+00  0.15520714868E+03  0.15520714868E+03  0.00000000000E+00 0.  1.
         -2   -1    0    0    0  501 -0.00000000000E+00 -0.00000000000E+00 -0.48221577116E+03  0.48221577116E+03  0.00000000000E+00 0. -1.
          5    1    1    2  502    0 -0.34347797734E+02  0.11826203591E+03 -0.15743536491E+03  0.19992260220E+03  0.41800000000E+01 0. -1.
         -5    1    1    2    0  502 -0.10992114728E+03  0.21202955156E+02 -0.18318082881E+03  0.21472054482E+03  0.41800000000E+01 0. -1.
        -11    1    1    2    0    0  0.62689768680E+02 -0.73989163531E+02  0.53584588439E+02  0.11079581010E+03  0.00000000000E+00 0.  1.
         11    1    1    2    0    0  0.81579176337E+02 -0.65475827533E+02 -0.39977017209E+02  0.11198396273E+03  0.00000000000E+00 0. -1.
</event>
<event>
 6    1  0.6597032E-006  0.7546043E+02  0.7561462E-02  0.1342451E+00
          2   -1    0    0  501    0  0.00000000000E+00  0.00000000000E+00  0.18123048379E+03  0.18123048379E+03  0.00000000000E+00 0. -1.
         -2   -1    0    0    0  501 -0.00000000000E+00 -0.00000000000E+00 -0.65555838269E+02  0.65555838269E+02  0.00000000000E+00 0.  1.
          5    1    1    2  502    0 -0.19315936160E+02  0.37132620853E+02  0.66822838947E+02  0.78960123645E+02  0.41800000000E+01 0. -1.
         -5    1    1    2    0  502  0.99135985731E+01 -0.10491820224E+02 -0.37241968932E+02  0.40159611281E+02  0.41800000000E+01 0.  1.
        -11    1    1    2    0    0  0.45389123075E+02 -0.34477277570E+02  0.46196089816E+02  0.73368480129E+02  0.00000000000E+00 0.  1.
         11    1    1    2    0    0 -0.35986785487E+02  0.78364769408E+01  0.39897685687E+02  0.54298106999E+02  0.00000000000E+00 0. -1.
</event>
<event>
 6    1  0.6597032E-006  0.9768584E+02  0.7561462E-02  0.1285239E+00
         -2   -1    0    0    0  501 -0.00000000000E+00  0.00000000000E+00  0.14958773357E+03  0.14958773357E+03  0.00000000000E+00 0.  1.
          2   -1    0    0  501    0  0.00000000000E+00 -0.00000000000E+00 -0.12840055171E+03  0.12840055171E+03  0.00000000000E+00 0. -1.
          5    1    1    2  502    0  0.62132623397E+02  0.22363838834E+02 -0.44468105890E+02  0.79721320982E+02  0.41800000000E+01 0.  1.
         -5    1    1    2    0  502  0.12745308604E+02  0.21753291087E+02  0.70262965049E+02  0.74766337493E+02  0.41800000000E+01 0.  1.
        -11    1    1    2    0    0 -0.19410413954E+02 -0.44097997108E+02  0.31272209195E+02  0.57439956361E+02  0.00000000000E+00 0.  1.
         11    1    1    2    0    0 -0.55467518047E+02 -0.19132812602E-01 -0.35879886495E+02  0.66060670442E+02  0.00000000000E+00 0. -1.
</event>
<event>
 6    1  0.6597032E-006  0.1021744E+03  0.7561462E-02  0.1275789E+00
          1   -1    0    0  501    0  0.00000000000E+00  0.00000000000E+00  0.98362905695E+03  0.98362905695E+03  0.00000000000E+00 0. -1.
         -1   -1    0    0    0  501 -0.00000000000E+00 -0.00000000000E+00 -0.13538257623E+02  0.13538257623E+02  0.00000000000E+00 0.  1.
          5    1    1    2  502    0  0.37234713162E+02 -0.27765910753E+02  0.78101123296E+02  0.90964979659E+02  0.41800000000E+01 0.  1.
         -5    1    1    2    0  502 -0.60473889430E+02 -0.14587534839E+01  0.40285082232E+03  0.40738860650E+03  0.41800000000E+01 0.  1.
        -11    1    1    2    0    0  0.46139170849E+02  0.48649376559E+02  0.36387687159E+03  0.37000265216E+03  0.00000000000E+00 0.  1.
         11    1    1    2    0    0 -0.22899994582E+02 -0.19424712323E+02  0.12526198213E+03  0.12881107626E+03  0.00000000000E+00 0. -1.
</event>
<event>
 6    1  0.6597032E-006  0.8013679E+02  0.7561462E-02  0.1328664E+00
          2   -1    0    0  501    0  0.00000000000E+00  0.00000000000E+00  0.19837736793E+02  0.19837736793E+02  0.00000000000E+00 0.  1.
         -2   -1    0    0    0  501 -0.00000000000E+00 -0.00000000000E+00 -0.89326372868E+03  0.89326372868E+03  0.00000000000E+00 0. -1.
          5    1    1    2  502    0 -0.54809682444E+01 -0.73552330483E+02 -0.20089481420E+03  0.21404715626E+03  0.41800000000E+01 0. -1.
         -5    1    1    2    0  502  0.21534705393E+02  0.18421192407E+02 -0.46725171695E+03  0.46812896007E+03  0.41800000000E+01 0. -1.
        -11    1    1    2    0    0 -0.72271928730E+01  0.35518445741E+02 -0.20623581254E+03  0.20939675900E+03  0.00000000000E+00 0. -1.
         11    1    1    2    0    0 -0.88265442760E+01  0.19612692334E+02  0.95635180589E+00  0.21528590136E+02  0.00000000000E+00 0.  1.
</event>
<event>
 6    1  0.6597032E-006  0.1500298E+03  0.7561462E-02  0.1200436E+00
         -3   -1    0    0    0  501 -0.00000000000E+00  0.00000000000E+00  0.24031434321E+03  0.24031434321E+03  0.00000000000E+00 0.  1.
          3   -1    0    0  501    0  0.00000000000E+00 -0.00000000000E+00 -0.10124397964E+03  0.10124397964E+03  0.00000000000E+00 0. -1.
          5    1    1    2  502    0 -0.32598993456E+02 -0.11571964405E+03  0.84618753918E+02  0.14707663413E+03  0.41800000000E+01 0.  1.
         -5    1    1    2    0  502 -0.28918140879E+02  0.31183012048E+02  0.29924859168E+02  0.52169039751E+02  0.41800000000E+01 0.  1.
        -11    1    1    2    0    0 -0.61675355676E+01  0.66767918986E+02  0.27016350231E+02  0.72290225346E+02  0.00000000000E+00 0. -1.
         11    1    1    2    0    0  0.67684669902E+02  0.17768713015E+02 -0.24895997432E+01  0.70022423615E+02  0.00000000000E+00 0.  1.
</event>
<event>
 6    1  0.6597032E-006  0.1768463E+03  0.7561462E-02  0.1170891E+00
         -2   -1    0    0    0  501 -0.00000000000E+00  0.00000000000E+00  0.67101949557E+03  0.67101949557E+03  0.00000000000E+00 0.  1.
          2   -1    0    0  501    0  0.00000000000E+00 -0.00000000000E+00 -0.53574717239E+02  0.53574717239E+02  0.00000000000E+00 0. -1.
          5    1    1    2  502    0 -0.31993899592E+02  0.49523189966E+02  0.12561615044E+03  0.13882739502E+03  0.41800000000E+01 0. -1.
         -5    1    1    2    0  502 -0.10322544475E+03 -0.73200587917E+02  0.26819477225E+03  0.29658005121E+03  0.41800000000E+01 0. -1.
        -11    1    1    2    0    0 -0.71629903096E+01  0.24562688821E+02  0.91242716659E+02  0.94762162573E+02  0.00000000000E+00 0.  1.
         11    1    1    2    0    0  0.14238233465E+03 -0.88529086965E+00  0.13239113898E+03  0.19442460400E+03  0.00000000000E+00 0. -1.
</event>
<event>
 6    1  0.6597032E-006  0.8914725E+02  0.7561462E-02  0.1304930E+00
          1   -1    0    0  501    0  0.00000000000E+00  0.00000000000E+00  0.20623538028E+03  0.20623538028E+03  0.00000000000E+00 0. -1.
         -1   -1    0    0    0  501 -0.00000000000E+00 -0.00000000000E+00 -0.10273726253E+03  0.10273726253E+03  0.00000000000E+00 0.  1.
          5    1    1    2  502    0 -0.15724848418E+01  0.21903660339E+01 -0.50862777264E+02  0.51105429486E+02  0.41800000000E+01 0.  1.
         -5    1    1    2    0  502  0.82831509241E+02  0.70207682628E+01  0.52328689856E+02  0.98316398897E+02  0.41800000000E+01 0.  1.
        -11    1    1    2    0    0 -0.32605669033E+02 -0.22543032137E+02  0.10164658009E+03  0.10910245275E+03  0.00000000000E+00 0. -1.
         11    1    1    2    0    0 -0.48653355366E+02  0.13331897841E+02  0.38562506231E+00  0.50448361669E+02  0.00000000000E+00 0.  1.
</event>
<event>
 6    1  0.6597032E-006  0.8691242E+02  0.7561462E-02  0.1310506E+00
         -2   -1    0    0    0  501 -0.00000000000E+00  0.00000000000E+00  0.16710022882E+02  0.16710022882E+02  0.00000000000E+00 0.  1.
          2   -1    0    0  501    0  0.00000000000E+00 -0.00000000000E+00 -0.10029007403E+04  0.10029007403E+04  0.00000000000E+00 0. -1.
          5    1    1    2  502    0 -0.45623574383E+02 -0.36697425577E+02 -0.39991032606E+03  0.40419543896E+03  0.41800000000E+01 0. -1.
         -5    1    1    2    0  502  0.36343058961E+01 -0.46623806315E+01  0.83545245064E+01  0.11055155007E+02  0.41800000000E+01 0. -1.
        -11    1    1    2    0    0 -0.28189499657E+02  0.42802426672E+01 -0.16882872491E+03  0.17121946947E+03  0.00000000000E+00 0.  1.
         11    1    1    2    0    0  0.70178768144E+02  0.37079563541E+02 -0.42580619092E+03  0.43314069973E+03  0.00000000000E+00 0. -1.
</event>
<event>
 6    1  0.6597032E-006  0.1175334E+03  0.7561462E-02  0.1247222E+00
         -1   -1    0    0    0  501 -0.00000000000E+00  0.00000000000E+00  0.17767143943E+02  0.17767143943E+02  0.00000000000E+00 0.  1.
          1   -1    0    0  501    0  0.00000000000E+00 -0.00000000000E+00 -0.86513505122E+03  0.86513505122E+03  0.00000000000E+00 0. -1.
          5    1    1    2  502    0 -0.37367070521E+02  0.72658696607E+02 -0.19134571156E+03  0.20810150861E+03  0.41800000000E+01 0.  1.
         -5    1    1    2    0  502  0.45151856876E+02 -0.19417783093E+02 -0.20998989034E+03  0.21570574152E+03  0.41800000000E+01 0.  1.
        -11    1    1    2    0    0 -0.48017714702E+02 -0.36660401030E+02 -0.32281772270E+03  0.32842193596E+03  0.00000000000E+00 0. -1.
         11    1    1    2    0    0  0.40232928347E+02 -0.16580512484E+02 -0.12321458267E+03  0.13067300907E+03  0.00000000000E+00 0.  1.
</event>
<event>
 6    1  0.6597032E-006  0.1010002E+03  0.7561462E-02  0.1278207E+00
          2   -1    0    0  501    0  0.00000000000E+00  0.00000000000E+00  0.11282629431E+03  0.11282629431E+03  0.00000000000E+00 0. -1.
         -2   -1    0    0    0  501 -0.00000000000E+00 -0.00000000000E+00 -0.13629489634E+03  0.13629489634E+03  0.00000000000E+00 0.  1.
          5    1    1    2  502    0  0.73325859306E+01  0.56339926838E+02  0.15470484549E+02  0.59031876683E+02  0.41800000000E+01 0. -1.
         -5    1    1    2    0  502 -0.27857997699E+02 -0.55010106926E+02 -0.68020986673E+02  0.91904879782E+02  0.41800000000E+01 0.  1.
        -11    1    1    2    0    0  0.13502837558E+02  0.39528415867E+02  0.37206156117E+02  0.55938540704E+02  0.00000000000E+00 0.  1.
         11    1    1    2    0    0  0.70225742099E+01 -0.40858235779E+02 -0.81242560259E+01  0.42245893474E+02  0.00000000000E+00 0. -1.
</event>
<event>
 6    1  0.6597032E-006  0.9035904E+02  0.7561462E-02  0.1301985E+00
          1   -1    0    0  501    0  0.00000000000E+00  0.00000000000E+00  0.25152106789E+03  0.25152106789E+03  0.00000000000E+00 0. -1.
         -1   -1    0    0    0  501 -0.00000000000E+00 -0.00000000000E+00 -0.50290081320E+02  0.50290081320E+02  0.00000000000E+00 0.  1.
          5    1    1    2  502    0 -0.11303590096E+02 -0.31964791657E+02  0.91836368564E+02  0.97984233659E+02  0.41800000000E+01 0. -1.
         -5    1    1    2    0  502  0.21230829169E+02  0.50149893124E+02 -0.62766270547E+01  0.54978435179E+02  0.41800000000E+01 0. -1.
        -11    1    1    2    0    0  0.29079605837E+02  0.21597516446E+02  0.60000756556E+02  0.70086853115E+02  0.00000000000E+00 0. -1.
         11    1    1    2    0    0 -0.39006844910E+02 -0.39782617913E+02  0.55670488506E+02  0.78761627258E+02  0.00000000000E+00 0.  1.
</event>
<event>
 6    1  0.6597032E-006  0.9179680E+02  0.7561462E-02  0.1298558E+00
         -1   -1    0    0    0  501 -0.00000000000E+00  0.00000000000E+00  0.43960355002E+02  0.43960355002E+02  0.00000000000E+00 0.  1.
          1   -1    0    0  501    0  0.00000000000E+00 -0.00000000000E+00 -0.53316286841E+03  0.53316286841E+03  0.00000000000E+00 0. -1.
          5    1    1    2  502    0  0.38217096899E+02  0.29324384643E+02 -0.34903112535E+02  0.59633595353E+02  0.41800000000E+01 0.  1.
         -5    1    1    2    0  502  0.32693912465E+02 -0.43476551427E+01 -0.35724625769E+03  0.35878984803E+03  0.41800000000E+01 0.  1.
        -11    1    1    2    0    0 -0.65928922601E+02  0.99851328586E+01 -0.13560548655E+02  0.68045677257E+02  0.00000000000E+00 0.  1.
         11    1    1    2    0    0 -0.49820867631E+01 -0.34961862358E+02 -0.83492594527E+02  0.90654102769E+02  0.00000000000E+00 0. -1.
</event>
<event>
 6    1  0.6597032E-006  0.1645910E+03  0.7561462E-02  0.1183609E+00
          2   -1    0    0  501    0  0.00000000000E+00  0.00000000000E+00  0.48382853573E+03  0.48382853573E+03  0.00000000000E+00 0. -1.
         -2   -1    0    0    0  501 -0.00000000000E+00 -0.00000000000E+00 -0.73690294309E+02  0.73690294309E+02  0.00000000000E+00 0.  1.
          5    1    1    2  502    0 -0.10936923673E+03 -0.70567835721E+02  0.76594596483E+02  0.15108161368E+03  0.41800000000E+01 0. -1.
         -5    1    1    2    0  502  0.33867645764E+02 -0.42568002532E+02  0.30821239845E+02  0.62661579096E+02  0.41800000000E+01 0. -1.
        -11    1    1    2    0    0  0.64525334351E+01  0.51311970519E+02  0.40595761148E+02  0.65746249547E+02  0.00000000000E+00 0.  1.
         11    1    1    2    0    0  0.69049057533E+02  0.61823867734E+02  0.26212664395E+03  0.27802938772E+03  0.00000000000E+00 0. -1.
</event>
<event>
 6    1  0.6597032E-006  0.1155425E+03  0.7561462E-02  0.1250637E+00
          1   -1    0    0  501    0  0.00000000000E+00  0.00000000000E+00  0.91969259772E+03  0.91969259772E+03  0.00000000000E+00 0. -1.
         -1   -1    0    0    0  501 -0.00000000000E+00 -0.00000000000E+00 -0.15351785173E+02  0.15351785173E+02  0.00000000000E+00 0.  1.
          5    1    1    2  502    0  0.62200366887E+02  0.52861401661E+02  0.22475658340E+03  0.23915728633E+03  0.41800000000E+01 0.  1.
         -5    1    1    2    0  502 -0.40820289686E+02 -0.21466533237E+02  0.19837145752E+03  0.20370521755E+03  0.41800000000E+01 0.  1.
        -11    1    1    2    0    0  0.37216922518E+02 -0.23242679958E+02  0.18686639808E+03  0.19194887920E+03  0.00000000000E+00 0.  1.
         11    1    1    2    0    0 -0.58596999719E+02 -0.81521884663E+01  0.29434637355E+03  0.30023299981E+03  0.00000000000E+00 0. -1.
</event>
<event>
 6    1  0.6597032E-006  0.1125615E+03  0.7561462E-02  0.1255899E+00
         -2   -1    0    0    0  501 -0.00000000000E+00  0.00000000000E+00  0.10222690505E+03  0.10222690505E+03  0.00000000000E+00 0.  1.
          2   -1    0    0  501    0  0.00000000000E+00 -0.00000000000E+00 -0.12406768815E+03  0.12406768815E+03  0.00000000000E+00 0. -1.
          5    1    1    2  502    0 -0.53575959502E+02 -0.58681821070E+02 -0.10853242506E+02  0.80306941378E+02  0.41800000000E+01 0. -1.
         -5    1    1    2    0  502  0.39439478481E+02  0.29655226970E+02 -0.27949471203E+01  0.49600293133E+02  0.41800000000E+01 0. -1.
        -11    1    1    2    0    0 -0.34774524086E+02  0.31689832452E+02 -0.34273986018E+01  0.47172662289E+02  0.00000000000E+00 0.  1.
         11    1    1    2    0    0  0.48911005106E+02 -0.26632383521E+01 -0.47651948694E+01  0.49214696394E+02  0.00000000000E+00 0. -1.
</event>
<event>
 6    1  0.6597032E-006  0.1056646E+03  0.7561462E-02  0.1268816E+00
          2   -1    0    0  501    0  0.00000000000E+00  0.00000000000E+00  0.81111489985E+03  0.81111489985E+03  0.00000000000E+00 0. -1.
         -2   -1    0    0    0  501 -0.00000000000E+00 -0.00000000000E+00 -0.16569971474E+02  0.16569971474E+02  0.00000000000E+00 0.  1.
          5    1    1    2  502    0 -0.78856989003E+01  0.45842513125E+02  0.88696459477E+02  0.10024098254E+03  0.41800000000E+01 0. -1.
         -5    1    1    2    0  502  0.47575986741E+02 -0.53400708747E+02  0.37230542431E+03  0.37913574295E+03  0.41800000000E+01 0. -1.
        -11    1    1    2    0    0 -0.54975913443E+02  0.32402123736E+02  0.15871644162E+03  0.17106477580E+03  0.00000000000E+00 0.  1.
         11    1    1    2    0    0  0.15285625602E+02 -0.24843928114E+02  0.17482660297E+03  0.17724337003E+03  0.00000000000E+00 0. -1.
</event>
<event>
 6    1  0.6597032E-006  0.1689325E+03  0.7561462E-02  0.1178966E+00
          2   -1    0    0  501    0  0.00000000000E+00  0.00000000000E+00  0.88058968140E+03  0.88058968140E+03  0.00000000000E+00 0. -1.
         -2   -1    0    0    0  501 -0.00000000000E+00 -0.00000000000E+00 -0.47745561680E+02  0.47745561680E+02  0.00000000000E+00 0.  1.
          5    1    1    2  502    0 -0.16680763910E+02  0.83812506512E+02  0.22646577165E+03  0.24208883134E+03  0.41800000000E+01 0.  1.
         -5    1    1    2    0  502  0.27682099880E+02  0.69627308025E+02  0.27070485393E+02  0.79778093835E+02  0.41800000000E+01 0.  1.
        -11    1    1    2    0    0  0.38767874742E+02 -0.73429339038E+02  0.31904745911E+03  0.32967574540E+03  0.00000000000E+00 0.  1.
         11    1    1    2    0    0 -0.49769210712E+02 -0.80010475499E+02  0.26026040357E+03  0.27679257250E+03  0.00000000000E+00 0. -1.
</event>
<event>
 6    1  0.6597032E-006  0.1439822E+03  0.7561462E-02  0.1208069E+00
         -2   -1    0    0    0  501 -0.00000000000E+00  0.00000000000E+00  0.33963410751E+02  0.33963410751E+02  0.00000000000E+00 0.  1.
          2   -1    0    0  501    0  0.00000000000E+00 -0.00000000000E+00 -0.67508671227E+03  0.67508671227E+03  0.00000000000E+00 0. -1.
          5    1    1    2  502    0  0.81531797740E+02 -0.35725554810E+02 -0.15313777196E+03  0.17717900246E+03  0.41800000000E+01 0. -1.
         -5    1    1    2    0  502  0.12568337080E+02  0.69768883303E+02 -0.11426906741E+03  0.13453829321E+03  0.41800000000E+01 0. -1.
        -11    1    1    2    0    0 -0.62265713377E+02 -0.60218962033E+02 -0.18651463991E+03  0.20564788681E+03  0.00000000000E+00 0.  1.
         11    1    1    2    0    0 -0.31834421443E+02  0.26175633541E+02 -0.18720182224E+03  0.19168494054E+03  0.00000000000E+00 0. -1.
</event>
<event>
 6    1  0.6597032E-006  0.1345060E+03  0.7561462E-02  0.1220919E+00
         -2   -1    0    0    0  501 -0.00000000000E+00  0.00000000000E+00  0.27694420903E+02  0.27694420903E+02  0.00000000000E+00 0.  1.
          2   -1    0    0  501    0  0.00000000000E+00 -0.00000000000E+00 -0.88340722809E+03  0.88340722809E+03  0.00000000000E+00 0. -1.
          5    1    1    2  502    0 -0.60479910297E+02  0.70691741846E+02 -0.10835018494E+03  0.14287188979E+03  0.41800000000E+01 0. -1.
         -5    1    1    2    0  502 -0.29566568462E+02 -0.36036258885E+02 -0.17926230132E+03  0.18527071814E+03  0.41800000000E+01 0. -1.
        -11    1    1    2    0    0  0.73950156455E+01 -0.45166267142E+02 -0.15874747588E+03  0.16521331375E+03  0.00000000000E+00 0.  1.
         11    1    1    2    0    0  0.82651463114E+02  0.10510784181E+02 -0.40935284504E+03  0.41774572731E+03  0.00000000000E+00 0. -1.
</event>
<event>
 6    1  0.6597032E-006  0.1783055E+03  0.7561462E-02  0.1169453E+00
          2   -1    0    0  501    0  0.00000000000E+00  0.00000000000E+00  0.67599492044E+03  0.67599492044E+03  0.00000000000E+00 0. -1.
         -2   -1    0    0    0  501 -0.00000000000E+00 -0.00000000000E+00 -0.67467296966E+02  0.67467296966E+02  0.00000000000E+00 0.  1.
          5    1    1    2  502    0  0.33424368061E+02 -0.16302658800E+03  0.18932746641E+03  0.25210557057E+03  0.41800000000E+01 0.  1.
         -5    1    1    2    0  502  0.21734301469E+02  0.54010501517E+01 -0.82174002442E+01  0.24218779281E+02  0.41800000000E+01 0.  1.
        -11    1    1    2    0    0 -0.50085776650E+02  0.13087584279E+03  0.41341997657E+03  0.43652393781E+03  0.00000000000E+00 0. -1.
         11    1    1    2    0    0 -0.50728928806E+01  0.26749695061E+02  0.13997580736E+02  0.30613929746E+02  0.00000000000E+00 0.  1.
</event>
<event>
 6    1  0.6597032E-006  0.9733700E+02  0.7561462E-02  0.1285998E+00
         -2   -1    0    0    0  501 -0.00000000000E+00  0.00000000000E+00  0.49056533258E+02  0.49056533258E+02  0.00000000000E+00 0. -1.
          2   -1    0    0  501    0  0.00000000000E+00 -0.00000000000E+00 -0.25994890957E+03  0.25994890957E+03  0.00000000000E+00 0.  1.
          5    1    1    2  502    0 -0.41586439139E+02 -0.23186940001E+02 -0.71847895947E+02  0.86294024468E+02  0.41800000000E+01 0.  1.
         -5    1    1    2    0  502  0.52247172078E+02  0.44480203888E+02 -0.22990711105E+02  0.72486555479E+02  0.41800000000E+01 0.  1.
        -11    1    1    2    0    0 -0.39368087519E+02 -0.28419928215E+02 -0.10970892342E+03  0.11997327416E+03  0.00000000000E+00 0.  1.
         11    1    1    2    0    0  0.28707354580E+02  0.71266643280E+01 -0.63448458405E+01  0.30251588722E+02  0.00000000000E+00 0. -1.
</event>
<event>
 6    1  0.6597032E-006  0.1585704E+03  0.7561462E-02  0.1190320E+00
          1   -1    0    0  501    0  0.00000000000E+00  0.00000000000E+00  0.28346241036E+03  0.28346241036E+03  0.00000000000E+00 0. -1.
         -1   -1    0    0    0  501 -0.00000000000E+00 -0.00000000000E+00 -0.13898375884E+03  0.13898375884E+03  0.00000000000E+00 0.  1.
          5    1    1    2  502    0 -0.88371279667E+02  0.99130105064E+02 -0.20264881279E+02  0.13440386383E+03  0.41800000000E+01 0. -1.
         -5    1    1    2    0  502 -0.21530565191E+02 -0.37693970432E+02 -0.17865730874E+02  0.47128095485E+02  0.41800000000E+01 0. -1.
        -11    1    1    2    0    0 -0.79433396361E+01 -0.79829551997E+01 -0.55488137180E+01  0.12554423602E+02  0.00000000000E+00 0.  1.
         11    1    1    2    0    0  0.11784518449E+03 -0.53453179432E+02  0.18815807739E+03  0.22835978628E+03  0.00000000000E+00 0. -1.
</event>
<event>
 6    1  0.6597032E-006  0.2207824E+03  0.7561462E-02  0.1133301E+00
         -2   -1    0    0    0  501 -0.00000000000E+00  0.00000000000E+00  0.11244963321E+03  0.11244963321E+03  0.00000000000E+00 0. -1.
          2   -1    0    0  501    0  0.00000000000E+00 -0.00000000000E+00 -0.45602892688E+03  0.45602892688E+03  0.00000000000E+00 0.  1.
          5    1    1    2  502    0 -0.80902231080E+02 -0.11046370016E+03 -0.61296406467E+02  0.15007372152E+03  0.41800000000E+01 0. -1.
         -5    1    1    2    0  502 -0.90798726263E+02  0.16296425420E+02 -0.77795967093E+02  0.12074629215E+03  0.41800000000E+01 0. -1.
        -11    1    1    2    0    0  0.28677801405E+02  0.58012185035E+02 -0.90363907536E+02  0.11114614564E+03  0.00000000000E+00 0. -1.
         11    1    1    2    0    0  0.14302315594E+03  0.36155089700E+02 -0.11412301257E+03  0.18651240078E+03  0.00000000000E+00 0.  1.
</event>
<event>
 6    1  0.6597032E-006  0.1199783E+03  0.7561462E-02  0.1243133E+00
          2   -1    0    0  501    0  0.00000000000E+00  0.00000000000E+00  0.43200868430E+03  0.43200868430E+03  0.00000000000E+00 0. -1.
         -2   -1    0    0    0  501 -0.00000000000E+00 -0.00000000000E+00 -0.40274361320E+02  0.40274361320E+02  0.00000000000E+00 0.  1.
          5    1    1    2  502    0 -0.73291461902E+02 -0.71075716783E+02  0.20133515407E+03  0.22578023069E+03  0.41800000000E+01 0. -1.
         -5    1    1    2    0  502  0.30204471928E+02  0.84067368434E+01  0.13964032081E+02  0.34575279331E+02  0.41800000000E+01 0. -1.
        -11    1    1    2    0    0  0.24337815644E+02  0.78137177493E+02  0.87831725381E+02  0.12005065498E+03  0.00000000000E+00 0.  1.
         11    1    1    2    0    0  0.18749174330E+02 -0.15468197554E+02  0.88603411441E+02  0.91876880620E+02  0.00000000000E+00 0. -1.
</event>
<event>
 6    1  0.6597032E-006  0.1544407E+03  0.7561462E-02  0.1195120E+00
         -4   -1    0    0    0  501 -0.00000000000E+00  0.00000000000E+00  0.22275043628E+02  0.22275043628E+02  0.00000000000E+00 0.  1.
          4   -1    0    0  501    0  0.00000000000E+00 -0.00000000000E+00 -0.11617137388E+04  0.11617137388E+04  0.00000000000E+00 0. -1.
          5    1    1    2  502    0  0.39170865419E+02  0.41417545944E+02 -0.20290644710E+03  0.21080386260E+03  0.41800000000E+01 0. -1.
         -5    1    1    2    0  502 -0.93816738216E+02  0.59447027398E+02 -0.52328202852E+03  0.53495521608E+03  0.41800000000E+01 0. -1.
        -11    1    1    2    0    0  0.64743417689E+02 -0.34331951596E+02 -0.27308814272E+03  0.28274993675E+03  0.00000000000E+00 0. -1.
         11    1    1    2    0    0 -0.10097544891E+02 -0.66532621745E+02 -0.14016207686E+03  0.15547976704E+03  0.00000000000E+00 0.  1.
</event>
<event>
 6    1  0.6597032E-006  0.1160872E+03  0.7561462E-02  0.1249695E+00
         -1   -1    0    0    0  501 -0.00000000000E+00  0.00000000000E+00  0.23119585263E+03  0.23119585263E+03  0.00000000000E+00 0.  1.
          1   -1    0    0  501    0  0.00000000000E+00 -0.00000000000E+00 -0.75657237064E+02  0.75657237064E+02  0.00000000000E+00 0. -1.
          5    1    1    2  502    0  0.18744571397E+02  0.38483781473E+02  0.39070834077E+02  0.58106478716E+02  0.41800000000E+01 0.  1.
         -5    1    1    2    0  502  0.19961183338E+02 -0.98890702461E+02  0.75752566528E+02  0.12622893333E+03  0.41800000000E+01 0.  1.
        -11    1    1    2    0    0 -0.51067777365E+02  0.53792997232E+02 -0.53506563267E+01  0.74365542823E+02  0.00000000000E+00 0. -1.
         11    1    1    2    0    0  0.12362022630E+02  0.66139237556E+01  0.46065871283E+02  0.48152134823E+02  0.00000000000E+00 0.  1.
</event>
<event>
 6    1  0.6597032E-006  0.1441543E+03  0.7561462E-02  0.1207846E+00
         -2   -1    0    0    0  501 -0.00000000000E+00  0.00000000000E+00  0.45167092291E+02  0.45167092291E+02  0.00000000000E+00 0.  1.
          2   -1    0    0  501    0  0.00000000000E+00 -0.00000000000E+00 -0.54995175835E+03  0.54995175835E+03  0.00000000000E+00 0. -1.
          5    1    1    2  502    0  0.11257575804E+03  0.26710247215E+02 -0.10873008329E+03  0.15882834135E+03  0.41800000000E+01 0. -1.
         -5    1    1    2    0  502 -0.84950453680E+01 -0.41943702510E+02 -0.80077097304E+02  0.90891440129E+02  0.41800000000E+01 0. -1.
        -11    1    1    2    0    0 -0.45946736126E+02 -0.30855431707E+02 -0.20167673915E+03  0.20913313305E+03  0.00000000000E+00 0.  1.
         11    1    1    2    0    0 -0.58133976549E+02  0.46088887002E+02 -0.11430074631E+03  0.13626593610E+03  0.00000000000E+00 0. -1.
</event>
<event>
 6    1  0.6597032E-006  0.7705412E+02  0.7561462E-02  0.1337626E+00
         -1   -1    0    0    0  501 -0.00000000000E+00  0.00000000000E+00  0.18851111869E+04  0.18851111869E+04  0.00000000000E+00 0.  1.
          1   -1    0    0  501    0  0.00000000000E+00 -0.00000000000E+00 -0.12496211755E+02  0.12496211755E+02  0.00000000000E+00 0. -1.
          5    1    1    2  502    0 -0.25952412135E+02 -0.31765761492E+02  0.10220618888E+04  0.10228932341E+04  0.41800000000E+01 0. -1.
         -5    1    1    2    0  502  0.63051854394E+02  0.27015671728E+02  0.81013060166E+03  0.81304024931E+03  0.41800000000E+01 0.  1.
        -11    1    1    2    0    0 -0.89364386790E+01 -0.91128006739E+01  0.21553715044E+02  0.25049265550E+02  0.00000000000E+00 0.  1.
         11    1    1    2    0    0 -0.28163003580E+02  0.13862890438E+02  0.18868769645E+02  0.36624649758E+02  0.00000000000E+00 0. -1.
</event>
<event>
 6    1  0.6597032E-006  0.1311324E+03  0.7561462E-02  0.1225785E+00
          2   -1    0    0  501    0  0.00000000000E+00  0.00000000000E+00  0.42239742985E+03  0.42239742985E+03  0.00000000000E+00 0. -1.
         -2   -1    0    0    0  501 -0.00000000000E+00 -0.00000000000E+00 -0.77606756583E+02  0.77606756583E+02  0.00000000000E+00 0.  1.
          5    1    1    2  502    0  0.66186777668E+02 -0.75389116392E+01 -0.30374018450E+02  0.73331972042E+02  0.41800000000E+01 0. -1.
         -5    1    1    2    0  502  0.29721699441E+02  0.49753006075E+02  0.76841930482E+02  0.96337405567E+02  0.41800000000E+01 0. -1.
        -11    1    1    2    0    0 -0.48884590151E+02 -0.68027944291E+02  0.21994271504E+03  0.23535569307E+03  0.00000000000E+00 0. -1.
         11    1    1    2    0    0 -0.47023886958E+02  0.25813849855E+02  0.78380046196E+02  0.94979115760E+02  0.00000000000E+00 0.  1.
</event>
<event>
 6    1  0.6597032E-006  0.9380883E+02  0.7561462E-02  0.1293882E+00
         -1   -1    0    0    0  501 -0.00000000000E+00  0.00000000000E+00  0.18946037890E+03  0.18946037890E+03  0.00000000000E+00 0.  1.
          1   -1    0    0  501    0  0.00000000000E+00 -0.00000000000E+00 -0.68905660295E+02  0.68905660295E+02  0.00000000000E+00 0. -1.
          5    1    1    2  502    0  0.34148836494E+02  0.27673660068E+02 -0.22204201024E+02  0.49421386449E+02  0.41800000000E+01 0. -1.
         -5    1    1    2    0  502 -0.34437120261E+01 -0.45597696500E+02  0.81492887126E+02  0.93539147584E+02  0.41800000000E+01 0. -1.
        -11    1    1    2    0    0 -0.59487528195E+02 -0.64425909412E+01  0.33501066569E+02  0.68575465366E+02  0.00000000000E+00 0.  1.
         11    1    1    2    0    0  0.28782403728E+02  0.24366627373E+02  0.27764965931E+02  0.46830039794E+02  0.00000000000E+00 0. -1.
</event>
<event>
 6    1  0.6597032E-006  0.1406359E+03  0.7561462E-02  0.1212476E+00
         -1   -1    0    0    0  501 -0.00000000000E+00  0.00000000000E+00  0.17750660717E+04  0.17750660717E+04  0.00000000000E+00 0.  1.
          1   -1    0    0  501    0  0.00000000000E+00 -0.00000000000E+00 -0.19400883852E+02  0.19400883852E+02  0.00000000000E+00 0. -1.
          5    1    1    2  502    0  0.13436621172E+02  0.51644176267E+02  0.31792375594E+03  0.32239827965E+03  0.41800000000E+01 0. -1.
         -5    1    1    2    0  502 -0.11211323330E+03  0.74751350852E+01  0.10695208474E+04  0.10754150688E+04  0.41800000000E+01 0. -1.
        -11    1    1    2    0    0  0.49694764825E+02 -0.25147273117E+02  0.30388768288E+03  0.30894931429E+03  0.00000000000E+00 0.  1.
         11    1    1    2    0    0  0.48981847304E+02 -0.33972038235E+02  0.64332901583E+02  0.87704292787E+02  0.00000000000E+00 0. -1.
</event>
<event>
 6    1  0.6597032E-006  0.1310556E+03  0.7561462E-02  0.1225898E+00
         -2   -1    0    0    0  501 -0.00000000000E+00  0.00000000000E+00  0.57114046873E+02  0.57114046873E+02  0.00000000000E+00 0.  1.
          2   -1    0    0  501    0  0.00000000000E+00 -0.00000000000E+00 -0.39671096341E+03  0.39671096341E+03  0.00000000000E+00 0. -1.
          5    1    1    2  502    0  0.14457362606E+02  0.55546395421E+02 -0.11016376310E+03  0.12428976015E+03  0.41800000000E+01 0. -1.
         -5    1    1    2    0  502  0.70199764854E+02 -0.16066478333E+02 -0.10226079369E+02  0.72857283856E+02  0.41800000000E+01 0. -1.
        -11    1    1    2    0    0 -0.40678989607E+02  0.29758322280E+02 -0.99905229140E+02  0.11189902926E+03  0.00000000000E+00 0.  1.
         11    1    1    2    0    0 -0.43978137852E+02 -0.69238239368E+02 -0.11930184493E+03  0.14477893701E+03  0.00000000000E+00 0. -1.
</event>
<event>
 6    1  0.6597032E-006  0.1687175E+03  0.7561462E-02  0.1179192E+00
         -2   -1    0    0    0  501 -0.00000000000E+00  0.00000000000E+00  0.42839716926E+02  0.42839716926E+02  0.00000000000E+00 0.  1.
          2   -1    0    0  501    0  0.00000000000E+00 -0.00000000000E+00 -0.70201413543E+03  0.70201413543E+03  0.00000000000E+00 0. -1.
          5    1    1    2  502    0  0.27367181392E+02 -0.15659459423E+02 -0.80829802382E+02  0.86862596323E+02  0.41800000000E+01 0. -1.
         -5    1    1    2    0  502 -0.13212268622E+03 -0.66898780944E+02 -0.22277141118E+03  0.26753770789E+03  0.41800000000E+01 0. -1.
        -11    1    1    2    0    0 -0.14063783914E+02  0.27194107198E+01 -0.64653799946E+02  0.66221590589E+02  0.00000000000E+00 0. -1.
         11    1    1    2    0    0  0.11881928874E+03  0.79838829647E+02 -0.29091940500E+03  0.32423195755E+03  0.00000000000E+00 0.  1.
</event>
<event>
 6    1  0.6597032E-006  0.1199782E+03  0.7561462E-02  0.1243133E+00
          2   -1    0    0  501    0  0.00000000000E+00  0.00000000000E+00  0.22954623410E+03  0.22954623410E+03  0.00000000000E+00 0.  1.
         -2   -1    0    0    0  501 -0.00000000000E+00 -0.00000000000E+00 -0.73745899481E+02  0.73745899481E+02  0.00000000000E+00 0. -1.
          5    1    1    2  502    0  0.23560439480E+02  0.75020677052E+02  0.30852841104E+02  0.84572847286E+02  0.41800000000E+01 0.  1.
         -5    1    1    2    0  502 -0.59131658958E+02 -0.19425623278E+02  0.33596909145E+02  0.70852894330E+02  0.41800000000E+01 0.  1.
        -11    1    1    2    0    0  0.42044349229E+02  0.81374280548E+00  0.21236451963E+01  0.42105811337E+02  0.00000000000E+00 0. -1.
         11    1    1    2    0    0 -0.64731297513E+01 -0.56408796580E+02  0.89226939171E+02  0.10576058063E+03  0.00000000000E+00 0.  1.
</event>
<event>
 6    1  0.6597032E-006  0.1284245E+03  0.7561462E-02  0.1229812E+00
          4   -1    0    0  501    0  0.00000000000E+00  0.00000000000E+00  0.51807321821E+03  0.51807321821E+03  0.00000000000E+00 0. -1.
         -4   -1    0    0    0  501 -0.00000000000E+00 -0.00000000000E+00 -0.55670147431E+02  0.55670147431E+02  0.00000000000E+00 0.  1.
          5    1    1    2  502    0 -0.88332366204E+02 -0.56483462828E+02  0.19320444288E+03  0.21985999554E+03  0.41800000000E+01 0.  1.
         -5    1    1    2    0  502 -0.22199095369E+02  0.12763548775E+01 -0.17577449461E+02  0.28650794867E+02  0.41800000000E+01 0.  1.
        -11    1    1    2    0    0  0.57939208636E+02  0.49842502151E+02  0.24844069492E+03  0.25993077119E+03  0.00000000000E+00 0. -1.
         11    1    1    2    0    0  0.52592252938E+02  0.53646057995E+01  0.38335382444E+02  0.65301804045E+02  0.00000000000E+00 0.  1.
</event>
<event>
 6    1  0.1069982E-005  0.1710280E+03  0.7561462E-02  0.1176780E+00
          1   -1    0    0  501    0  0.00000000000E+00  0.00000000000E+00  0.54965718340E+03  0.54965718340E+03  0.00000000000E+00 0. -1.
         -1   -1    0    0    0  501 -0.00000000000E+00 -0.00000000000E+00 -0.68836356791E+02  0.68836356791E+02  0.00000000000E+00 0.  1.
          5    1    1    2  502    0 -0.11214898100E+03 -0.46508186737E+02  0.87100013405E+02  0.14948006592E+03  0.41800000000E+01 0.  1.
         -5    1    1    2    0  502  0.21027270055E+02 -0.67042944073E+02  0.55741281342E+02  0.89785663007E+02  0.41800000000E+01 0.  1.
        -11    1    1    2    0    0  0.23797795452E+02  0.58721379878E+02  0.57306441137E+02  0.85431631840E+02  0.00000000000E+00 0.  1.
         11    1    1    2    0    0  0.67323915494E+02  0.54829750933E+02  0.28067309073E+03  0.29379617942E+03  0.00000000000E+00 0. -1.
</event>
<event>
 6    1  0.6597032E-006  0.1182158E+03  0.7561462E-02  0.1246070E+00
          1   -1    0    0  501    0  0.00000000000E+00  0.00000000000E+00  0.38063301974E+03  0.38063301974E+03  0.00000000000E+00 0. -1.
         -1   -1    0    0    0  501 -0.00000000000E+00 -0.00000000000E+00 -0.48183737553E+02  0.48183737553E+02  0.00000000000E+00 0.  1.
          5    1    1    2  502    0  0.40283394579E+02  0.33439736541E+02  0.11982933259E+02  0.53870501652E+02  0.41800000000E+01 0.  1.
         -5    1    1    2    0  502 -0.50073543758E+02  0.47445594339E+02  0.15744638755E+03  0.17194557732E+03  0.41800000000E+01 0.  1.
        -11    1    1    2    0    0 -0.32821409405E+02 -0.57468893448E+02  0.61081670822E+02  0.90060474904E+02  0.00000000000E+00 0.  1.
         11    1    1    2    0    0  0.42611558583E+02 -0.23416437433E+02  0.10193829056E+03  0.11294020342E+03  0.00000000000E+00 0. -1.
</event>
<event>
 6    1  0.6597032E-006  0.1111793E+03  0.7561462E-02  0.1258401E+00
          1   -1    0    0  501    0  0.00000000000E+00  0.00000000000E+00  0.42351393952E+03  0.42351393952E+03  0.00000000000E+00 0. -1.
         -1   -1    0    0    0  501 -0.00000000000E+00 -0.00000000000E+00 -0.45251308375E+02  0.45251308375E+02  0.00000000000E+00 0.  1.
          5    1    1    2  502    0  0.76152836459E+01  0.27570439598E+02  0.10329493719E+03  0.10726340538E+03  0.41800000000E+01 0. -1.
         -5    1    1    2    0  502 -0.77952179613E+02 -0.20318137085E+02  0.22593781199E+02  0.83769447592E+02  0.41800000000E+01 0. -1.
        -11    1    1    2    0    0 -0.12593706993E+02 -0.24987039207E+02  0.94073182051E+02  0.98146406787E+02  0.00000000000E+00 0. -1.
         11    1    1    2    0    0  0.82930602959E+02  0.17734736694E+02  0.15830073070E+03  0.17958598813E+03  0.00000000000E+00 0.  1.
</event>
<event>
 6    1  0.6597032E-006  0.7958073E+02  0.7561462E-02  0.1330245E+00
         -1   -1    0    0    0  501 -0.00000000000E+00  0.00000000000E+00  0.49407757656E+02  0.49407757656E+02  0.00000000000E+00 0.  1.
          1   -1    0    0  501    0  0.00000000000E+00 -0.00000000000E+00 -0.30212634298E+03  0.30212634298E+03  0.00000000000E+00 0. -1.
          5    1    1    2  502    0 -0.54282750834E+02  0.19468644625E+02 -0.24072506004E+02  0.62630688220E+02  0.41800000000E+01 0. -1.
         -5    1    1    2    0  502  0.15998194698E+02 -0.90772124845E+01 -0.17370761008E+03  0.17472877330E+03  0.41800000000E+01 0. -1.
        -11    1    1    2    0    0  0.52011060002E+02 -0.28849390143E+02 -0.56023061357E+01  0.59739630968E+02  0.00000000000E+00 0.  1.
         11    1    1    2    0    0 -0.13726503866E+02  0.18457958003E+02 -0.49336163109E+02  0.54435008150E+02  0.00000000000E+00 0. -1.
</event>
<event>
 6    1  0.6597032E-006  0.1661133E+03  0.7561462E-02  0.1181963E+00
         -2   -1    0    0    0  501 -0.00000000000E+00  0.00000000000E+00  0.37173923153E+03  0.37173923153E+03  0.00000000000E+00 0.  1.
          2   -1    0    0  501    0  0.00000000000E+00 -0.00000000000E+00 -0.10898177220E+03  0.10898177220E+03  0.00000000000E+00 0. -1.
          5    1    1    2  502    0 -0.46024403317E+02 -0.43386030427E+02  0.11442948429E+03  0.13081350317E+03  0.41800000000E+01 0. -1.
         -5    1    1    2    0  502 -0.94176474973E+02  0.80312504328E+02  0.12780449666E+03  0.17796282914E+03  0.41800000000E+01 0. -1.
        -11    1    1    2    0    0  0.58048157267E+02 -0.14247711769E+02  0.53834072868E+02  0.80440619430E+02  0.00000000000E+00 0.  1.
         11    1    1    2    0    0  0.82152721023E+02 -0.22678762132E+02 -0.33310594500E+02  0.91504051983E+02  0.00000000000E+00 0. -1.
</event>
<event>
 6    1  0.6597032E-006  0.1053036E+03  0.7561462E-02  0.1269523E+00
         -1   -1    0    0    0  501 -0.00000000000E+00  0.00000000000E+00  0.62452458857E+03  0.62452458857E+03  0.00000000000E+00 0.  1.
          1   -1    0    0  501    0  0.00000000000E+00 -0.00000000000E+00 -0.19402304949E+03  0.19402304949E+03  0.00000000000E+00 0. -1.
          5    1    1    2  502    0 -0.43116406482E+02  0.23067269994E+02  0.69274127935E+01  0.49563947593E+02  0.41800000000E+01 0. -1.
         -5    1    1    2    0  502  0.64647477060E+02 -0.35674404194E+02  0.58090761213E+03  0.58559635043E+03  0.41800000000E+01 0.  1.
        -11    1    1    2    0    0 -0.54088821484E+02  0.70730755251E+01 -0.62442389538E+02  0.82913696203E+02  0.00000000000E+00 0. -1.
         11    1    1    2    0    0  0.32557750906E+02  0.55340586747E+01 -0.94891096304E+02  0.10047364384E+03  0.00000000000E+00 0.  1.
</event>
<event>
 6    1  0.6597032E-006  0.1390637E+03  0.7561462E-02  0.1214594E+00
          2   -1    0    0  501    0  0.00000000000E+00  0.00000000000E+00  0.16020010803E+03  0.16020010803E+03  0.00000000000E+00 0. -1.
         -2   -1    0    0    0  501 -0.00000000000E+00 -0.00000000000E+00 -0.16566236136E+03  0.16566236136E+03  0.00000000000E+00 0.  1.
          5    1    1    2  502    0 -0.60580945054E+02 -0.23874919734E+02 -0.32278689467E+02  0.72797313753E+02  0.41800000000E+01 0. -1.
         -5    1    1    2    0  502  0.10964864720E+03 -0.12630780985E+02 -0.48912771505E+02  0.12079856819E+03  0.41800000000E+01 0.  1.
        -11    1    1    2    0    0  0.16970546112E+02  0.32014135846E+02  0.48861755141E+02  0.60830711362E+02  0.00000000000E+00 0. -1.
         11    1    1    2    0    0 -0.66038248253E+02  0.44915648730E+01  0.26867452500E+02  0.71435876079E+02  0.00000000000E+00 0.  1.
</event>
<event>
 6    1  0.6597032E-006  0.6271093E+02  0.7561462E-02  0.1386795E+00
          1   -1    0    0  501    0  0.00000000000E+00  0.00000000000E+00  0.29318178346E+03  0.29318178346E+03  0.00000000000E+00 0. -1.
         -1   -1    0    0    0  501 -0.00000000000E+00 -0.00000000000E+00 -0.45848592475E+02  0.45848592475E+02  0.00000000000E+00 0.  1.
          5    1    1    2  502    0 -0.29355090432E+02 -0.14604774757E+02  0.10639321987E+03  0.11140920256E+03  0.41800000000E+01 0. -1.
         -5    1    1    2    0  502  0.19884042870E+02  0.10920095277E+02 -0.28220757774E+02  0.36448692858E+02  0.41800000000E+01 0. -1.
        -11    1    1    2    0    0  0.54985013084E+01  0.36164401944E+02  0.27452724217E+02  0.45735648585E+02  0.00000000000E+00 0.  1.
         11    1    1    2    0    0  0.39725462538E+01 -0.32479722464E+02  0.14170800467E+03  0.14543683193E+03  0.00000000000E+00 0. -1.
</event>
<event>
 6    1  0.6597032E-006  0.7673329E+02  0.7561462E-02  0.1338586E+00
         -2   -1    0    0    0  501 -0.00000000000E+00  0.00000000000E+00  0.81589445430E+02  0.81589445430E+02  0.00000000000E+00 0.  1.
          2   -1    0    0  501    0  0.00000000000E+00 -0.00000000000E+00 -0.17473458146E+03  0.17473458146E+03  0.00000000000E+00 0. -1.
          5    1    1    2  502    0  0.68957957758E+02  0.29618369948E+02  0.10548520891E+02  0.75902512933E+02  0.41800000000E+01 0. -1.
         -5    1    1    2    0  502 -0.31917612474E+02 -0.24397168603E+01 -0.56473197364E+02  0.65049063213E+02  0.41800000000E+01 0. -1.
        -11    1    1    2    0    0 -0.13120125532E+02 -0.11216058092E+02  0.29088751864E+02  0.33824445866E+02  0.00000000000E+00 0.  1.
         11    1    1    2    0    0 -0.23920219752E+02 -0.15962594996E+02 -0.76309211416E+02  0.81548004874E+02  0.00000000000E+00 0. -1.
</event>
<event>
 6    1  0.6597032E-006  0.8793082E+02  0.7561462E-02  0.1307941E+00
         -1   -1    0    0    0  501 -0.00000000000E+00  0.00000000000E+00  0.12097719003E+03  0.12097719003E+03  0.00000000000E+00 0.  1.
          1   -1    0    0  501    0  0.00000000000E+00 -0.00000000000E+00 -0.18465752556E+03  0.18465752556E+03  0.00000000000E+00 0. -1.
          5    1    1    2  502    0 -0.20926708782E+02  0.22580670747E+02 -0.27646749993E+02  0.41588808795E+02  0.41800000000E+01 0. -1.
         -5    1    1    2    0  502  0.60122826943E+02  0.66944061930E+01  0.85108392463E+02  0.10450110172E+03  0.41800000000E+01 0. -1.
        -11    1    1    2    0    0  0.19732102015E+02 -0.10218618575E+02  0.13751652806E+01  0.22263582260E+02  0.00000000000E+00 0.  1.
         11    1    1    2    0    0 -0.58928220176E+02 -0.19056458365E+02 -0.12251714328E+03  0.13728122281E+03  0.00000000000E+00 0. -1.
</event>
<event>
 6    1  0.6597032E-006  0.2497202E+03  0.7561462E-02  0.1113482E+00
          1   -1    0    0  501    0  0.00000000000E+00  0.00000000000E+00  0.47935656320E+03  0.47935656320E+03  0.00000000000E+00 0. -1.
         -1   -1    0    0    0  501 -0.00000000000E+00 -0.00000000000E+00 -0.19010864101E+03  0.19010864101E+03  0.00000000000E+00 0.  1.
          5    1    1    2  502    0 -0.80110684909E+02 -0.76332207405E+01 -0.64184253562E+02  0.10301979762E+03  0.41800000000E+01 0.  1.
         -5    1    1    2    0  502 -0.16080342316E+03  0.53331483441E+01  0.50803461414E+02  0.16877395374E+03  0.41800000000E+01 0.  1.
        -11    1    1    2    0    0  0.59994818889E+02 -0.40008903218E+02  0.89015969169E+02  0.11455973724E+03  0.00000000000E+00 0.  1.
         11    1    1    2    0    0  0.18091928918E+03  0.42308975614E+02  0.21361274517E+03  0.28311171561E+03  0.00000000000E+00 0. -1.
</event>
<event>
 6    1  0.6597032E-006  0.1142060E+03  0.7561462E-02  0.1252973E+00
          1   -1    0    0  501    0  0.00000000000E+00  0.00000000000E+00  0.57442263618E+02  0.57442263618E+02  0.00000000000E+00 0. -1.
         -1   -1    0    0    0  501 -0.00000000000E+00 -0.00000000000E+00 -0.25013121336E+03  0.25013121336E+03  0.00000000000E+00 0.  1.
          5    1    1    2  502    0  0.78024107844E+02  0.10928836077E+02 -0.94949306629E+02  0.12345057348E+03  0.41800000000E+01 0.  1.
         -5    1    1    2    0  502 -0.25502917724E+02 -0.43322498681E+02 -0.10796638790E+02  0.51587571309E+02  0.41800000000E+01 0.  1.
        -11    1    1    2    0    0 -0.70858321029E+02  0.12389628607E+02 -0.70950772830E+02  0.10103670977E+03  0.00000000000E+00 0. -1.
         11    1    1    2    0    0  0.18337130908E+02  0.20004033997E+02 -0.15992231489E+02  0.31498622416E+02  0.00000000000E+00 0.  1.
</event>
<event>
 6    1  0.6597032E-006  0.1866208E+03  0.7561462E-02  0.1161545E+00
          3   -1    0    0  501    0  0.00000000000E+00  0.00000000000E+00  0.82672183527E+02  0.82672183527E+02  0.00000000000E+00 0. -1.
         -3   -1    0    0    0  501 -0.00000000000E+00 -0.00000000000E+00 -0.47017002676E+03  0.47017002676E+03  0.00000000000E+00 0.  1.
          5    1    1    2  502    0 -0.16190779705E+03 -0.71680170647E+02 -0.20446788427E+03  0.27051205095E+03  0.41800000000E+01 0. -1.
         -5    1    1    2    0  502  0.58552711686E+01  0.26892104725E+02 -0.32868950776E+02  0.43073307536E+02  0.41800000000E+01 0. -1.
        -11    1    1    2    0    0  0.29761878831E+02 -0.88943210019E+01  0.57140163044E+01  0.31583672363E+02  0.00000000000E+00 0. -1.
         11    1    1    2    0    0  0.12629064705E+03  0.53682386924E+02 -0.15587502450E+03  0.20767317944E+03  0.00000000000E+00 0.  1.
</event>
<event>
 6    1  0.6597032E-006  0.1515201E+03  0.7561462E-02  0.1198617E+00
          1   -1    0    0  501    0  0.00000000000E+00  0.00000000000E+00  0.13430073583E+04  0.13430073583E+04  0.00000000000E+00 0. -1.
         -1   -1    0    0    0  501 -0.00000000000E+00 -0.00000000000E+00 -0.23312028982E+02  0.23312028982E+02  0.00000000000E+00 0.  1.
          5    1    1    2  502    0  0.13839805819E+03 -0.47134799360E+02  0.74168468747E+03  0.75596915271E+03  0.41800000000E+01 0. -1.
         -5    1    1    2    0  502 -0.10063133024E+02 -0.15772246937E+01  0.28409112342E+01  0.11370904126E+02  0.41800000000E+01 0. -1.
        -11    1    1    2    0    0 -0.68823390417E+02  0.51854199884E+02  0.47227907900E+03  0.48007608311E+03  0.00000000000E+00 0. -1.
         11    1    1    2    0    0 -0.59511534744E+02 -0.31421758301E+01  0.10289065158E+03  0.11890324730E+03  0.00000000000E+00 0.  1.
</event>
<event>
 6    1  0.6597032E-006  0.7692143E+02  0.7561462E-02  0.1338022E+00
         -2   -1    0    0    0  501 -0.00000000000E+00  0.00000000000E+00  0.28918822349E+03  0.28918822349E+03  0.00000000000E+00 0.  1.
          2   -1    0    0  501    0  0.00000000000E+00 -0.00000000000E+00 -0.59401295142E+02  0.59401295142E+02  0.00000000000E+00 0. -1.
          5    1    1    2  502    0 -0.43209394185E+02  0.11605507946E+02  0.16488415915E+03  0.17089762403E+03  0.41800000000E+01 0.  1.
         -5    1    1    2    0  502 -0.27750979208E+02  0.14594640550E+02 -0.17947773132E+02  0.36369153690E+02  0.41800000000E+01 0.  1.
        -11    1    1    2    0    0  0.44278479478E+02 -0.80478832085E+01  0.96349679303E+02  0.10634196195E+03  0.00000000000E+00 0.  1.
         11    1    1    2    0    0  0.26681893915E+02 -0.18152265287E+02 -0.13499136974E+02  0.34980778964E+02  0.00000000000E+00 0. -1.
</event>
<event>
 6    1  0.6597032E-006  0.8859373E+02  0.7561462E-02  0.1306293E+00
          2   -1    0    0  501    0  0.00000000000E+00  0.00000000000E+00  0.70921046322E+02  0.70921046322E+02  0.00000000000E+00 0. -1.
         -2   -1    0    0    0  501 -0.00000000000E+00 -0.00000000000E+00 -0.19435846185E+03  0.19435846185E+03  0.00000000000E+00 0.  1.
          5    1    1    2  502    0 -0.54086606077E+02  0.24309678375E+02 -0.29707779161E+02  0.66455593913E+02  0.41800000000E+01 0.  1.
         -5    1    1    2    0  502  0.34072284465E+02 -0.63700332594E+02 -0.55791650906E+02  0.91371952218E+02  0.41800000000E+01 0.  1.
        -11    1    1    2    0    0  0.18464186952E+02  0.25936679954E+02 -0.67667425351E+02  0.74783139948E+02  0.00000000000E+00 0.  1.
         11    1    1    2    0    0  0.15501346599E+01  0.13453974265E+02  0.29729439888E+02  0.32668822095E+02  0.00000000000E+00 0. -1.
</event>
<event>
 6    1  0.6597032E-006  0.1167625E+03  0.7561462E-02  0.1248536E+00
         -1   -1    0    0    0  501 -0.00000000000E+00  0.00000000000E+00  0.14358808519E+03  0.14358808519E+03  0.00000000000E+00 0.  1.
          1   -1    0    0  501    0  0.00000000000E+00 -0.00000000000E+00 -0.18982419398E+03  0.18982419398E+03  0.00000000000E+00 0. -1.
          5    1    1    2  502    0 -0.15484804337E+01  0.30074041104E+02 -0.46447912531E+02  0.55513302176E+02  0.41800000000E+01 0. -1.
         -5    1    1    2    0  502 -0.64853262344E+02  0.58958463628E+02  0.72422348251E+02  0.11377396449E+03  0.41800000000E+01 0. -1.
        -11    1    1    2    0    0  0.41501933366E+02 -0.77547262637E+02 -0.11550358012E+01  0.87962051610E+02  0.00000000000E+00 0.  1.
         11    1    1    2    0    0  0.24899809411E+02 -0.11485242094E+02 -0.71055508706E+02  0.76162960894E+02  0.00000000000E+00 0. -1.
</event>
<event>
 6    1  0.6597032E-006  0.8493149E+02  0.7561462E-02  0.1315612E+00
          1   -1    0    0  501    0  0.00000000000E+00  0.00000000000E+00  0.45080361211E+02  0.45080361211E+02  0.00000000000E+00 0. -1.
         -1   -1    0    0    0  501 -0.00000000000E+00 -0.00000000000E+00 -0.25343993798E+03  0.25343993798E+03  0.00000000000E+00 0.  1.
          5    1    1    2  502    0  0.27944910575E+02 -0.89103742792E+01 -0.12699930600E+03  0.13040938970E+03  0.41800000000E+01 0. -1.
         -5    1    1    2    0  502 -0.46635075879E+02  0.19843080336E+02 -0.14845489450E+02  0.52975835023E+02  0.41800000000E+01 0.  1.
        -11    1    1    2    0    0  0.14373138982E+02 -0.49003315721E+02 -0.19932325826E+02  0.54819792856E+02  0.00000000000E+00 0. -1.
         11    1    1    2    0    0  0.43170263214E+01  0.38070609665E+02 -0.46582455492E+02  0.60315281614E+02  0.00000000000E+00 0.  1.
</event>
<event>
 6    1  0.6722726E-006  0.1428801E+03  0.7561462E-02  0.1209505E+00
         -2   -1    0    0    0  501 -0.00000000000E+00  0.00000000000E+00  0.76003155822E+02  0.76003155822E+02  0.00000000000E+00 0.  1.
          2   -1    0    0  501    0  0.00000000000E+00 -0.00000000000E+00 -0.37846520048E+03  0.37846520048E+03  0.00000000000E+00 0. -1.
          5    1    1    2  502    0  0.76687519104E+02 -0.19904182509E+02 -0.25185001146E+02  0.83240066978E+02  0.41800000000E+01 0. -1.
         -5    1    1    2    0  502  0.17530432047E+02  0.87609129060E+02 -0.57695735622E+02  0.10643752088E+03  0.41800000000E+01 0. -1.
        -11    1    1    2    0    0 -0.62391264444E+02 -0.53235761524E+02 -0.21426718715E+03  0.22942786159E+03  0.00000000000E+00 0. -1.
         11    1    1    2    0    0 -0.31826686708E+02 -0.14469185027E+02 -0.53141207440E+01  0.35362906857E+02  0.00000000000E+00 0.  1.
</event>
<event>
 6    1  0.6597032E-006  0.7619186E+02  0.7561462E-02  0.1340219E+00
         -2   -1    0    0    0  501 -0.00000000000E+00  0.00000000000E+00  0.27472539354E+03  0.27472539354E+03  0.00000000000E+00 0. -1.
          2   -1    0    0  501    0  0.00000000000E+00 -0.00000000000E+00 -0.63448062586E+02  0.63448062586E+02  0.00000000000E+00 0.  1.
          5    1    1    2  502    0  0.68897370738E+02 -0.44790444543E-01  0.18713635089E+03  0.19946011111E+03  0.41800000000E+01 0.  1.
         -5    1    1    2    0  502 -0.35501960271E+02 -0.14376288493E+02  0.15700800180E+02  0.41605941646E+02  0.41800000000E+01 0.  1.
        -11    1    1    2    0    0 -0.32902480516E+02  0.26070352694E+01  0.46629949786E+02  0.57128995038E+02  0.00000000000E+00 0. -1.
         11    1    1    2    0    0 -0.49292995107E+00  0.11814043668E+02 -0.38189769900E+02  0.39978408332E+02  0.00000000000E+00 0.  1.
</event>
<event>
 6    1  0.6597032E-006  0.1132114E+03  0.7561462E-02  0.1254736E+00
         -2   -1    0    0    0  501 -0.00000000000E+00  0.00000000000E+00  0.18097588362E+03  0.18097588362E+03  0.00000000000E+00 0.  1.
          2   -1    0    0  501    0  0.00000000000E+00 -0.00000000000E+00 -0.79389718430E+02  0.79389718430E+02  0.00000000000E+00 0. -1.
          5    1    1    2  502    0  0.57242970557E+02  0.55621745431E+02  0.42739996901E+02  0.90635070354E+02  0.41800000000E+01 0.  1.
         -5    1    1    2    0  502 -0.36992694126E+02 -0.28378465446E+02  0.51654882031E+02  0.69710085048E+02  0.41800000000E+01 0.  1.
        -11    1    1    2    0    0 -0.52424760855E+02 -0.39096838925E+02  0.28752099025E+01  0.65461325961E+02  0.00000000000E+00 0. -1.
         11    1    1    2    0    0  0.32174484424E+02  0.11853558940E+02  0.43160763561E+01  0.34559120687E+02  0.00000000000E+00 0.  1.
</event>
<event>
 6    1  0.6597032E-006  0.1460458E+03  0.7561462E-02  0.1205418E+00
          2   -1    0    0  501    0  0.00000000000E+00  0.00000000000E+00  0.34413707709E+03  0.34413707709E+03  0.00000000000E+00 0. -1.
         -2   -1    0    0    0  501 -0.00000000000E+00 -0.00000000000E+00 -0.74651669994E+02  0.74651669994E+02  0.00000000000E+00 0.  1.
          5    1    1    2  502    0  0.76231450945E+02  0.10153919417E+03  0.94747713494E+02  0.15848042049E+03  0.41800000000E+01 0.  1.
         -5    1    1    2    0  502 -0.86497096163E+00 -0.23754175826E+02 -0.11515853033E+02  0.26741284842E+02  0.41800000000E+01 0.  1.
        -11    1    1    2    0    0 -0.47753605480E+02  0.10088789722E+02  0.66340931365E+02  0.82360850462E+02  0.00000000000E+00 0. -1.
         11    1    1    2    0    0 -0.27612874503E+02 -0.87873808070E+02  0.11991261527E+03  0.15120619129E+03  0.00000000000E+00 0.  1.
</event>
<event>
 6    1  0.6597032E-006  0.1018826E+03  0.7561462E-02  0.1276386E+00
         -1   -1    0    0    0  501 -0.00000000000E+00  0.00000000000E+00  0.41000937256E+03  0.41000937256E+03  0.00000000000E+00 0.  1.
          1   -1    0    0  501    0  0.00000000000E+00 -0.00000000000E+00 -0.37478472268E+02  0.37478472268E+02  0.00000000000E+00 0. -1.
          5    1    1    2  502    0  0.19373027776E+02  0.25136021972E+02  0.90829084644E+01  0.33273193894E+02  0.41800000000E+01 0. -1.
         -5    1    1    2    0  502  0.14228177497E+02 -0.65948388504E+02  0.25338988943E+03  0.26225090933E+03  0.41800000000E+01 0. -1.
        -11    1    1    2    0    0 -0.57417561440E+02  0.59530583131E+00  0.52356499112E+02  0.77706716248E+02  0.00000000000E+00 0. -1.
         11    1    1    2    0    0  0.23816356167E+02  0.40217060701E+02  0.57701603288E+02  0.74257025354E+02  0.00000000000E+00 0.  1.
</event>
<event>
 6    1  0.6597032E-006  0.1120359E+03  0.7561462E-02  0.1256845E+00
          1   -1    0    0  501    0  0.00000000000E+00  0.00000000000E+00  0.13798326691E+03  0.13798326691E+03  0.00000000000E+00 0. -1.
         -1   -1    0    0    0  501 -0.00000000000E+00 -0.00000000000E+00 -0.12366503426E+03  0.12366503426E+03  0.00000000000E+00 0.  1.
          5    1    1    2  502    0  0.10483828635E+02  0.89416496369E+02 -0.51119289421E+02  0.10361406582E+03  0.41800000000E+01 0. -1.
         -5    1    1    2    0  502 -0.10150135916E+00 -0.23527157114E+02  0.31461360246E+02  0.39507303286E+02  0.41800000000E+01 0. -1.
        -11    1    1    2    0    0 -0.48949137510E+02 -0.30279168055E+02  0.32314094416E+02  0.66007929668E+02  0.00000000000E+00 0. -1.
         11    1    1    2    0    0  0.38566810234E+02 -0.35610171199E+02  0.16620674039E+01  0.52519002394E+02  0.00000000000E+00 0.  1.
</event>
<event>
 6    1  0.1077418E-005  0.2092661E+03  0.7561462E-02  0.1142149E+00
          1   -1    0    0  501    0  0.00000000000E+00  0.00000000000E+00  0.12716755462E+04  0.12716755462E+04  0.00000000000E+00 0. -1.
         -1   -1    0    0    0  501 -0.00000000000E+00 -0.00000000000E+00 -0.41151725204E+02  0.41151725204E+02  0.00000000000E+00 0.  1.
          5    1    1    2  502    0 -0.13782668510E+03 -0.13476819857E+03  0.40379992833E+03  0.44747124711E+03  0.41800000000E+01 0. -1.
         -5    1    1    2    0  502 -0.78269623851E+01  0.19670815009E+02  0.11835632387E+02  0.24612129068E+02  0.41800000000E+01 0. -1.
        -11    1    1    2    0    0  0.72069002437E+02  0.10850988676E+03  0.58281995529E+03  0.59719966252E+03  0.00000000000E+00 0.  1.
         11    1    1    2    0    0  0.73584645048E+02  0.65874968037E+01  0.23206830498E+03  0.24354423269E+03  0.00000000000E+00 0. -1.
</event>
<event>
 6    1  0.6597032E-006  0.1173935E+03  0.7561462E-02  0.1247460E+00
          1   -1    0    0  501    0  0.00000000000E+00  0.00000000000E+00  0.39180710098E+03  0.39180710098E+03  0.00000000000E+00 0. -1.
         -1   -1    0    0    0  501 -0.00000000000E+00 -0.00000000000E+00 -0.50541522451E+02  0.50541522451E+02  0.00000000000E+00 0.  1.
          5    1    1    2  502    0  0.68139703090E+01  0.21038146998E+02  0.76630374508E+02  0.79866892500E+02  0.41800000000E+01 0.  1.
         -5    1    1    2    0  502 -0.43203142677E+02 -0.85889968045E+02  0.30896836290E+02  0.10107267208E+03  0.41800000000E+01 0.  1.
        -11    1    1    2    0    0  0.66083818792E+02  0.49852715060E+02  0.18136399200E+03  0.19936213758E+03  0.00000000000E+00 0. -1.
         11    1    1    2    0    0 -0.29694646424E+02  0.14999105987E+02  0.52374375733E+02  0.62046921278E+02  0.00000000000E+00 0.  1.
</event>
<event>
 6    1  0.6597032E-006  0.9933010E+02  0.7561462E-02  0.1281711E+00
         -2   -1    0    0    0  501 -0.00000000000E+00  0.00000000000E+00  0.18121394534E+02  0.18121394534E+02  0.00000000000E+00 0.  1.
          2   -1    0    0  501    0  0.00000000000E+00 -0.00000000000E+00 -0.68072827933E+03  0.68072827933E+03  0.00000000000E+00 0. -1.
          5    1    1    2  502    0  0.10027494344E+02  0.45145245728E+02 -0.19347517897E+03  0.19896924670E+03  0.41800000000E+01 0. -1.
         -5    1    1    2    0  502 -0.48564556447E+02 -0.47908299816E+02 -0.16328484059E+03  0.17701167447E+03  0.41800000000E+01 0.  1.
        -11    1    1    2    0    0  0.39919422616E+02  0.34106976927E+02 -0.27074445054E+03  0.27578869389E+03  0.00000000000E+00 0. -1.
         11    1    1    2    0    0 -0.13823605127E+01 -0.31343922839E+02 -0.35102414702E+02  0.47080058809E+02  0.00000000000E+00 0.  1.
</event>
<event>
 6    1  0.6597032E-006  0.1130406E+03  0.7561462E-02  0.1255041E+00
         -1   -1    0    0    0  501 -0.00000000000E+00  0.00000000000E+00  0.35523569982E+02  0.35523569982E+02  0.00000000000E+00 0.  1.
          1   -1    0    0  501    0  0.00000000000E+00 -0.00000000000E+00 -0.56625547122E+03  0.56625547122E+03  0.00000000000E+00 0. -1.
          5    1    1    2  502    0  0.14999494917E+02  0.40120660065E+02 -0.56629577455E+02  0.71126884190E+02  0.41800000000E+01 0. -1.
         -5    1    1    2    0  502 -0.44601151423E+02 -0.75503094037E+02 -0.63620134315E+02  0.10842035698E+03  0.41800000000E+01 0. -1.
        -11    1    1    2    0    0 -0.27620862131E+02  0.24674335272E+02 -0.21851344980E+03  0.22163001283E+03  0.00000000000E+00 0. -1.
         11    1    1    2    0    0  0.57222518638E+02  0.10708098700E+02 -0.19196873967E+03  0.20060178720E+03  0.00000000000E+00 0.  1.
</event>
<event>
 6    1  0.6597032E-006  0.1144336E+03  0.7561462E-02  0.1252573E+00
         -1   -1    0    0    0  501 -0.00000000000E+00  0.00000000000E+00  0.84655132553E+03  0.84655132553E+03  0.00000000000E+00 0.  1.
          1   -1    0    0  501    0  0.00000000000E+00 -0.00000000000E+00 -0.16884316512E+02  0.16884316512E+02  0.00000000000E+00 0. -1.
          5    1    1    2  502    0  0.71158010034E+02  0.23347410480E+02  0.35923423804E+03  0.36698129945E+03  0.41800000000E+01 0. -1.
         -5    1    1    2    0  502 -0.27648215169E+02 -0.46975946844E+02  0.19032526018E+03  0.19802106062E+03  0.41800000000E+01 0.  1.
        -11    1    1    2    0    0 -0.68125776260E+02  0.49759942674E+01  0.22638528488E+03  0.23646602107E+03  0.00000000000E+00 0.  1.
         11    1    1    2    0    0  0.24615981396E+02  0.18652542097E+02  0.53722225918E+02  0.61967260907E+02  0.00000000000E+00 0. -1.
</event>
<event>
 6    1  0.6597032E-006  0.1102214E+03  0.7561462E-02  0.1260160E+00
          2   -1    0    0  501    0  0.00000000000E+00  0.00000000000E+00  0.31231413317E+03  0.31231413317E+03  0.00000000000E+00 0. -1.
         -2   -1    0    0    0  501 -0.00000000000E+00 -0.00000000000E+00 -0.46421929636E+02  0.46421929636E+02  0.00000000000E+00 0.  1.
          5    1    1    2  502    0  0.74032148466E+02 -0.41874616370E+01  0.10108338130E+03  0.12543371244E+03  0.41800000000E+01 0.  1.
         -5    1    1    2    0  502 -0.43594392386E+02 -0.36060587569E+02  0.37795418557E+02  0.68167463552E+02  0.41800000000E+01 0.  1.
        -11    1    1    2    0    0 -0.42423217002E+02 -0.49252481257E+01  0.17664695581E+02  0.46217192470E+02  0.00000000000E+00 0.  1.
         11    1    1    2    0    0  0.11985460922E+02  0.45173297331E+02  0.10934870810E+03  0.11891769434E+03  0.00000000000E+00 0. -1.
</event>
<event>
 6    1  0.6597032E-006  0.9539053E+02  0.7561462E-02  0.1290299E+00
          2   -1    0    0  501    0  0.00000000000E+00  0.00000000000E+00  0.44312377694E+03  0.44312377694E+03  0.00000000000E+00 0. -1.
         -2   -1    0    0    0  501 -0.00000000000E+00 -0.00000000000E+00 -0.43855380273E+02  0.43855380273E+02  0.00000000000E+00 0.  1.
          5    1    1    2  502    0 -0.55576587882E+01  0.18122543723E+02 -0.12877053709E+02  0.23293884915E+02  0.41800000000E+01 0.  1.
         -5    1    1    2    0  502 -0.70920685348E+02 -0.51633313666E+02  0.18824710251E+03  0.20772623015E+03  0.41800000000E+01 0.  1.
        -11    1    1    2    0    0  0.29448730282E+02  0.11417038012E+02  0.62534871950E+01  0.32197555408E+02  0.00000000000E+00 0.  1.
         11    1    1    2    0    0  0.47029613855E+02  0.22093731931E+02  0.21764486068E+03  0.22376148674E+03  0.00000000000E+00 0. -1.
</event>
<event>
 6    1  0.6597032E-006  0.1014998E+03  0.7561462E-02  0.1277173E+00
          1   -1    0    0  501    0  0.00000000000E+00  0.00000000000E+00  0.25247271090E+03  0.25247271090E+03  0.00000000000E+00 0. -1.
         -1   -1    0    0    0  501 -0.00000000000E+00 -0.00000000000E+00 -0.13880953660E+03  0.13880953660E+03  0.00000000000E+00 0.  1.
          5    1    1    2  502    0  0.15193165695E+02 -0.74911626788E+02 -0.12368487100E+02  0.77543768189E+02  0.41800000000E+01 0. -1.
         -5    1    1    2    0  502  0.29159865016E+01  0.18221092938E+02 -0.79458152018E+02  0.81679749799E+02  0.41800000000E+01 0.  1.
        -11    1    1    2    0    0  0.28987843769E+02 -0.55119365815E+01  0.49019531641E+02  0.57215304016E+02  0.00000000000E+00 0.  1.
         11    1    1    2    0    0 -0.47096995966E+02  0.62202470432E+02  0.15647028179E+03  0.17484342550E+03  0.00000000000E+00 0. -1.
</event>
<event>
 6    1  0.6597032E-006  0.1821655E+03  0.7561462E-02  0.1165724E+00
          1   -1    0    0  501    0  0.00000000000E+00  0.00000000000E+00  0.28443262355E+03  0.28443262355E+03  0.00000000000E+00 0. -1.
         -1   -1    0    0    0  501 -0.00000000000E+00 -0.00000000000E+00 -0.13700697573E+03  0.13700697573E+03  0.00000000000E+00 0.  1.
          5    1    1    2  502    0 -0.11498509888E+02 -0.36749656460E+02  0.14835708901E+02  0.41476784328E+02  0.41800000000E+01 0.  1.
         -5    1    1    2    0  502 -0.13971758815E+03  0.78359565067E+02  0.83949410773E+01  0.16046548948E+03  0.41800000000E+01 0.  1.
        -11    1    1    2    0    0  0.88270854235E+02  0.28043278886E+01  0.21103807854E+02  0.90801864894E+02  0.00000000000E+00 0.  1.
         11    1    1    2    0    0  0.62945243806E+02 -0.44414236495E+02  0.10309118999E+03  0.12869546058E+03  0.00000000000E+00 0. -1.
</event>
<event>
 6    1  0.6597032E-006  0.7332614E+02  0.7561462E-02  0.1349134E+00
         -1   -1    0    0    0  501 -0.00000000000E+00  0.00000000000E+00  0.21090722208E+03  0.21090722208E+03  0.00000000000E+00 0.  1.
          1   -1    0    0  501    0  0.00000000000E+00 -0.00000000000E+00 -0.88236405747E+02  0.88236405747E+02  0.00000000000E+00 0. -1.
          5    1    1    2  502    0 -0.38957507431E+02 -0.23536425280E+02 -0.50021963637E+01  0.45979833282E+02  0.41800000000E+01 0. -1.
         -5    1    1    2    0  502  0.19374701708E+02 -0.20348908657E+02  0.14523302435E+03  0.14798500232E+03  0.41800000000E+01 0. -1.
        -11    1    1    2    0    0 -0.18770211627E+02  0.19628731675E+02  0.29297054275E+02  0.39949034293E+02  0.00000000000E+00 0.  1.
         11    1    1    2    0    0  0.38353017350E+02  0.24256602262E+02 -0.46857065925E+02  0.65229757935E+02  0.00000000000E+00 0. -1.
</event>
<event>
 6    1  0.6597032E-006  0.2138291E+03  0.7561462E-02  0.1138569E+00
         -2   -1    0    0    0  501 -0.00000000000E+00  0.00000000000E+00  0.81549570552E+02  0.81549570552E+02  0.00000000000E+00 0.  1.
          2   -1    0    0  501    0  0.00000000000E+00 -0.00000000000E+00 -0.88654220295E+03  0.88654220295E+03  0.00000000000E+00 0. -1.
          5    1    1    2  502    0  0.85047417196E+01  0.53666172487E+02  0.52155117714E+01  0.54745435099E+02  0.41800000000E+01 0.  1.
         -5    1    1    2    0  502  0.14379714801E+03  0.66475681926E+02 -0.14692964947E+03  0.21610745095E+03  0.41800000000E+01 0.  1.
        -11    1    1    2    0    0 -0.13433070924E+03 -0.51717438000E+02 -0.46064273912E+03  0.48260870894E+03  0.00000000000E+00 0.  1.
         11    1    1    2    0    0 -0.17971180490E+02 -0.68424416412E+02 -0.20263575559E+03  0.21463017852E+03  0.00000000000E+00 0. -1.
</event>
<event>
 6    1  0.6597032E-006  0.1078942E+03  0.7561462E-02  0.1264520E+00
          2   -1    0    0  501    0  0.00000000000E+00  0.00000000000E+00  0.40022384621E+03  0.40022384621E+03  0.00000000000E+00 0. -1.
         -2   -1    0    0    0  501 -0.00000000000E+00 -0.00000000000E+00 -0.37791939282E+02  0.37791939282E+02  0.00000000000E+00 0.  1.
          5    1    1    2  502    0 -0.58004399093E+00 -0.55913450250E+02  0.12482995548E+03  0.13684531616E+03  0.41800000000E+01 0. -1.
         -5    1    1    2    0  502  0.49123782692E+02  0.19517328708E+02  0.18503999329E+02  0.56159972730E+02  0.41800000000E+01 0.  1.
        -11    1    1    2    0    0 -0.59003544468E+02 -0.93725330786E+01  0.15011815576E+03  0.16156956188E+03  0.00000000000E+00 0.  1.
         11    1    1    2    0    0  0.10459805767E+02  0.45768654620E+02  0.68979796367E+02  0.83440934734E+02  0.00000000000E+00 0. -1.
</event>
<event>
 6    1  0.6597032E-006  0.8481706E+02  0.7561462E-02  0.1315912E+00
          2   -1    0    0  501    0  0.00000000000E+00  0.00000000000E+00  0.54816470372E+02  0.54816470372E+02  0.00000000000E+00 0. -1.
         -2   -1    0    0    0  501 -0.00000000000E+00 -0.00000000000E+00 -0.22275094154E+03  0.22275094154E+03  0.00000000000E+00 0.  1.
          5    1    1    2  502    0  0.23117185903E+02 -0.60635819761E+02 -0.74709993946E+02  0.99046264531E+02  0.41800000000E+01 0.  1.
         -5    1    1    2    0  502 -0.28359117735E+02  0.52324644421E+02 -0.49733323454E+02  0.77672284853E+02  0.41800000000E+01 0.  1.
        -11    1    1    2    0    0  0.10755386006E+02 -0.16407397200E+02 -0.64828899188E+02  0.67732320062E+02  0.00000000000E+00 0.  1.
         11    1    1    2    0    0 -0.55134541736E+01  0.24718572540E+02  0.21337745420E+02  0.33116542467E+02  0.00000000000E+00 0. -1.
</event>
<event>
 6    1  0.6597032E-006  0.1094771E+03  0.7561462E-02  0.1261541E+00
         -1   -1    0    0    0  501 -0.00000000000E+00  0.00000000000E+00  0.28290208003E+02  0.28290208003E+02  0.00000000000E+00 0.  1.
          1   -1    0    0  501    0  0.00000000000E+00 -0.00000000000E+00 -0.45619738340E+03  0.45619738340E+03  0.00000000000E+00 0. -1.
          5    1    1    2  502    0  0.40429069385E+02 -0.26539157640E+02 -0.13497966580E+03  0.14344273812E+03  0.41800000000E+01 0. -1.
         -5    1    1    2    0  502 -0.62555311604E+02  0.39470973489E+02 -0.10676739932E+03  0.12995335593E+03  0.41800000000E+01 0. -1.
        -11    1    1    2    0    0  0.16320295908E+02 -0.53197811918E+02 -0.80411556470E+02  0.97787410566E+02  0.00000000000E+00 0.  1.
         11    1    1    2    0    0  0.58059463115E+01  0.40265996069E+02 -0.10574855380E+03  0.11330408679E+03  0.00000000000E+00 0. -1.
</event>
<event>
 6    1  0.6597032E-006  0.1215037E+03  0.7561462E-02  0.1240637E+00
         -1   -1    0    0    0  501 -0.00000000000E+00  0.00000000000E+00  0.90259538002E+02  0.90259538002E+02  0.00000000000E+00 0.  1.
          1   -1    0    0  501    0  0.00000000000E+00 -0.00000000000E+00 -0.23114453194E+03  0.23114453194E+03  0.00000000000E+00 0. -1.
          5    1    1    2  502    0  0.39199083225E+02 -0.81385036171E+02 -0.62953559059E+02  0.11018491383E+03  0.41800000000E+01 0. -1.
         -5    1    1    2    0  502  0.25652275516E+02  0.22642398674E+02  0.30335798914E+02  0.45917867466E+02  0.41800000000E+01 0. -1.
        -11    1    1    2    0    0  0.83228333383E+01 -0.13126155892E+02 -0.37775123945E+02  0.40847588819E+02  0.00000000000E+00 0. -1.
         11    1    1    2    0    0 -0.73174192079E+02  0.71868793388E+02 -0.70492109851E+02  0.12445369983E+03  0.00000000000E+00 0.  1.
</event>
<event>
 6    1  0.6597032E-006  0.5550633E+02  0.7561462E-02  0.1417719E+00
          2   -1    0    0  501    0  0.00000000000E+00  0.00000000000E+00  0.24527159726E+03  0.24527159726E+03  0.00000000000E+00 0. -1.
         -2   -1    0    0    0  501 -0.00000000000E+00 -0.00000000000E+00 -0.55898684836E+02  0.55898684836E+02  0.00000000000E+00 0.  1.
          5    1    1    2  502    0 -0.18816901864E+02  0.16770994048E+02  0.15463674497E+03  0.15673333191E+03  0.41800000000E+01 0. -1.
         -5    1    1    2    0  502  0.16906593422E+02 -0.22804360207E+02 -0.40838186201E+02  0.49910936655E+02  0.41800000000E+01 0.  1.
        -11    1    1    2    0    0  0.10172369262E+02  0.29862569227E+02  0.41159140385E+02  0.51858702012E+02  0.00000000000E+00 0. -1.
         11    1    1    2    0    0 -0.82620608193E+01 -0.23829203067E+02  0.34415213275E+02  0.42667311523E+02  0.00000000000E+00 0.  1.
</event>
<event>
 6    1  0.6597032E-006  0.1078132E+03  0.7561462E-02  0.1264674E+00
          3   -1    0    0  501    0  0.00000000000E+00  0.00000000000E+00  0.47320211846E+02  0.47320211846E+02  0.00000000000E+00 0. -1.
         -3   -1    0    0    0  501 -0.00000000000E+00 -0.00000000000E+00 -0.28992358181E+03  0.28992358181E+03  0.00000000000E+00 0.  1.
          5    1    1    2  502    0 -0.55452945000E+02 -0.55034191745E+02 -0.85776385221E+02  0.11609845835E+03  0.41800000000E+01 0.  1.
         -5    1    1    2    0  502  0.52888765061E+02  0.10902423840E+02 -0.49374350585E+02  0.73289721046E+02  0.41800000000E+01 0.  1.
        -11    1    1    2    0    0 -0.19487787641E+02  0.55209204838E+02 -0.28460919479E+02  0.65098802628E+02  0.00000000000E+00 0. -1.
         11    1    1    2    0    0  0.22051967580E+02 -0.11077436933E+02 -0.78991714682E+02  0.82756811632E+02  0.00000000000E+00 0.  1.
</event>
<event>
 6    1  0.6597032E-006  0.7420197E+02  0.7561462E-02  0.1346360E+00
         -2   -1    0    0    0  501 -0.00000000000E+00  0.00000000000E+00  0.11070112563E+03  0.11070112563E+03  0.00000000000E+00 0.  1.
          2   -1    0    0  501    0  0.00000000000E+00 -0.00000000000E+00 -0.24183899198E+03  0.24183899198E+03  0.00000000000E+00 0. -1.
          5    1    1    2  502    0 -0.25459336483E+02  0.54506875053E+02  0.77766377236E+02  0.98408633110E+02  0.41800000000E+01 0.  1.
         -5    1    1    2    0  502  0.19856581068E+02 -0.31391889560E+02 -0.18887682708E+02  0.41880204154E+02  0.41800000000E+01 0.  1.
        -11    1    1    2    0    0 -0.39751731571E+01 -0.35130240685E+02 -0.19332696499E+03  0.19653307916E+03  0.00000000000E+00 0. -1.
         11    1    1    2    0    0  0.95779285724E+01  0.12015255193E+02  0.33104041173E+01  0.15718201186E+02  0.00000000000E+00 0.  1.
</event>
<event>
 6    1  0.6597032E-006  0.2084026E+03  0.7561462E-02  0.1142837E+00
          1   -1    0    0  501    0  0.00000000000E+00  0.00000000000E+00  0.12498352130E+04  0.12498352130E+04  0.00000000000E+00 0. -1.
         -1   -1    0    0    0  501 -0.00000000000E+00 -0.00000000000E+00 -0.38470546401E+02  0.38470546401E+02  0.00000000000E+00 0.  1.
          5    1    1    2  502    0 -0.24991896200E+02  0.19410509299E+02  0.22696167097E+03  0.22919519026E+03  0.41800000000E+01 0.  1.
         -5    1    1    2    0  502 -0.14405667094E+03 -0.10623418767E+03  0.41846091341E+03  0.45515385918E+03  0.41800000000E+01 0.  1.
        -11    1    1    2    0    0  0.96646228436E+02  0.52696165784E+01  0.33242822754E+03  0.34623227578E+03  0.00000000000E+00 0. -1.
         11    1    1    2    0    0  0.72402338708E+02  0.81554061790E+02  0.23351385463E+03  0.25772443413E+03  0.00000000000E+00 0.  1.
</event>
<event>
 6    1  0.6597032E-006  0.1181726E+03  0.7561462E-02  0.1246142E+00
          1   -1    0    0  501    0  0.00000000000E+00  0.00000000000E+00  0.85822811003E+03  0.85822811003E+03  0.00000000000E+00 0. -1.
         -1   -1    0    0    0  501 -0.00000000000E+00 -0.00000000000E+00 -0.33358661897E+02  0.33358661897E+02  0.00000000000E+00 0.  1.
          5    1    1    2  502    0  0.93315907818E+01 -0.25135878521E+02  0.12204078560E+03  0.12502126509E+03  0.41800000000E+01 0.  1.
         -5    1    1    2    0  502 -0.88495222071E+02  0.10799090001E+02  0.49645976866E+02  0.10212844899E+03  0.41800000000E+01 0.  1.
        -11    1    1    2    0    0 -0.12380877859E+02  0.24899409553E+02  0.10808296298E+03  0.11160283876E+03  0.00000000000E+00 0.  1.
         11    1    1    2    0    0  0.91544509148E+02 -0.10562621033E+02  0.54509972269E+03  0.55283421909E+03  0.00000000000E+00 0. -1.
</event>
<event>
 6    1  0.6597032E-006  0.8958325E+02  0.7561462E-02  0.1303864E+00
          2   -1    0    0  501    0  0.00000000000E+00  0.00000000000E+00  0.70004220817E+02  0.70004220817E+02  0.00000000000E+00 0. -1.
         -2   -1    0    0    0  501 -0.00000000000E+00 -0.00000000000E+00 -0.19775020781E+03  0.19775020781E+03  0.00000000000E+00 0.  1.
          5    1    1    2  502    0 -0.37030506561E+02 -0.59013889944E+01 -0.84232334881E+02  0.92296497484E+02  0.41800000000E+01 0.  1.
         -5    1    1    2    0  502  0.28704999374E+02  0.46555254470E+02  0.14603597178E+02  0.56763598884E+02  0.41800000000E+01 0.  1.
        -11    1    1    2    0    0 -0.33409723739E+02 -0.26056247175E+02 -0.61129794255E+02  0.74377344688E+02  0.00000000000E+00 0.  1.
         11    1    1    2    0    0  0.41735230926E+02 -0.14597618300E+02  0.30125449620E+01  0.44316987574E+02  0.00000000000E+00 0. -1.
</event>
<event>
 6    1  0.8664704E-006  0.1577755E+03  0.7561462E-02  0.1191231E+00
         -2   -1    0    0    0  501 -0.00000000000E+00  0.00000000000E+00  0.18103220633E+02  0.18103220633E+02  0.00000000000E+00 0.  1.
          2   -1    0    0  501    0  0.00000000000E+00 -0.00000000000E+00 -0.16335366942E+04  0.16335366942E+04  0.00000000000E+00 0. -1.
          5    1    1    2  502    0  0.12021403046E+03 -0.48714174939E+02 -0.43340501344E+03  0.45241779589E+03  0.41800000000E+01 0. -1.
         -5    1    1    2    0  502 -0.84580362278E+01 -0.22934821723E+02 -0.39747403050E+03  0.39824693564E+03  0.41800000000E+01 0. -1.
        -11    1    1    2    0    0 -0.10063135448E+03  0.13219714810E+02 -0.46764199349E+03  0.47852948126E+03  0.00000000000E+00 0. -1.
         11    1    1    2    0    0 -0.11124639761E+02  0.58429281852E+02 -0.31691243612E+03  0.32244570202E+03  0.00000000000E+00 0.  1.
</event>
<event>
 6    1  0.6597032E-006  0.1536223E+03  0.7561462E-02  0.1196091E+00
          2   -1    0    0  501    0  0.00000000000E+00  0.00000000000E+00  0.10093980858E+04  0.10093980858E+04  0.00000000000E+00 0.  1.
         -2   -1    0    0    0  501 -0.00000000000E+00 -0.00000000000E+00 -0.30164245207E+02  0.30164245207E+02  0.00000000000E+00 0. -1.
          5    1    1    2  502    0  0.58360102356E+02  0.58858453740E+01  0.73279552152E+02  0.93956957626E+02  0.41800000000E+01 0. -1.
         -5    1    1    2    0  502 -0.69601761286E+01 -0.10643688954E+03  0.21268877610E+03  0.23797319888E+03  0.41800000000E+01 0. -1.
        -11    1    1    2    0    0  0.15087552371E+02  0.64136405326E+02  0.30498066375E+03  0.31201653480E+03  0.00000000000E+00 0. -1.
         11    1    1    2    0    0 -0.66487478598E+02  0.36414638844E+02  0.38828484863E+03  0.39561563974E+03  0.00000000000E+00 0.  1.
</event>
<event>
 6    1  0.6597032E-006  0.9659559E+02  0.7561462E-02  0.1287622E+00
          2   -1    0    0  501    0  0.00000000000E+00  0.00000000000E+00  0.87908098055E+02  0.87908098055E+02  0.00000000000E+00 0. -1.
         -2   -1    0    0    0  501 -0.00000000000E+00 -0.00000000000E+00 -0.17843635437E+03  0.17843635437E+03  0.00000000000E+00 0.  1.
          5    1    1    2  502    0  0.65668840095E+02 -0.32205944725E+02 -0.50483097603E+02  0.88969854325E+02  0.41800000000E+01 0.  1.
         -5    1    1    2    0  502 -0.47977702487E+02  0.19377518014E+02 -0.60107579805E+02  0.79421292424E+02  0.41800000000E+01 0.  1.
        -11    1    1    2    0    0 -0.37913961016E+02 -0.82577684176E+01 -0.23601156763E+02  0.45416668522E+02  0.00000000000E+00 0.  1.
         11    1    1    2    0    0  0.20222823407E+02  0.21086195128E+02  0.43663577859E+02  0.52536637150E+02  0.00000000000E+00 0. -1.
</event>
<event>
 6    1  0.6597032E-006  0.9601932E+02  0.7561462E-02  0.1288897E+00
          1   -1    0    0  501    0  0.00000000000E+00  0.00000000000E+00  0.16403068140E+03  0.16403068140E+03  0.00000000000E+00 0. -1.
         -1   -1    0    0    0  501 -0.00000000000E+00 -0.00000000000E+00 -0.14105327788E+03  0.14105327788E+03  0.00000000000E+00 0.  1.
          5    1    1    2  502    0 -0.80885835034E+02 -0.47415397811E+02  0.29879598655E+02  0.98493660073E+02  0.41800000000E+01 0.  1.
         -5    1    1    2    0  502  0.50065622871E+00  0.53565066288E+01 -0.58215474109E+02  0.58612768624E+02  0.41800000000E+01 0.  1.
        -11    1    1    2    0    0  0.38624578601E+02  0.26348294447E+02  0.81603591070E+02  0.94049118910E+02  0.00000000000E+00 0. -1.
         11    1    1    2    0    0  0.41760600205E+02  0.15710596735E+02 -0.30290312098E+02  0.53928411679E+02  0.00000000000E+00 0.  1.
</event>
<event>
 6    1  0.1466442E-005  0.2222495E+03  0.7561462E-02  0.1132217E+00
          2   -1    0    0  501    0  0.00000000000E+00  0.00000000000E+00  0.47445523604E+03  0.47445523604E+03  0.00000000000E+00 0. -1.
         -2   -1    0    0    0  501 -0.00000000000E+00 -0.00000000000E+00 -0.12025572304E+03  0.12025572304E+03  0.00000000000E+00 0.  1.
          5    1    1    2  502    0 -0.48529015975E+02  0.92488186972E+02  0.10087411629E+03  0.14526592807E+03  0.41800000000E+01 0.  1.
         -5    1    1    2    0  502  0.56354162246E+02  0.11681604339E+03  0.36898116159E+02  0.13491005512E+03  0.41800000000E+01 0.  1.
        -11    1    1    2    0    0  0.39841472001E+01 -0.12624468611E+03  0.18693651211E+03  0.22560774313E+03  0.00000000000E+00 0. -1.
         11    1    1    2    0    0 -0.11809293472E+02 -0.83059544252E+02  0.29490768437E+02  0.88927232761E+02  0.00000000000E+00 0.  1.
</event>
<event>
 6    1  0.6597032E-006  0.9508589E+02  0.7561462E-02  0.1290983E+00
          1   -1    0    0  501    0  0.00000000000E+00  0.00000000000E+00  0.49058248436E+03  0.49058248436E+03  0.00000000000E+00 0. -1.
         -1   -1    0    0    0  501 -0.00000000000E+00 -0.00000000000E+00 -0.29542089513E+02  0.29542089513E+02  0.00000000000E+00 0.  1.
          5    1    1    2  502    0  0.32163214807E+02 -0.19695965824E+02  0.19958845344E+03  0.20316354644E+03  0.41800000000E+01 0.  1.
         -5    1    1    2    0  502 -0.54066757262E+02 -0.26066465625E+02  0.41328655428E+02  0.72994554801E+02  0.41800000000E+01 0.  1.
        -11    1    1    2    0    0 -0.28745451036E+02  0.21509954932E+02  0.14943455929E+03  0.15368691105E+03  0.00000000000E+00 0.  1.
         11    1    1    2    0    0  0.50648993491E+02  0.24252476517E+02  0.70688726689E+02  0.90279561584E+02  0.00000000000E+00 0. -1.
</event>
<event>
 6    1  0.6597032E-006  0.1073083E+03  0.7561462E-02  0.1265637E+00
          2   -1    0    0  501    0  0.00000000000E+00  0.00000000000E+00  0.51124918865E+02  0.51124918865E+02  0.00000000000E+00 0. -1.
         -2   -1    0    0    0  501 -0.00000000000E+00 -0.00000000000E+00 -0.28782284030E+03  0.28782284030E+03  0.00000000000E+00 0.  1.
          5    1    1    2  502    0 -0.89544985159E+01  0.51486722996E+02 -0.85832174743E+02  0.10057683784E+03  0.41800000000E+01 0. -1.
         -5    1    1    2    0  502  0.62607126959E+02 -0.45459349763E+02 -0.52573629772E+02  0.93635803912E+02  0.41800000000E+01 0. -1.
        -11    1    1    2    0    0  0.90197990562E+01  0.15924041886E+02  0.75408723124E+01  0.19793853597E+02  0.00000000000E+00 0. -1.
         11    1    1    2    0    0 -0.62672427499E+02 -0.21951415119E+02 -0.10583298924E+03  0.12494126382E+03  0.00000000000E+00 0.  1.
</event>
<event>
 6    1  0.6597032E-006  0.1041798E+03  0.7561462E-02  0.1271744E+00
          1   -1    0    0  501    0  0.00000000000E+00  0.00000000000E+00  0.49442327468E+02  0.49442327468E+02  0.00000000000E+00 0. -1.
         -1   -1    0    0    0  501 -0.00000000000E+00 -0.00000000000E+00 -0.22601268076E+03  0.22601268076E+03  0.00000000000E+00 0.  1.
          5    1    1    2  502    0  0.18537551728E+02  0.58169072518E+02 -0.62813818734E+02  0.87694526885E+02  0.41800000000E+01 0. -1.
         -5    1    1    2    0  502 -0.33474987706E+02 -0.55228878589E+02 -0.62776011546E+02  0.90161543120E+02  0.41800000000E+01 0. -1.
        -11    1    1    2    0    0 -0.88309124788E+01  0.35868471247E+02 -0.29509649494E+02  0.47279505688E+02  0.00000000000E+00 0.  1.
         11    1    1    2    0    0  0.23768348457E+02 -0.38808665176E+02 -0.21470873519E+02  0.50319432536E+02  0.00000000000E+00 0. -1.
</event>
<event>
 6    1  0.6597032E-006  0.1103072E+03  0.7561462E-02  0.1260002E+00
         -2   -1    0    0    0  501 -0.00000000000E+00  0.00000000000E+00  0.27599139184E+02  0.27599139184E+02  0.00000000000E+00 0. -1.
          2   -1    0    0  501    0  0.00000000000E+00 -0.00000000000E+00 -0.48871647140E+03  0.48871647140E+03  0.00000000000E+00 0.  1.
          5    1    1    2  502    0  0.32783565428E+01  0.44757571093E+02 -0.42082956060E+02  0.61663890427E+02  0.41800000000E+01 0. -1.
         -5    1    1    2    0  502  0.20501678704E+02 -0.74817157810E+02 -0.18066856432E+03  0.19666349042E+03  0.41800000000E+01 0. -1.
        -11    1    1    2    0    0  0.32144144451E+02  0.26774310542E+02 -0.11876474968E+03  0.12591733596E+03  0.00000000000E+00 0.  1.
         11    1    1    2    0    0 -0.55924179697E+02  0.32852761751E+01 -0.11960106215E+03  0.13207089378E+03  0.00000000000E+00 0. -1.
</event>
<event>
 6    1  0.6597032E-006  0.2507046E+03  0.7561462E-02  0.1112860E+00
         -1   -1    0    0    0  501 -0.00000000000E+00  0.00000000000E+00  0.77409925047E+02  0.77409925047E+02  0.00000000000E+00 0.  1.
          1   -1    0    0  501    0  0.00000000000E+00 -0.00000000000E+00 -0.95482314731E+03  0.95482314731E+03  0.00000000000E+00 0. -1.
          5    1    1    2  502    0 -0.15545656716E+03  0.61457214852E+02 -0.37730692337E+03  0.41270052139E+03  0.41800000000E+01 0.  1.
         -5    1    1    2    0  502 -0.66428289736E+02  0.50828495522E+02 -0.50803627401E+02  0.97952716100E+02  0.41800000000E+01 0.  1.
        -11    1    1    2    0    0  0.18640711656E+03 -0.10592754559E+03 -0.43048187975E+03  0.48091881520E+03  0.00000000000E+00 0. -1.
         11    1    1    2    0    0  0.35477740338E+02 -0.63581647850E+01 -0.18820791745E+02  0.40661019673E+02  0.00000000000E+00 0.  1.
</event>
<event>
 6    1  0.6597032E-006  0.9410683E+02  0.7561462E-02  0.1293200E+00
         -4   -1    0    0    0  501 -0.00000000000E+00  0.00000000000E+00  0.10379856930E+03  0.10379856930E+03  0.00000000000E+00 0. -1.
          4   -1    0    0  501    0  0.00000000000E+00 -0.00000000000E+00 -0.13871803488E+03  0.13871803488E+03  0.00000000000E+00 0.  1.
          5    1    1    2  502    0 -0.31540456196E+02  0.67024464373E+02 -0.84937365844E+01  0.74677273401E+02  0.41800000000E+01 0. -1.
         -5    1    1    2    0  502 -0.17946374382E+02 -0.57594223635E+02 -0.36984643800E+00  0.60471283565E+02  0.41800000000E+01 0. -1.
        -11    1    1    2    0    0  0.38975491932E+02  0.65888192272E+00 -0.59360784263E+02  0.71015672953E+02  0.00000000000E+00 0.  1.
         11    1    1    2    0    0  0.10511338646E+02 -0.10089122660E+02  0.33304901712E+02  0.36352374259E+02  0.00000000000E+00 0. -1.
</event>
<event>
 6    1  0.6597032E-006  0.7641848E+02  0.7561462E-02  0.1339534E+00
          2   -1    0    0  501    0  0.00000000000E+00  0.00000000000E+00  0.13160478735E+03  0.13160478735E+03  0.00000000000E+00 0. -1.
         -2   -1    0    0    0  501 -0.00000000000E+00 -0.00000000000E+00 -0.10105855775E+03  0.10105855775E+03  0.00000000000E+00 0.  1.
          5    1    1    2  502    0 -0.41954777378E+02  0.83573734030E+01  0.77108641244E+02  0.88279465277E+02  0.41800000000E+01 0.  1.
         -5    1    1    2    0  502  0.75617964351E+01 -0.13362419141E+02 -0.43089502181E+02  0.45933785048E+02  0.41800000000E+01 0.  1.
        -11    1    1    2    0    0  0.44518154743E+02 -0.32483797966E+02 -0.16441183882E+02  0.57509788380E+02  0.00000000000E+00 0.  1.
         11    1    1    2    0    0 -0.10125173800E+02  0.37488843704E+02  0.12968274411E+02  0.40940306398E+02  0.00000000000E+00 0. -1.
</event>
<event>
 6    1  0.6597032E-006  0.1510735E+03  0.7561462E-02  0.1199160E+00
          1   -1    0    0  501    0  0.00000000000E+00  0.00000000000E+00  0.87778474495E+02  0.87778474495E+02  0.00000000000E+00 0. -1.
         -1   -1    0    0    0  501 -0.00000000000E+00 -0.00000000000E+00 -0.35110878402E+03  0.35110878402E+03  0.00000000000E+00 0.  1.
          5    1    1    2  502    0  0.25460820827E+02  0.82247728199E+02 -0.38509837767E+01  0.86285831207E+02  0.41800000000E+01 0. -1.
         -5    1    1    2    0  502  0.46612126163E+02  0.34862743379E+02 -0.13087327053E+03  0.14329475399E+03  0.41800000000E+01 0. -1.
        -11    1    1    2    0    0 -0.43960447995E+02 -0.77054691357E+01 -0.67383154311E+02  0.80823169496E+02  0.00000000000E+00 0.  1.
         11    1    1    2    0    0 -0.28112498995E+02 -0.10940500244E+03 -0.61222900905E+02  0.12848350382E+03  0.00000000000E+00 0. -1.
</event>
<event>
 6    1  0.6597032E-006  0.1123181E+03  0.7561462E-02  0.1256336E+00
          2   -1    0    0  501    0  0.00000000000E+00  0.00000000000E+00  0.92406464589E+03  0.92406464589E+03  0.00000000000E+00 0. -1.
         -2   -1    0    0    0  501 -0.00000000000E+00 -0.00000000000E+00 -0.15991402571E+02  0.15991402571E+02  0.00000000000E+00 0.  1.
          5    1    1    2  502    0  0.79455675487E+02  0.40855591608E+02  0.20854189704E+03  0.22691315289E+03  0.41800000000E+01 0.  1.
         -5    1    1    2    0  502 -0.32442822173E+02 -0.43702576054E+01  0.24783583053E+03  0.25002341322E+03  0.41800000000E+01 0.  1.
        -11    1    1    2    0    0 -0.32442162556E+02 -0.63608209280E+02  0.32122739955E+03  0.32906768365E+03  0.00000000000E+00 0. -1.
         11    1    1    2    0    0 -0.14570690758E+02  0.27122875277E+02  0.13046811618E+03  0.13405179869E+03  0.00000000000E+00 0.  1.
</event>
<event>
 6    1  0.6597032E-006  0.1575781E+03  0.7561462E-02  0.1191459E+00
         -2   -1    0    0    0  501 -0.00000000000E+00  0.00000000000E+00  0.10527475317E+04  0.10527475317E+04  0.00000000000E+00 0.  1.
          2   -1    0    0  501    0  0.00000000000E+00 -0.00000000000E+00 -0.30487195942E+02  0.30487195942E+02  0.00000000000E+00 0. -1.
          5    1    1    2  502    0 -0.16410215416E+02 -0.50070543976E+02  0.23368805771E+03  0.23959118360E+03  0.41800000000E+01 0.  1.
         -5    1    1    2    0  502 -0.96515839401E+02  0.64449314428E+02  0.56262888584E+03  0.57448912693E+03  0.41800000000E+01 0.  1.
        -11    1    1    2    0    0  0.39631976348E+02 -0.50712989764E+02  0.94625242039E+02  0.11443966668E+03  0.00000000000E+00 0.  1.
         11    1    1    2    0    0  0.73294078469E+02  0.36334219311E+02  0.13131815014E+03  0.15471475038E+03  0.00000000000E+00 0. -1.
</event>
<event>
 6    1  0.8306357E-006  0.1903040E+03  0.7561462E-02  0.1158187E+00
          2   -1    0    0  501    0  0.00000000000E+00  0.00000000000E+00  0.38931685050E+03  0.38931685050E+03  0.00000000000E+00 0.  1.
         -2   -1    0    0    0  501 -0.00000000000E+00 -0.00000000000E+00 -0.97409987747E+02  0.97409987747E+02  0.00000000000E+00 0. -1.
          5    1    1    2  502    0  0.11396981212E+03 -0.17249462520E+02  0.55354597490E+02  0.12793852389E+03  0.41800000000E+01 0. -1.
         -5    1    1    2    0  502  0.34077389278E+02  0.73216081219E+02  0.88212965680E+02  0.11966980707E+03  0.41800000000E+01 0. -1.
        -11    1    1    2    0    0 -0.43649989798E+02 -0.66419910746E+02  0.85885008963E+02  0.11701778035E+03  0.00000000000E+00 0.  1.
         11    1    1    2    0    0 -0.10439721160E+03  0.10453292047E+02  0.62454290617E+02  0.12210072694E+03  0.00000000000E+00 0. -1.
</event>
<event>
 6    1  0.6597032E-006  0.1500523E+03  0.7561462E-02  0.1200409E+00
         -1   -1    0    0    0  501 -0.00000000000E+00  0.00000000000E+00  0.57564576558E+02  0.57564576558E+02  0.00000000000E+00 0.  1.
          1   -1    0    0  501    0  0.00000000000E+00 -0.00000000000E+00 -0.64916558179E+03  0.64916558179E+03  0.00000000000E+00 0. -1.
          5    1    1    2  502    0 -0.38532660808E+02  0.98726903187E+01 -0.22254282941E+02  0.45770749090E+02  0.41800000000E+01 0.  1.
         -5    1    1    2    0  502  0.86692322751E+02  0.10379201436E+03 -0.10280524326E+03  0.16992566466E+03  0.41800000000E+01 0.  1.
        -11    1    1    2    0    0 -0.94855286561E+01 -0.45125344015E+02 -0.53801864281E+02  0.70858397713E+02  0.00000000000E+00 0.  1.
         11    1    1    2    0    0 -0.38674133286E+02 -0.68539360661E+02 -0.41273961475E+03  0.42017534688E+03  0.00000000000E+00 0. -1.
</event>
<event>
 6    1  0.6597032E-006  0.7439628E+02  0.7561462E-02  0.1345751E+00
          2   -1    0    0  501    0  0.00000000000E+00  0.00000000000E+00  0.14219743543E+03  0.14219743543E+03  0.00000000000E+00 0. -1.
         -2   -1    0    0    0  501 -0.00000000000E+00 -0.00000000000E+00 -0.11345019333E+03  0.11345019333E+03  0.00000000000E+00 0.  1.
          5    1    1    2  502    0 -0.17416187620E+02 -0.35233034205E+02  0.73118794715E+02  0.83117512181E+02  0.41800000000E+01 0. -1.
         -5    1    1    2    0  502 -0.25865767108E+02 -0.15145889722E+02 -0.51914761499E+02  0.60092018979E+02  0.41800000000E+01 0. -1.
        -11    1    1    2    0    0 -0.75057801544E+01  0.16005369722E+02  0.39506886485E+02  0.43281666735E+02  0.00000000000E+00 0. -1.
         11    1    1    2    0    0  0.50787734883E+02  0.34373554205E+02 -0.31963677600E+02  0.69156430857E+02  0.00000000000E+00 0.  1.
</event>
<event>
 6    1  0.6597032E-006  0.3114588E+03  0.7561462E-02  0.1079649E+00
         -1   -1    0    0    0  501 -0.00000000000E+00  0.00000000000E+00  0.11838990889E+04  0.11838990889E+04  0.00000000000E+00 0.  1.
          1   -1    0    0  501    0  0.00000000000E+00 -0.00000000000E+00 -0.95770499538E+02  0.95770499538E+02  0.00000000000E+00 0. -1.
          5    1    1    2  502    0 -0.27247904440E+03 -0.39921158140E+02  0.72121158518E+03  0.77201175606E+03  0.41800000000E+01 0.  1.
         -5    1    1    2    0  502 -0.20271905291E+02 -0.28904424380E+02  0.29086293185E+02  0.45933655897E+02  0.41800000000E+01 0.  1.
        -11    1    1    2    0    0  0.60389558293E+02  0.50751230133E+02  0.11364527762E+03  0.13833956497E+03  0.00000000000E+00 0.  1.
         11    1    1    2    0    0  0.23236139140E+03  0.18074352386E+02  0.22418543341E+03  0.32338461154E+03  0.00000000000E+00 0. -1.
</event>
<event>
 6    1  0.7116740E-006  0.7696032E+02  0.7561462E-02  0.1337906E+00
         -1   -1    0    0    0  501 -0.00000000000E+00  0.00000000000E+00  0.39607583542E+02  0.39607583542E+02  0.00000000000E+00 0.  1.
          1   -1    0    0  501    0  0.00000000000E+00 -0.00000000000E+00 -0.19977154878E+03  0.19977154878E+03  0.00000000000E+00 0. -1.
          5    1    1    2  502    0 -0.44212662231E+02  0.48405922371E+02 -0.27426379841E+02  0.71186877536E+02  0.41800000000E+01 0. -1.
         -5    1    1    2    0  502  0.38848501567E+02 -0.38949803726E+02 -0.61835973981E+02  0.82870099327E+02  0.41800000000E+01 0. -1.
        -11    1    1    2    0    0  0.17916862029E+02 -0.99541106598E+01 -0.93971683404E+01  0.22547838850E+02  0.00000000000E+00 0.  1.
         11    1    1    2    0    0 -0.12552701365E+02  0.49799201481E+00 -0.61504443079E+02  0.62774316611E+02  0.00000000000E+00 0. -1.
</event>
<event>
 6    1  0.6597032E-006  0.8987728E+02  0.7561462E-02  0.1303149E+00
          2   -1    0    0  501    0  0.00000000000E+00  0.00000000000E+00  0.93360031174E+02  0.93360031174E+02  0.00000000000E+00 0. -1.
         -2   -1    0    0    0  501 -0.00000000000E+00 -0.00000000000E+00 -0.23299784245E+03  0.23299784245E+03  0.00000000000E+00 0.  1.
          5    1    1    2  502    0  0.35468488741E+02 -0.41985307629E+01 -0.16486580092E+03  0.16874195112E+03  0.41800000000E+01 0. -1.
         -5    1    1    2    0  502 -0.37624871180E+02  0.34641457973E+02 -0.16937629118E+02  0.54037183697E+02  0.41800000000E+01 0. -1.
        -11    1    1    2    0    0  0.26516881113E+02 -0.53010810370E+02  0.16263182522E+02  0.61463664923E+02  0.00000000000E+00 0.  1.
         11    1    1    2    0    0 -0.24360498675E+02  0.22567883160E+02  0.25902436233E+02  0.42115073890E+02  0.00000000000E+00 0. -1.
</event>
<event>
 6    1  0.6597032E-006  0.1040382E+03  0.7561462E-02  0.1272026E+00
         -3   -1    0    0    0  501 -0.00000000000E+00  0.00000000000E+00  0.72729324900E+02  0.72729324900E+02  0.00000000000E+00 0.  1.
          3   -1    0    0  501    0  0.00000000000E+00 -0.00000000000E+00 -0.20685435227E+03  0.20685435227E+03  0.00000000000E+00 0. -1.
          5    1    1    2  502    0 -0.70982807512E+01 -0.40484697629E+02 -0.24142719215E+02  0.47851223838E+02  0.41800000000E+01 0. -1.
         -5    1    1    2    0  502  0.57923894673E+02  0.56664680316E+02 -0.31362245685E+01  0.81199580504E+02  0.41800000000E+01 0.  1.
        -11    1    1    2    0    0 -0.65077847143E+02 -0.24005158519E+02 -0.11345735386E+03  0.13298099477E+03  0.00000000000E+00 0. -1.
         11    1    1    2    0    0  0.14252233221E+02  0.78251758321E+01  0.66112702793E+01  0.17551878056E+02  0.00000000000E+00 0.  1.
</event>
<event>
 6    1  0.6597032E-006  0.8146397E+02  0.7561462E-02  0.1324947E+00
          1   -1    0    0  501    0  0.00000000000E+00  0.00000000000E+00  0.12862552809E+03  0.12862552809E+03  0.00000000000E+00 0. -1.
         -1   -1    0    0    0  501 -0.00000000000E+00 -0.00000000000E+00 -0.11319120931E+03  0.11319120931E+03  0.00000000000E+00 0.  1.
          5    1    1    2  502    0  0.30983523880E+02 -0.15160644151E+02 -0.55715251533E+02  0.65661903235E+02  0.41800000000E+01 0. -1.
         -5    1    1    2    0  502 -0.64688469186E+02 -0.74452856739E+01  0.24162655629E+02  0.69579714367E+02  0.41800000000E+01 0. -1.
        -11    1    1    2    0    0  0.41925065311E+02  0.30256544975E+02 -0.63297342983E+01  0.52088723842E+02  0.00000000000E+00 0.  1.
         11    1    1    2    0    0 -0.82201200063E+01 -0.76506151498E+01  0.53316648987E+02  0.54486395956E+02  0.00000000000E+00 0. -1.
</event>
<event>
 6    1  0.6597032E-006  0.2029712E+03  0.7561462E-02  0.1147256E+00
          2   -1    0    0  501    0  0.00000000000E+00  0.00000000000E+00  0.11286499930E+04  0.11286499930E+04  0.00000000000E+00 0. -1.
         -2   -1    0    0    0  501 -0.00000000000E+00 -0.00000000000E+00 -0.46511935860E+02  0.46511935860E+02  0.00000000000E+00 0.  1.
          5    1    1    2  502    0  0.12411732564E+03  0.54925975401E+02  0.14443139123E+03  0.19824195437E+03  0.41800000000E+01 0. -1.
         -5    1    1    2    0  502  0.19780407725E+02  0.63525281039E+02  0.21898229112E+03  0.22890487563E+03  0.41800000000E+01 0. -1.
        -11    1    1    2    0    0 -0.27185692860E+02  0.10876459850E+02  0.61809668675E+02  0.68394403403E+02  0.00000000000E+00 0.  1.
         11    1    1    2    0    0 -0.11671204050E+03 -0.12932771629E+03  0.65691470608E+03  0.67962069543E+03  0.00000000000E+00 0. -1.
</event>
<event>
 6    1  0.6597032E-006  0.1062764E+03  0.7561462E-02  0.1267625E+00
         -2   -1    0    0    0  501 -0.00000000000E+00  0.00000000000E+00  0.13974516756E+03  0.13974516756E+03  0.00000000000E+00 0.  1.
          2   -1    0    0  501    0  0.00000000000E+00 -0.00000000000E+00 -0.96985913687E+02  0.96985913687E+02  0.00000000000E+00 0. -1.
          5    1    1    2  502    0 -0.43835873337E+02 -0.21785748334E+02  0.16965201934E+01  0.49158449960E+02  0.41800000000E+01 0.  1.
         -5    1    1    2    0  502  0.53334124421E+02  0.49989624055E+02  0.53946675756E+02  0.90946179502E+02  0.41800000000E+01 0.  1.
        -11    1    1    2    0    0  0.14881962936E+02  0.26455957460E+02  0.10859151806E+02  0.32238357339E+02  0.00000000000E+00 0.  1.
         11    1    1    2    0    0 -0.24380214019E+02 -0.54659833181E+02 -0.23743093884E+02  0.64388094445E+02  0.00000000000E+00 0. -1.
</event>
<event>
 6    1  0.6597032E-006  0.8305089E+02  0.7561462E-02  0.1320610E+00
          2   -1    0    0  501    0  0.00000000000E+00  0.00000000000E+00  0.55476325459E+03  0.55476325459E+03  0.00000000000E+00 0. -1.
         -2   -1    0    0    0  501 -0.00000000000E+00 -0.00000000000E+00 -0.32377954667E+02  0.32377954667E+02  0.00000000000E+00 0.  1.
          5    1    1    2  502    0  0.39373926643E+02 -0.31385531509E+02  0.12132968436E+03  0.13142953395E+03  0.41800000000E+01 0. -1.
         -5    1    1    2    0  502 -0.18637418063E+02  0.14548097078E+02 -0.15558432004E+02  0.28610097641E+02  0.41800000000E+01 0.  1.
        -11    1    1    2    0    0 -0.41256056416E+02  0.42150728256E+02  0.31214692984E+03  0.31767035098E+03  0.00000000000E+00 0. -1.
         11    1    1    2    0    0  0.20519547836E+02 -0.25313293824E+02  0.10446711772E+03  0.10943122668E+03  0.00000000000E+00 0.  1.
</event>
<event>
 6    1  0.6597032E-006  0.1518649E+03  0.7561462E-02  0.1198200E+00
          1   -1    0    0  501    0  0.00000000000E+00  0.00000000000E+00  0.84277405666E+03  0.84277405666E+03  0.00000000000E+00 0.  1.
         -1   -1    0    0    0  501 -0.00000000000E+00 -0.00000000000E+00 -0.40805139407E+02  0.40805139407E+02  0.00000000000E+00 0. -1.
          5    1    1    2  502    0  0.49144883218E+01  0.23643963666E+00 -0.99807042457E+01  0.11886755504E+02  0.41800000000E+01 0.  1.
         -5    1    1    2    0  502  0.34348065683E+02 -0.13960613111E+03  0.34765783780E+03  0.37623543965E+03  0.41800000000E+01 0.  1.
        -11    1    1    2    0    0 -0.49667955591E+02  0.88169757938E+02  0.40005399469E+03  0.41265483239E+03  0.00000000000E+00 0.  1.
         11    1    1    2    0    0  0.10405401585E+02  0.51199933536E+02  0.64237788997E+02  0.82802168519E+02  0.00000000000E+00 0. -1.
</event>
<event>
 6    1  0.6597032E-006  0.1341739E+03  0.7561462E-02  0.1221391E+00
          2   -1    0    0  501    0  0.00000000000E+00  0.00000000000E+00  0.49338306613E+03  0.49338306613E+03  0.00000000000E+00 0. -1.
         -2   -1    0    0    0  501 -0.00000000000E+00 -0.00000000000E+00 -0.53291048920E+02  0.53291048920E+02  0.00000000000E+00 0.  1.
          5    1    1    2  502    0 -0.94855403217E+02 -0.27723513470E+02  0.31190183099E+02  0.10371326164E+03  0.41800000000E+01 0. -1.
         -5    1    1    2    0  502  0.10477231157E+02 -0.30640741237E+02  0.98082218584E+02  0.10337418149E+03  0.41800000000E+01 0. -1.
        -11    1    1    2    0    0 -0.19165306393E+02  0.30955268420E+01  0.43639834532E+02  0.47763232863E+02  0.00000000000E+00 0.  1.
         11    1    1    2    0    0  0.10354347845E+03  0.55268727865E+02  0.26717978100E+03  0.29182343906E+03  0.00000000000E+00 0. -1.
</event>
<event>
 6    1  0.6597032E-006  0.1309220E+03  0.7561462E-02  0.1226094E+00
          4   -1    0    0  501    0  0.00000000000E+00  0.00000000000E+00  0.33872434163E+03  0.33872434163E+03  0.00000000000E+00 0.  1.
         -4   -1    0    0    0  501 -0.00000000000E+00 -0.00000000000E+00 -0.75506944335E+02  0.75506944335E+02  0.00000000000E+00 0. -1.
          5    1    1    2  502    0 -0.84658540886E+02  0.65484761551E+02  0.14191231060E+02  0.10804714702E+03  0.41800000000E+01 0. -1.
         -5    1    1    2    0  502  0.75884060831E+01  0.17164104698E+02  0.85872824383E+02  0.87998890700E+02  0.41800000000E+01 0. -1.
        -11    1    1    2    0    0  0.13352557921E+02 -0.69081750771E+02  0.12287284202E+03  0.14159207040E+03  0.00000000000E+00 0.  1.
         11    1    1    2    0    0  0.63717576882E+02 -0.13567115478E+02  0.40280499829E+02  0.76593177846E+02  0.00000000000E+00 0. -1.
</event>
<event>
 6    1  0.6597032E-006  0.5969046E+02  0.7561462E-02  0.1399135E+00
          3   -1    0    0  501    0  0.00000000000E+00  0.00000000000E+00  0.11306648220E+03  0.11306648220E+03  0.00000000000E+00 0. -1.
         -3   -1    0    0    0  501 -0.00000000000E+00 -0.00000000000E+00 -0.11829166264E+03  0.11829166264E+03  0.00000000000E+00 0.  1.
          5    1    1    2  502    0  0.15446069494E+02  0.43173475828E+02  0.40627090741E+02  0.61404910064E+02  0.41800000000E+01 0.  1.
         -5    1    1    2    0  502  0.28349400092E+01 -0.23085253350E+02 -0.64670103885E+02  0.68852454884E+02  0.41800000000E+01 0.  1.
        -11    1    1    2    0    0  0.13555321986E+02 -0.47108141316E+01  0.51190074500E+02  0.53163542500E+02  0.00000000000E+00 0. -1.
         11    1    1    2    0    0 -0.31836331489E+02 -0.15377408347E+02 -0.32372241796E+02  0.47937237395E+02  0.00000000000E+00 0.  1.
</event>
<event>
 6    1  0.6838011E-006  0.2901620E+03  0.7561462E-02  0.1090265E+00
          2   -1    0    0  501    0  0.00000000000E+00  0.00000000000E+00  0.74950750056E+03  0.74950750056E+03  0.00000000000E+00 0. -1.
         -2   -1    0    0    0  501 -0.00000000000E+00 -0.00000000000E+00 -0.11757523381E+03  0.11757523381E+03  0.00000000000E+00 0.  1.
          5    1    1    2  502    0  0.25243272860E+03  0.28025199851E+02  0.26362483759E+03  0.36609182139E+03  0.41800000000E+01 0. -1.
         -5    1    1    2    0  502  0.14741453148E+02  0.37366477510E+02  0.92633641189E+02  0.10105457913E+03  0.41800000000E+01 0. -1.
        -11    1    1    2    0    0 -0.19728816909E+03 -0.11418457979E+02  0.15915573811E+03  0.25373914128E+03  0.00000000000E+00 0. -1.
         11    1    1    2    0    0 -0.69886012657E+02 -0.53973219382E+02  0.11651804986E+03  0.14619719258E+03  0.00000000000E+00 0.  1.
</event>
<event>
 6    1  0.6597032E-006  0.2471310E+03  0.7561462E-02  0.1115132E+00
         -2   -1    0    0    0  501 -0.00000000000E+00  0.00000000000E+00  0.11415410245E+03  0.11415410245E+03  0.00000000000E+00 0. -1.
          2   -1    0    0  501    0  0.00000000000E+00 -0.00000000000E+00 -0.96585912961E+03  0.96585912961E+03  0.00000000000E+00 0.  1.
          5    1    1    2  502    0 -0.87954199201E+02 -0.39946070031E+02 -0.64014650789E+02  0.11596110375E+03  0.41800000000E+01 0. -1.
         -5    1    1    2    0  502 -0.13848950199E+03  0.72624636954E+02 -0.18412875845E+02  0.15751249617E+03  0.41800000000E+01 0. -1.
        -11    1    1    2    0    0  0.12012388935E+03 -0.55613885206E+02 -0.46148881622E+03  0.48009851126E+03  0.00000000000E+00 0.  1.
         11    1    1    2    0    0  0.10631981184E+03  0.22935318282E+02 -0.30778868431E+03  0.32644112088E+03  0.00000000000E+00 0. -1.
</event>
<event>
 6    1  0.6597032E-006  0.1375139E+03  0.7561462E-02  0.1216714E+00
         -1   -1    0    0    0  501 -0.00000000000E+00  0.00000000000E+00  0.11146040164E+04  0.11146040164E+04  0.00000000000E+00 0.  1.
          1   -1    0    0  501    0  0.00000000000E+00 -0.00000000000E+00 -0.56919326201E+02  0.56919326201E+02  0.00000000000E+00 0. -1.
          5    1    1    2  502    0 -0.47460760846E+02 -0.15777267673E+02  0.14461060784E+03  0.15307235641E+03  0.41800000000E+01 0. -1.
         -5    1    1    2    0  502  0.98482542915E+02  0.71544588565E+02  0.88882190134E+03  0.89712835431E+03  0.41800000000E+01 0.  1.
        -11    1    1    2    0    0  0.16440632379E+02 -0.15914822915E+01  0.30383322898E+02  0.34582850074E+02  0.00000000000E+00 0.  1.
         11    1    1    2    0    0 -0.67462414448E+02 -0.54175838601E+02 -0.61311418590E+01  0.86739781829E+02  0.00000000000E+00 0. -1.
</event>
<event>
 6    1  0.1675853E-005  0.4895130E+03  0.7561462E-02  0.1016553E+00
         -2   -1    0    0    0  501 -0.00000000000E+00  0.00000000000E+00  0.77586210339E+02  0.77586210339E+02  0.00000000000E+00 0.  1.
          2   -1    0    0  501    0  0.00000000000E+00 -0.00000000000E+00 -0.33239842811E+04  0.33239842811E+04  0.00000000000E+00 0. -1.
          5    1    1    2  502    0 -0.27567917977E+03  0.14602769412E+03 -0.73024520140E+03  0.79410240157E+03  0.41800000000E+01 0.  1.
         -5    1    1    2    0  502 -0.18417470769E+03 -0.27179386128E+01 -0.50991367961E+03  0.54217814711E+03  0.41800000000E+01 0.  1.
        -11    1    1    2    0    0  0.40023724684E+03 -0.11285240027E+03 -0.18326953599E+04  0.18792811924E+04  0.00000000000E+00 0. -1.
         11    1    1    2    0    0  0.59616640616E+02 -0.30457355232E+02 -0.17354382986E+03  0.18600875036E+03  0.00000000000E+00 0.  1.
</event>
<event>
 6    1  0.6597032E-006  0.9774511E+02  0.7561462E-02  0.1285110E+00
          2   -1    0    0  501    0  0.00000000000E+00  0.00000000000E+00  0.89012706586E+02  0.89012706586E+02  0.00000000000E+00 0. -1.
         -2   -1    0    0    0  501 -0.00000000000E+00 -0.00000000000E+00 -0.13938441368E+03  0.13938441368E+03  0.00000000000E+00 0.  1.
          5    1    1    2  502    0  0.53885388435E+02 -0.12905176960E+02  0.16396853816E+02  0.57935376880E+02  0.41800000000E+01 0.  1.
         -5    1    1    2    0  502 -0.38626158029E+02  0.29102210151E+02 -0.58276988632E+02  0.75845886664E+02  0.41800000000E+01 0.  1.
        -11    1    1    2    0    0 -0.52358907181E+02 -0.48415315251E+01  0.65807006528E+01  0.52992463707E+02  0.00000000000E+00 0. -1.
         11    1    1    2    0    0  0.37099676775E+02 -0.11355501666E+02 -0.15072272933E+02  0.41623393017E+02  0.00000000000E+00 0.  1.
</event>
<event>
 6    1  0.6597032E-006  0.2426439E+03  0.7561462E-02  0.1118044E+00
          2   -1    0    0  501    0  0.00000000000E+00  0.00000000000E+00  0.56970218347E+03  0.56970218347E+03  0.00000000000E+00 0.  1.
         -2   -1    0    0    0  501 -0.00000000000E+00 -0.00000000000E+00 -0.15515559596E+03  0.15515559596E+03  0.00000000000E+00 0. -1.
          5    1    1    2  502    0  0.16959353300E+03 -0.12150542000E+02 -0.27878335801E+02  0.17234928521E+03  0.41800000000E+01 0. -1.
         -5    1    1    2    0  502  0.68901071266E+02  0.22832015712E+02  0.69103597710E+02  0.10030672051E+03  0.41800000000E+01 0. -1.
        -11    1    1    2    0    0 -0.49091344406E+02  0.15079992725E+02  0.14836941050E+03  0.15700588603E+03  0.00000000000E+00 0.  1.
         11    1    1    2    0    0 -0.18940325986E+03 -0.25761466437E+02  0.22495191510E+03  0.29519588769E+03  0.00000000000E+00 0. -1.
</event>
<event>
 6    1  0.6597032E-006  0.7972784E+02  0.7561462E-02  0.1329826E+00
         -2   -1    0    0    0  501 -0.00000000000E+00  0.00000000000E+00  0.27863527026E+02  0.27863527026E+02  0.00000000000E+00 0. -1.
          2   -1    0    0  501    0  0.00000000000E+00 -0.00000000000E+00 -0.52073962531E+03  0.52073962531E+03  0.00000000000E+00 0.  1.
          5    1    1    2  502    0 -0.18263509506E+02  0.25483543424E+02 -0.22519169098E+03  0.22740214786E+03  0.41800000000E+01 0.  1.
         -5    1    1    2    0  502  0.19217486828E+02  0.17321728190E+02  0.75303513626E+01  0.27267795274E+02  0.41800000000E+01 0.  1.
        -11    1    1    2    0    0  0.44604461719E+02 -0.10658338109E+02 -0.98976893393E+02  0.10908521257E+03  0.00000000000E+00 0. -1.
         11    1    1    2    0    0 -0.45558439041E+02 -0.32146933505E+02 -0.17623786527E+03  0.18484799663E+03  0.00000000000E+00 0.  1.
</event>
<event>
 6    1  0.6597032E-006  0.9130680E+02  0.7561462E-02  0.1299718E+00
          3   -1    0    0  501    0  0.00000000000E+00  0.00000000000E+00  0.48523923917E+02  0.48523923917E+02  0.00000000000E+00 0.  1.
         -3   -1    0    0    0  501 -0.00000000000E+00 -0.00000000000E+00 -0.34888477375E+03  0.34888477375E+03  0.00000000000E+00 0. -1.
          5    1    1    2  502    0  0.73624552299E+02  0.13225896883E+02 -0.92689711554E+02  0.11918202078E+03  0.41800000000E+01 0. -1.
         -5    1    1    2    0  502 -0.32178944545E+02  0.18752835286E+02 -0.19884673414E+03  0.20234784255E+03  0.41800000000E+01 0. -1.
        -11    1    1    2    0    0 -0.35970220405E+02  0.17813373901E+01  0.92670244098E+01  0.37187466441E+02  0.00000000000E+00 0.  1.
         11    1    1    2    0    0 -0.54753873491E+01 -0.33760069559E+02 -0.18091428547E+02  0.38691367902E+02  0.00000000000E+00 0. -1.
</event>
<event>
 6    1  0.6597032E-006  0.1221248E+03  0.7561462E-02  0.1239632E+00
          2   -1    0    0  501    0  0.00000000000E+00  0.00000000000E+00  0.22928461302E+02  0.22928461302E+02  0.00000000000E+00 0. -1.
         -2   -1    0    0    0  501 -0.00000000000E+00 -0.00000000000E+00 -0.68318024977E+03  0.68318024977E+03  0.00000000000E+00 0.  1.
          5    1    1    2  502    0 -0.30025573262E+02  0.44241682387E+02 -0.17413241086E+03  0.18220436444E+03  0.41800000000E+01 0.  1.
         -5    1    1    2    0  502  0.80600468869E+02 -0.20730011513E+02 -0.26782665705E+03  0.28049021300E+03  0.41800000000E+01 0.  1.
        -11    1    1    2    0    0 -0.38343438860E+02 -0.58656515314E+02 -0.13225082290E+03  0.14966992433E+03  0.00000000000E+00 0. -1.
         11    1    1    2    0    0 -0.12231456747E+02  0.35144844440E+02 -0.86041897657E+02  0.93744209300E+02  0.00000000000E+00 0.  1.
</event>
<event>
 6    1  0.6597032E-006  0.1138426E+03  0.7561462E-02  0.1253615E+00
          2   -1    0    0  501    0  0.00000000000E+00  0.00000000000E+00  0.47971598405E+03  0.47971598405E+03  0.00000000000E+00 0. -1.
         -2   -1    0    0    0  501 -0.00000000000E+00 -0.00000000000E+00 -0.34356443273E+02  0.34356443273E+02  0.00000000000E+00 0.  1.
          5    1    1    2  502    0  0.52187063561E+02 -0.19510257762E+02  0.72525239206E+02  0.91550655285E+02  0.41800000000E+01 0.  1.
         -5    1    1    2    0  502 -0.19539643032E+02  0.78204879044E+02  0.20169052312E+03  0.21724258393E+03  0.41800000000E+01 0.  1.
        -11    1    1    2    0    0  0.65023338895E+01 -0.50729698435E+02  0.15314637526E+03  0.16146081538E+03  0.00000000000E+00 0. -1.
         11    1    1    2    0    0 -0.39149754419E+02 -0.79649228472E+01  0.17997403200E+02  0.43818372733E+02  0.00000000000E+00 0.  1.
</event>
<event>
 6    1  0.6597032E-006  0.1284536E+03  0.7561462E-02  0.1229768E+00
          1   -1    0    0  501    0  0.00000000000E+00  0.00000000000E+00  0.66289960546E+02  0.66289960546E+02  0.00000000000E+00 0. -1.
         -1   -1    0    0    0  501 -0.00000000000E+00 -0.00000000000E+00 -0.34119268701E+03  0.34119268701E+03  0.00000000000E+00 0.  1.
          5    1    1    2  502    0 -0.52480763667E+02  0.14349628145E+02 -0.38913571561E+02  0.67021495317E+02  0.41800000000E+01 0. -1.
         -5    1    1    2    0  502  0.20479535533E+01 -0.96388773452E+02 -0.16092240577E+03  0.18763923588E+03  0.41800000000E+01 0. -1.
        -11    1    1    2    0    0  0.37469974446E+02  0.84688820485E+02 -0.92530242446E+02  0.13091234116E+03  0.00000000000E+00 0.  1.
         11    1    1    2    0    0  0.12962835667E+02 -0.26496751777E+01  0.17463493312E+02  0.21909575207E+02  0.00000000000E+00 0. -1.
</event>
<event>
 6    1  0.6597032E-006  0.1287738E+03  0.7561462E-02  0.1229287E+00
          2   -1    0    0  501    0  0.00000000000E+00  0.00000000000E+00  0.14288690255E+03  0.14288690255E+03  0.00000000000E+00 0. -1.
         -2   -1    0    0    0  501 -0.00000000000E+00 -0.00000000000E+00 -0.13673677071E+03  0.13673677071E+03  0.00000000000E+00 0.  1.
          5    1    1    2  502    0  0.10666476791E+02  0.10047727659E+03 -0.22405060315E+02  0.10358048062E+03  0.41800000000E+01 0. -1.
         -5    1    1    2    0  502 -0.30699763445E+02 -0.40775977661E+02 -0.20428857659E+02  0.55135890806E+02  0.41800000000E+01 0.  1.
        -11    1    1    2    0    0 -0.10986483312E+02 -0.71261760500E+02  0.50073385632E+02  0.87785450240E+02  0.00000000000E+00 0.  1.
         11    1    1    2    0    0  0.31019769966E+02  0.11560461572E+02 -0.10893358112E+01  0.33121851594E+02  0.00000000000E+00 0. -1.
</event>
<event>
 6    1  0.6597032E-006  0.1120491E+03  0.7561462E-02  0.1256822E+00
         -1   -1    0    0    0  501 -0.00000000000E+00  0.00000000000E+00  0.89908585402E+02  0.89908585402E+02  0.00000000000E+00 0.  1.
          1   -1    0    0  501    0  0.00000000000E+00 -0.00000000000E+00 -0.19536668896E+03  0.19536668896E+03  0.00000000000E+00 0. -1.
          5    1    1    2  502    0 -0.20311455663E+02 -0.17951812249E+01 -0.69112575737E+02  0.72178933435E+02  0.41800000000E+01 0. -1.
         -5    1    1    2    0  502  0.26276512523E+02  0.82723632005E+02 -0.59729566997E+01  0.87102256080E+02  0.41800000000E+01 0.  1.
        -11    1    1    2    0    0  0.34119270517E+02 -0.64692794043E+02 -0.37453267465E+02  0.82170733632E+02  0.00000000000E+00 0.  1.
         11    1    1    2    0    0 -0.40084327377E+02 -0.16235656737E+02  0.70806963451E+01  0.43823351214E+02  0.00000000000E+00 0. -1.
</event>
<event>
 6    1  0.6597032E-006  0.1040379E+03  0.7561462E-02  0.1272027E+00
          2   -1    0    0  501    0  0.00000000000E+00  0.00000000000E+00  0.11243431984E+03  0.11243431984E+03  0.00000000000E+00 0. -1.
         -2   -1    0    0    0  501 -0.00000000000E+00 -0.00000000000E+00 -0.16243245493E+03  0.16243245493E+03  0.00000000000E+00 0.  1.
          5    1    1    2  502    0  0.75677221696E+02  0.64709778091E+01  0.11998109483E+01  0.76077771942E+02  0.41800000000E+01 0. -1.
         -5    1    1    2    0  502 -0.27116680082E+02 -0.16649384719E+02 -0.85656013670E+02  0.91470986811E+02  0.41800000000E+01 0.  1.
        -11    1    1    2    0    0  0.29525414542E+01  0.40188553140E+02  0.43542136801E+01  0.40531425848E+02  0.00000000000E+00 0.  1.
         11    1    1    2    0    0 -0.51513083067E+02 -0.30010146230E+02  0.30103853953E+02  0.66786590171E+02  0.00000000000E+00 0. -1.
</event>
<event>
 6    1  0.6597032E-006  0.1098524E+03  0.7561462E-02  0.1260844E+00
          2   -1    0    0  501    0  0.00000000000E+00  0.00000000000E+00  0.50822140670E+03  0.50822140670E+03  0.00000000000E+00 0. -1.
         -2   -1    0    0    0  501 -0.00000000000E+00 -0.00000000000E+00 -0.29733274452E+02  0.29733274452E+02  0.00000000000E+00 0.  1.
          5    1    1    2  502    0 -0.16874192853E+02  0.34297815436E+02  0.19011153629E+02  0.42894928493E+02  0.41800000000E+01 0. -1.
         -5    1    1    2    0  502 -0.11234470445E+02 -0.78332894930E+02  0.19433021254E+03  0.20986652820E+03  0.41800000000E+01 0. -1.
        -11    1    1    2    0    0  0.48116635157E+01  0.68242068042E+02  0.14318400127E+03  0.15868771275E+03  0.00000000000E+00 0.  1.
         11    1    1    2    0    0  0.23296999783E+02 -0.24206988547E+02  0.12196276480E+03  0.12650551171E+03  0.00000000000E+00 0. -1.
</event>
<event>
 6    1  0.6597032E-006  0.1321342E+03  0.7561462E-02  0.1224323E+00
          2   -1    0    0  501    0  0.00000000000E+00  0.00000000000E+00  0.16227788638E+03  0.16227788638E+03  0.00000000000E+00 0. -1.
         -2   -1    0    0    0  501 -0.00000000000E+00 -0.00000000000E+00 -0.28482770619E+03  0.28482770619E+03  0.00000000000E+00 0.  1.
          5    1    1    2  502    0  0.34450029127E+01 -0.71346986881E+01 -0.10792067234E+03  0.10829180896E+03  0.41800000000E+01 0.  1.
         -5    1    1    2    0  502 -0.12438628368E+03  0.38572531549E+02 -0.97458317442E+02  0.16271258033E+03  0.41800000000E+01 0.  1.
        -11    1    1    2    0    0  0.10852120662E+03 -0.29342015931E+02  0.22725619008E+02  0.11469202215E+03  0.00000000000E+00 0.  1.
         11    1    1    2    0    0  0.12420074149E+02 -0.20958169301E+01  0.60103550963E+02  0.61409181144E+02  0.00000000000E+00 0. -1.
</event>
<event>
 6    1  0.6597032E-006  0.1388804E+03  0.7561462E-02  0.1214844E+00
          1   -1    0    0  501    0  0.00000000000E+00  0.00000000000E+00  0.68017025172E+03  0.68017025172E+03  0.00000000000E+00 0. -1.
         -1   -1    0    0    0  501 -0.00000000000E+00 -0.00000000000E+00 -0.50343209747E+02  0.50343209747E+02  0.00000000000E+00 0.  1.
          5    1    1    2  502    0 -0.90064603652E+02  0.13517004836E+02  0.31945793887E+02  0.96604080647E+02  0.41800000000E+01 0.  1.
         -5    1    1    2    0  502 -0.37520878677E+02 -0.35930801749E+02  0.15254465439E+03  0.16120230405E+03  0.41800000000E+01 0.  1.
        -11    1    1    2    0    0  0.10393140691E+03  0.31694577238E+01  0.42112087860E+03  0.43376788401E+03  0.00000000000E+00 0. -1.
         11    1    1    2    0    0  0.23654075421E+02  0.19244339189E+02  0.24215715104E+02  0.38939192760E+02  0.00000000000E+00 0.  1.
</event>
<event>
 6    1  0.6597032E-006  0.1586544E+03  0.7561462E-02  0.1190224E+00
         -1   -1    0    0    0  501 -0.00000000000E+00  0.00000000000E+00  0.25029394788E+03  0.25029394788E+03  0.00000000000E+00 0.  1.
          1   -1    0    0  501    0  0.00000000000E+00 -0.00000000000E+00 -0.27128973969E+03  0.27128973969E+03  0.00000000000E+00 0. -1.
          5    1    1    2  502    0  0.30895700224E+02  0.96511141924E+02  0.13086091789E+03  0.16556266801E+03  0.41800000000E+01 0.  1.
         -5    1    1    2    0  502  0.62599531525E+02 -0.27153671405E+02  0.64539706552E+02  0.94015261206E+02  0.41800000000E+01 0.  1.
        -11    1    1    2    0    0 -0.41574208004E+02  0.18473672659E+02 -0.72990355112E+02  0.86007460677E+02  0.00000000000E+00 0.  1.
         11    1    1    2    0    0 -0.51921023744E+02 -0.87831143178E+02 -0.14340606113E+03  0.17599829769E+03  0.00000000000E+00 0. -1.
</event>
<event>
 6    1  0.6597032E-006  0.1005954E+03  0.7561462E-02  0.1279049E+00
         -1   -1    0    0    0  501 -0.00000000000E+00  0.00000000000E+00  0.95329896403E+02  0.95329896403E+02  0.00000000000E+00 0.  1.
          1   -1    0    0  501    0  0.00000000000E+00 -0.00000000000E+00 -0.15159195006E+03  0.15159195006E+03  0.00000000000E+00 0. -1.
          5    1    1    2  502    0  0.98943443647E+01 -0.40120366020E+02 -0.73830866800E+01  0.42184406940E+02  0.41800000000E+01 0. -1.
         -5    1    1    2    0  502  0.66299373793E+01  0.76088602627E+02  0.25506027518E+02  0.80631639939E+02  0.41800000000E+01 0.  1.
        -11    1    1    2    0    0  0.28525329371E+02 -0.62638342140E+01 -0.62303138041E+02  0.68808509972E+02  0.00000000000E+00 0.  1.
         11    1    1    2    0    0 -0.45049611115E+02 -0.29704402393E+02 -0.12081856457E+02  0.55297289613E+02  0.00000000000E+00 0. -1.
</event>
<event>
 6    1  0.6597032E-006  0.4929575E+02  0.7561462E-02  0.1449178E+00
          3   -1    0    0  501    0  0.00000000000E+00  0.00000000000E+00  0.12443805778E+03  0.12443805778E+03  0.00000000000E+00 0. -1.
         -3   -1    0    0    0  501 -0.00000000000E+00 -0.00000000000E+00 -0.10218591869E+03  0.10218591869E+03  0.00000000000E+00 0.  1.
          5    1    1    2  502    0  0.11197864901E+02 -0.25848606916E+02 -0.55097849347E+02  0.62022480284E+02  0.41800000000E+01 0. -1.
         -5    1    1    2    0  502 -0.35998649121E+02  0.25308183662E+02  0.48566261767E+02  0.65670092743E+02  0.41800000000E+01 0. -1.
        -11    1    1    2    0    0  0.14303384661E+02 -0.33930166939E+01 -0.33006724317E+02  0.36132301686E+02  0.00000000000E+00 0.  1.
         11    1    1    2    0    0  0.10497399559E+02  0.39334399488E+01  0.61790450989E+02  0.62799101751E+02  0.00000000000E+00 0. -1.
</event>
<event>
 6    1  0.6597032E-006  0.1125934E+03  0.7561462E-02  0.1255841E+00
         -2   -1    0    0    0  501 -0.00000000000E+00  0.00000000000E+00  0.88131177018E+03  0.88131177018E+03  0.00000000000E+00 0.  1.
          2   -1    0    0  501    0  0.00000000000E+00 -0.00000000000E+00 -0.25833867265E+02  0.25833867265E+02  0.00000000000E+00 0. -1.
          5    1    1    2  502    0 -0.37353440799E+02 -0.12268943631E+01  0.12177104931E+03  0.12744585383E+03  0.41800000000E+01 0.  1.
         -5    1    1    2    0  502  0.90152081879E+02  0.41315904206E+02  0.58571422298E+03  0.59406483250E+03  0.41800000000E+01 0.  1.
        -11    1    1    2    0    0 -0.13401382943E+02  0.15308291532E+02  0.10091846338E+03  0.10294890531E+03  0.00000000000E+00 0.  1.
         11    1    1    2    0    0 -0.39397258138E+02 -0.55397301376E+02  0.47074167245E+02  0.82686045801E+02  0.00000000000E+00 0. -1.
</event>
<event>
 6    1  0.6597032E-006  0.8667041E+02  0.7561462E-02  0.1311121E+00
          1   -1    0    0  501    0  0.00000000000E+00  0.00000000000E+00  0.29717966360E+02  0.29717966360E+02  0.00000000000E+00 0. -1.
         -1   -1    0    0    0  501 -0.00000000000E+00 -0.00000000000E+00 -0.69283547849E+03  0.69283547849E+03  0.00000000000E+00 0.  1.
          5    1    1    2  502    0  0.13001290748E+01  0.39380356645E+02 -0.43174172598E+03  0.43355610153E+03  0.41800000000E+01 0.  1.
         -5    1    1    2    0  502 -0.75057847941E+01 -0.61865686272E+02 -0.16101474448E+03  0.17270471992E+03  0.41800000000E+01 0.  1.
        -11    1    1    2    0    0  0.16025419164E+02  0.44422031409E+02 -0.77906373796E+02  0.91101778314E+02  0.00000000000E+00 0.  1.
         11    1    1    2    0    0 -0.98197634447E+01 -0.21936701782E+02  0.75453321227E+01  0.25190845084E+02  0.00000000000E+00 0. -1.
</event>
<event>
 6    1  0.6597032E-006  0.9103691E+02  0.7561462E-02  0.1300360E+00
         -2   -1    0    0    0  501 -0.00000000000E+00  0.00000000000E+00  0.43859880648E+03  0.43859880648E+03  0.00000000000E+00 0.  1.
          2   -1    0    0  501    0  0.00000000000E+00 -0.00000000000E+00 -0.29138717967E+02  0.29138717967E+02  0.00000000000E+00 0. -1.
          5    1    1    2  502    0  0.38295389174E+02 -0.18953597224E+02  0.23482962233E+03  0.23872201324E+03  0.41800000000E+01 0.  1.
         -5    1    1    2    0  502 -0.41154358109E+02  0.35571253213E+02  0.55373648320E+02  0.77734860743E+02  0.41800000000E+01 0.  1.
        -11    1    1    2    0    0  0.42424122088E+02 -0.14957768810E+02  0.94280302934E+02  0.10446203379E+03  0.00000000000E+00 0.  1.
         11    1    1    2    0    0 -0.39565153153E+02 -0.16598871781E+01  0.24976514929E+02  0.46818616676E+02  0.00000000000E+00 0. -1.
</event>
<event>
 6    1  0.6597032E-006  0.2066373E+03  0.7561462E-02  0.1144257E+00
         -1   -1    0    0    0  501 -0.00000000000E+00  0.00000000000E+00  0.79796017543E+02  0.79796017543E+02  0.00000000000E+00 0.  1.
          1   -1    0    0  501    0  0.00000000000E+00 -0.00000000000E+00 -0.64829145526E+03  0.64829145526E+03  0.00000000000E+00 0. -1.
          5    1    1    2  502    0 -0.13663424389E+03  0.12049103446E+03 -0.38743735164E+03  0.42814971661E+03  0.41800000000E+01 0. -1.
         -5    1    1    2    0  502  0.44593451985E+02 -0.86120481611E+02 -0.38855343436E+02  0.10455870804E+03  0.41800000000E+01 0.  1.
        -11    1    1    2    0    0  0.97161782524E+02 -0.55735277669E+02 -0.11878756112E+03  0.16327068885E+03  0.00000000000E+00 0.  1.
         11    1    1    2    0    0 -0.51209906220E+01  0.21364724820E+02 -0.23415181509E+02  0.32108359296E+02  0.00000000000E+00 0. -1.
</event>
<event>
 6    1  0.6597032E-006  0.8422230E+02  0.7561462E-02  0.1317479E+00
         -1   -1    0    0    0  501 -0.00000000000E+00  0.00000000000E+00  0.14886080523E+03  0.14886080523E+03  0.00000000000E+00 0.  1.
          1   -1    0    0  501    0  0.00000000000E+00 -0.00000000000E+00 -0.14247739945E+03  0.14247739945E+03  0.00000000000E+00 0. -1.
          5    1    1    2  502    0 -0.95948871976E+01  0.49245425018E+02  0.93296687115E+02  0.10601376313E+03  0.41800000000E+01 0.  1.
         -5    1    1    2    0  502 -0.27935272325E+02  0.21477901704E+02 -0.38438612404E+02  0.52313277712E+02  0.41800000000E+01 0.  1.
        -11    1    1    2    0    0  0.19537471215E+02 -0.56177291848E+02 -0.76351163978E+02  0.96783785531E+02  0.00000000000E+00 0. -1.
         11    1    1    2    0    0  0.17992688308E+02 -0.14546034874E+02  0.27876495041E+02  0.36227378306E+02  0.00000000000E+00 0.  1.
</event>
<event>
 6    1  0.6597032E-006  0.9988104E+02  0.7561462E-02  0.1280546E+00
         -1   -1    0    0    0  501 -0.00000000000E+00  0.00000000000E+00  0.13965908890E+03  0.13965908890E+03  0.00000000000E+00 0.  1.
          1   -1    0    0  501    0  0.00000000000E+00 -0.00000000000E+00 -0.13462471267E+03  0.13462471267E+03  0.00000000000E+00 0. -1.
          5    1    1    2  502    0  0.69149502931E+02 -0.26608332876E+02  0.32179618666E+02  0.80886694775E+02  0.41800000000E+01 0. -1.
         -5    1    1    2    0  502 -0.52152005293E+02  0.19590971635E+00  0.47838768871E+02  0.70893513411E+02  0.41800000000E+01 0. -1.
        -11    1    1    2    0    0 -0.27127314052E+02  0.44722677128E+02 -0.87386316053E+01  0.53031808375E+02  0.00000000000E+00 0.  1.
         11    1    1    2    0    0  0.10129816413E+02 -0.18310253968E+02 -0.66245379697E+02  0.69471785008E+02  0.00000000000E+00 0. -1.
</event>
<event>
 6    1  0.6597032E-006  0.1070734E+03  0.7561462E-02  0.1266088E+00
         -2   -1    0    0    0  501 -0.00000000000E+00  0.00000000000E+00  0.60961884491E+02  0.60961884491E+02  0.00000000000E+00 0.  1.
          2   -1    0    0  501    0  0.00000000000E+00 -0.00000000000E+00 -0.48238196042E+03  0.48238196042E+03  0.00000000000E+00 0. -1.
          5    1    1    2  502    0 -0.19968442888E+02  0.41294208824E+02  0.14411974139E+02  0.48261038037E+02  0.41800000000E+01 0.  1.
         -5    1    1    2    0  502  0.48128519166E+02 -0.57218179234E+02 -0.34851182442E+02  0.82597528471E+02  0.41800000000E+01 0.  1.
        -11    1    1    2    0    0  0.26539626112E+02  0.26483817144E+02 -0.10985308630E+03  0.11607516916E+03  0.00000000000E+00 0.  1.
         11    1    1    2    0    0 -0.54699702390E+02 -0.10559846735E+02 -0.29112778132E+03  0.29641010924E+03  0.00000000000E+00 0. -1.
</event>
<event>
 6    1  0.6597032E-006  0.9952408E+02  0.7561462E-02  0.1281300E+00
          2   -1    0    0  501    0  0.00000000000E+00  0.00000000000E+00  0.82083897069E+02  0.82083897069E+02  0.00000000000E+00 0. -1.
         -2   -1    0    0    0  501 -0.00000000000E+00 -0.00000000000E+00 -0.23812244495E+03  0.23812244495E+03  0.00000000000E+00 0.  1.
          5    1    1    2  502    0  0.41015092402E+02  0.83104425123E+02 -0.14291192436E+03  0.17038155359E+03  0.41800000000E+01 0. -1.
         -5    1    1    2    0  502 -0.15251315060E+02 -0.34160859120E+02 -0.21020912708E+02  0.43115172248E+02  0.41800000000E+01 0. -1.
        -11    1    1    2    0    0  0.10711332839E+02 -0.17300099617E+02 -0.36065003914E+02  0.41409064289E+02  0.00000000000E+00 0.  1.
         11    1    1    2    0    0 -0.36475110181E+02 -0.31643466386E+02  0.43959293100E+02  0.65300551893E+02  0.00000000000E+00 0. -1.
</event>
<event>
 6    1  0.6597032E-006  0.9136047E+02  0.7561462E-02  0.1299590E+00
         -2   -1    0    0    0  501 -0.00000000000E+00  0.00000000000E+00  0.69526209786E+02  0.69526209786E+02  0.00000000000E+00 0.  1.
          2   -1    0    0  501    0  0.00000000000E+00 -0.00000000000E+00 -0.54470011468E+03  0.54470011468E+03  0.00000000000E+00 0. -1.
          5    1    1    2  502    0 -0.54060039364E+02 -0.36720681063E+02  0.44986167705E+02  0.79448876383E+02  0.41800000000E+01 0.  1.
         -5    1    1    2    0  502  0.13564068436E+02 -0.54784210102E+01 -0.57189520517E+02  0.59178633866E+02  0.41800000000E+01 0.  1.
        -11    1    1    2    0    0 -0.16545537390E+01  0.57242667744E+02 -0.33887290051E+03  0.34367761530E+03  0.00000000000E+00 0.  1.
         11    1    1    2    0    0  0.42150524668E+02 -0.15043565671E+02 -0.12409765157E+03  0.13192119891E+03  0.00000000000E+00 0. -1.
</event>
<event>
 6    1  0.6597032E-006  0.2359079E+03  0.7561462E-02  0.1122549E+00
         -2   -1    0    0    0  501 -0.00000000000E+00  0.00000000000E+00  0.29155002961E+03  0.29155002961E+03  0.00000000000E+00 0. -1.
          2   -1    0    0  501    0  0.00000000000E+00 -0.00000000000E+00 -0.20008879642E+03  0.20008879642E+03  0.00000000000E+00 0.  1.
          5    1    1    2  502    0 -0.10649611394E+03  0.54742749423E+02  0.25817538216E+01  0.11984293368E+03  0.41800000000E+01 0. -1.
         -5    1    1    2    0  502 -0.10738929447E+03 -0.53356869274E+02  0.67429978783E+02  0.13763607995E+03  0.41800000000E+01 0. -1.
        -11    1    1    2    0    0  0.15266984632E+03  0.40364907306E+02  0.25453322318E+02  0.15995399130E+03  0.00000000000E+00 0.  1.
         11    1    1    2    0    0  0.61215562097E+02 -0.41750787455E+02 -0.40038217327E+01  0.74205821095E+02  0.00000000000E+00 0. -1.
</event>
<event>
 6    1  0.6597032E-006  0.1805405E+03  0.7561462E-02  0.1167281E+00
         -2   -1    0    0    0  501 -0.00000000000E+00  0.00000000000E+00  0.87157432327E+02  0.87157432327E+02  0.00000000000E+00 0.  1.
          2   -1    0    0  501    0  0.00000000000E+00 -0.00000000000E+00 -0.50969885252E+03  0.50969885252E+03  0.00000000000E+00 0. -1.
          5    1    1    2  502    0  0.43876247304E+02 -0.30189733542E+02 -0.95444832331E+02  0.10937885311E+03  0.41800000000E+01 0. -1.
         -5    1    1    2    0  502 -0.22529491187E+01 -0.13580990539E+03 -0.37990478122E+02  0.14110334869E+03  0.41800000000E+01 0. -1.
        -11    1    1    2    0    0 -0.44912849554E+01  0.44291809888E+02 -0.15601077614E+03  0.16223839969E+03  0.00000000000E+00 0. -1.
         11    1    1    2    0    0 -0.37132013230E+02  0.12170782905E+03 -0.13309533360E+03  0.18413568335E+03  0.00000000000E+00 0.  1.
</event>
<event>
 6    1  0.6597032E-006  0.1112008E+03  0.7561462E-02  0.1258362E+00
         -1   -1    0    0    0  501 -0.00000000000E+00  0.00000000000E+00  0.34745781675E+02  0.34745781675E+02  0.00000000000E+00 0.  1.
          1   -1    0    0  501    0  0.00000000000E+00 -0.00000000000E+00 -0.37038827098E+03  0.37038827098E+03  0.00000000000E+00 0. -1.
          5    1    1    2  502    0 -0.25720479274E+02  0.69906864290E+02 -0.12623636267E+03  0.14663425381E+03  0.41800000000E+01 0. -1.
         -5    1    1    2    0  502  0.24576021927E+02 -0.43302719052E+02 -0.46177230408E+02  0.68036132601E+02  0.41800000000E+01 0. -1.
        -11    1    1    2    0    0  0.30149581635E+02 -0.51453581930E+02 -0.91933152989E+02  0.10958180955E+03  0.00000000000E+00 0.  1.
         11    1    1    2    0    0 -0.29005124288E+02  0.24849436692E+02 -0.71295743235E+02  0.80881856695E+02  0.00000000000E+00 0. -1.
</event>
<event>
 6    1  0.6597032E-006  0.4164450E+03  0.7561462E-02  0.1038230E+00
          2   -1    0    0  501    0  0.00000000000E+00  0.00000000000E+00  0.21592027801E+04  0.21592027801E+04  0.00000000000E+00 0. -1.
         -2   -1    0    0    0  501 -0.00000000000E+00 -0.00000000000E+00 -0.90166901995E+02  0.90166901995E+02  0.00000000000E+00 0.  1.
          5    1    1    2  502    0  0.23202136418E+03  0.11741095154E+03  0.36070650696E+03  0.44468629565E+03  0.41800000000E+01 0. -1.
         -5    1    1    2    0  502  0.15712674070E+03 -0.24857344364E+01  0.34088103377E+03  0.37538292863E+03  0.41800000000E+01 0. -1.
        -11    1    1    2    0    0 -0.34060642496E+03 -0.13033019408E+03  0.12168804461E+04  0.12703529888E+04  0.00000000000E+00 0.  1.
         11    1    1    2    0    0 -0.48541679914E+02  0.15404976977E+02  0.15056789133E+03  0.15894746901E+03  0.00000000000E+00 0. -1.
</event>
<event>
 6    1  0.6597032E-006  0.1174160E+03  0.7561462E-02  0.1247422E+00
          1   -1    0    0  501    0  0.00000000000E+00  0.00000000000E+00  0.32368243562E+03  0.32368243562E+03  0.00000000000E+00 0. -1.
         -1   -1    0    0    0  501 -0.00000000000E+00 -0.00000000000E+00 -0.62233560139E+02  0.62233560139E+02  0.00000000000E+00 0.  1.
          5    1    1    2  502    0  0.56679488769E+02 -0.98414614456E+02  0.52060511714E+02  0.12500308022E+03  0.41800000000E+01 0.  1.
         -5    1    1    2    0  502 -0.21501469741E+02  0.19549828058E+02  0.50343536614E+02  0.58279096226E+02  0.41800000000E+01 0.  1.
        -11    1    1    2    0    0 -0.26974643145E+02  0.23255961811E+02  0.18190563252E+01  0.35662026001E+02  0.00000000000E+00 0.  1.
         11    1    1    2    0    0 -0.82033758831E+01  0.55608824587E+02  0.15722577083E+03  0.16697179331E+03  0.00000000000E+00 0. -1.
</event>
<event>
 6    1  0.6597032E-006  0.9380849E+02  0.7561462E-02  0.1293882E+00
         -1   -1    0    0    0  501 -0.00000000000E+00  0.00000000000E+00  0.31764486553E+03  0.31764486553E+03  0.00000000000E+00 0.  1.
          1   -1    0    0  501    0  0.00000000000E+00 -0.00000000000E+00 -0.37446774226E+02  0.37446774226E+02  0.00000000000E+00 0. -1.
          5    1    1    2  502    0  0.26337988302E+02 -0.42387832095E+02  0.35988257406E+02  0.61668833365E+02  0.41800000000E+01 0. -1.
         -5    1    1    2    0  502 -0.39119087491E+02  0.52687348617E+02  0.14211933359E+03  0.15659386032E+03  0.41800000000E+01 0. -1.
        -11    1    1    2    0    0 -0.13807145492E+00  0.29724916229E+02  0.87339525135E+02  0.92259321260E+02  0.00000000000E+00 0.  1.
         11    1    1    2    0    0  0.12919170644E+02 -0.40024432750E+02  0.14750975174E+02  0.44569624810E+02  0.00000000000E+00 0. -1.
</event>
<event>
 6    1  0.6597032E-006  0.1280883E+03  0.7561462E-02  0.1230320E+00
         -2   -1    0    0    0  501 -0.00000000000E+00  0.00000000000E+00  0.71231610548E+02  0.71231610548E+02  0.00000000000E+00 0.  1.
          2   -1    0    0  501    0  0.00000000000E+00 -0.00000000000E+00 -0.37243378235E+03  0.37243378235E+03  0.00000000000E+00 0. -1.
          5    1    1    2  502    0  0.11437888238E+02 -0.89530517015E+02 -0.97335373638E+02  0.13280883301E+03  0.41800000000E+01 0.  1.
         -5    1    1    2    0  502  0.37744117303E+02  0.15497642492E+01  0.22766305902E+02  0.44303467637E+02  0.41800000000E+01 0.  1.
        -11    1    1    2    0    0 -0.70861941465E+02  0.63969951641E+02 -0.11063754785E+03  0.14613088810E+03  0.00000000000E+00 0.  1.
         11    1    1    2    0    0  0.21679935925E+02  0.24010801125E+02 -0.11599555621E+03  0.12042220415E+03  0.00000000000E+00 0. -1.
</event>
<event>
 6    1  0.6597032E-006  0.2213170E+03  0.7561462E-02  0.1132905E+00
         -3   -1    0    0    0  501 -0.00000000000E+00  0.00000000000E+00  0.41516503399E+02  0.41516503399E+02  0.00000000000E+00 0.  1.
          3   -1    0    0  501    0  0.00000000000E+00 -0.00000000000E+00 -0.12233388941E+04  0.12233388941E+04  0.00000000000E+00 0. -1.
          5    1    1    2  502    0  0.35821659331E+02 -0.22310304434E+02 -0.68857379121E+02  0.80868733270E+02  0.41800000000E+01 0. -1.
         -5    1    1    2    0  502 -0.88070524790E+02 -0.16266562575E+03 -0.43622245069E+03  0.47383965856E+03  0.41800000000E+01 0. -1.
        -11    1    1    2    0    0  0.80476336156E+02  0.15030419822E+03 -0.53066393192E+03  0.55737958460E+03  0.00000000000E+00 0.  1.
         11    1    1    2    0    0 -0.28227470697E+02  0.34671731962E+02 -0.14607862892E+03  0.15276742102E+03  0.00000000000E+00 0. -1.
</event>
<event>
 6    1  0.6597032E-006  0.1313066E+03  0.7561462E-02  0.1225530E+00
         -2   -1    0    0    0  501 -0.00000000000E+00  0.00000000000E+00  0.53784653006E+02  0.53784653006E+02  0.00000000000E+00 0. -1.
          2   -1    0    0  501    0  0.00000000000E+00 -0.00000000000E+00 -0.34303611335E+03  0.34303611335E+03  0.00000000000E+00 0.  1.
          5    1    1    2  502    0 -0.33790766520E+02 -0.10783590078E+03 -0.90295446419E+02  0.14471052983E+03  0.41800000000E+01 0.  1.
         -5    1    1    2    0  502  0.13469858056E+02  0.30824499683E+02 -0.42446377592E+02  0.54320845239E+02  0.41800000000E+01 0.  1.
        -11    1    1    2    0    0 -0.25933387520E+02  0.61668429868E+02 -0.60858396449E+02  0.90439373334E+02  0.00000000000E+00 0. -1.
         11    1    1    2    0    0  0.46254295984E+02  0.15342971232E+02 -0.95651239884E+02  0.10735001795E+03  0.00000000000E+00 0.  1.
</event>
<event>
 6    1  0.6597032E-006  0.9029928E+02  0.7561462E-02  0.1302129E+00
         -1   -1    0    0    0  501 -0.00000000000E+00  0.00000000000E+00  0.25873375857E+03  0.25873375857E+03  0.00000000000E+00 0.  1.
          1   -1    0    0  501    0  0.00000000000E+00 -0.00000000000E+00 -0.63349150638E+02  0.63349150638E+02  0.00000000000E+00 0. -1.
          5    1    1    2  502    0 -0.15324249795E+02  0.49969313215E+02  0.14128987095E+02  0.54303458189E+02  0.41800000000E+01 0. -1.
         -5    1    1    2    0  502 -0.24513751897E+02 -0.30966569784E+02  0.15852662704E+03  0.16342587420E+03  0.41800000000E+01 0. -1.
        -11    1    1    2    0    0 -0.21479490323E+02 -0.16492770384E+02  0.32400159640E+02  0.42227364637E+02  0.00000000000E+00 0.  1.
         11    1    1    2    0    0  0.61317492016E+02 -0.25099730469E+01 -0.96711658422E+01  0.62126212186E+02  0.00000000000E+00 0. -1.
</event>
<event>
 6    1  0.6597032E-006  0.4458287E+03  0.7561462E-02  0.1028973E+00
         -1   -1    0    0    0  501 -0.00000000000E+00  0.00000000000E+00  0.73693928982E+03  0.73693928982E+03  0.00000000000E+00 0.  1.
          1   -1    0    0  501    0  0.00000000000E+00 -0.00000000000E+00 -0.33271363100E+03  0.33271363100E+03  0.00000000000E+00 0. -1.
          5    1    1    2  502    0  0.13947120306E+03 -0.10663780051E+03  0.17255485106E+03  0.24620415513E+03  0.41800000000E+01 0. -1.
         -5    1    1    2    0  502 -0.28466836776E+03  0.33616582846E+03  0.28750408766E+03  0.52604145906E+03  0.41800000000E+01 0.  1.
        -11    1    1    2    0    0  0.31137504416E+01 -0.32244957799E+02 -0.43146954940E+02  0.53954540735E+02  0.00000000000E+00 0.  1.
         11    1    1    2    0    0  0.14208341426E+03 -0.19728307016E+03 -0.12686324970E+02  0.24345276589E+03  0.00000000000E+00 0. -1.
</event>
<event>
 6    1  0.6597032E-006  0.9331729E+02  0.7561462E-02  0.1295012E+00
         -2   -1    0    0    0  501 -0.00000000000E+00  0.00000000000E+00  0.18829809985E+02  0.18829809985E+02  0.00000000000E+00 0.  1.
          2   -1    0    0  501    0  0.00000000000E+00 -0.00000000000E+00 -0.58478292611E+03  0.58478292611E+03  0.00000000000E+00 0. -1.
          5    1    1    2  502    0 -0.52982316927E+02 -0.42835526752E+02 -0.10098556113E+03  0.12189160848E+03  0.41800000000E+01 0. -1.
         -5    1    1    2    0  502  0.28849971460E+02  0.40424302114E+02 -0.17743198425E+03  0.18429874251E+03  0.41800000000E+01 0. -1.
        -11    1    1    2    0    0  0.11409964968E+02  0.33261788097E+02 -0.21125582492E+03  0.21416245566E+03  0.00000000000E+00 0. -1.
         11    1    1    2    0    0  0.12722380499E+02 -0.30850563459E+02 -0.76279745810E+02  0.83259929451E+02  0.00000000000E+00 0.  1.
</event>
<event>
 6    1  0.6597032E-006  0.9500373E+02  0.7561462E-02  0.1291168E+00
          2   -1    0    0  501    0  0.00000000000E+00  0.00000000000E+00  0.27185009590E+03  0.27185009590E+03  0.00000000000E+00 0. -1.
         -2   -1    0    0    0  501 -0.00000000000E+00 -0.00000000000E+00 -0.43187098378E+02  0.43187098378E+02  0.00000000000E+00 0.  1.
          5    1    1    2  502    0 -0.23455813313E+02 -0.46758911737E+02  0.12830122922E+03  0.13861907814E+03  0.41800000000E+01 0. -1.
         -5    1    1    2    0  502  0.19224264707E+02  0.41900496468E+02  0.88609300313E+01  0.47129740492E+02  0.41800000000E+01 0. -1.
        -11    1    1    2    0    0 -0.43208347533E+02  0.68979885260E+01  0.40844738925E+02  0.59856797777E+02  0.00000000000E+00 0.  1.
         11    1    1    2    0    0  0.47439896138E+02 -0.20395732570E+01  0.50656099347E+02  0.69431577871E+02  0.00000000000E+00 0. -1.
</event>
<event>
 6    1  0.6597032E-006  0.1210925E+03  0.7561462E-02  0.1241306E+00
          1   -1    0    0  501    0  0.00000000000E+00  0.00000000000E+00  0.21476705827E+03  0.21476705827E+03  0.00000000000E+00 0. -1.
         -1   -1    0    0    0  501 -0.00000000000E+00 -0.00000000000E+00 -0.75987055010E+02  0.75987055010E+02  0.00000000000E+00 0.  1.
          5    1    1    2  502    0 -0.45004171450E+02  0.14512086741E+02  0.50096157312E+02  0.69015023632E+02  0.41800000000E+01 0.  1.
         -5    1    1    2    0  502  0.73657212321E+02  0.47561958344E+02  0.20859125266E+02  0.90222504483E+02  0.41800000000E+01 0.  1.
        -11    1    1    2    0    0 -0.19979272414E+02 -0.82426164970E+02  0.69038773655E+02  0.10935993903E+03  0.00000000000E+00 0. -1.
         11    1    1    2    0    0 -0.86737684567E+01  0.20352119885E+02 -0.12140529731E+01  0.22156646129E+02  0.00000000000E+00 0.  1.
</event>
<event>
 6    1  0.6597032E-006  0.2951376E+03  0.7561462E-02  0.1087697E+00
         -1   -1    0    0    0  501 -0.00000000000E+00  0.00000000000E+00  0.13292110680E+03  0.13292110680E+03  0.00000000000E+00 0.  1.
          1   -1    0    0  501    0  0.00000000000E+00 -0.00000000000E+00 -0.91255498129E+03  0.91255498129E+03  0.00000000000E+00 0. -1.
          5    1    1    2  502    0 -0.10655227473E+03 -0.16385556656E+03 -0.41699370896E+02  0.19989583256E+03  0.41800000000E+01 0. -1.
         -5    1    1    2    0  502  0.10004000095E+03 -0.79570518423E+02 -0.14063922548E+03  0.19009559000E+03  0.41800000000E+01 0.  1.
        -11    1    1    2    0    0  0.55228832965E+02  0.17016133663E+03 -0.35131413467E+03  0.39424196338E+03  0.00000000000E+00 0.  1.
         11    1    1    2    0    0 -0.48716559187E+02  0.73264748360E+02 -0.24598114344E+03  0.26124270214E+03  0.00000000000E+00 0. -1.
</event>
<event>
 6    1  0.6597032E-006  0.1075144E+03  0.7561462E-02  0.1265243E+00
         -1   -1    0    0    0  501 -0.00000000000E+00  0.00000000000E+00  0.70082162189E+02  0.70082162189E+02  0.00000000000E+00 0.  1.
          1   -1    0    0  501    0  0.00000000000E+00 -0.00000000000E+00 -0.18986780364E+03  0.18986780364E+03  0.00000000000E+00 0. -1.
          5    1    1    2  502    0 -0.70826229174E+02 -0.26537504304E+02 -0.72700873950E+02  0.10499277759E+03  0.41800000000E+01 0.  1.
         -5    1    1    2    0  502  0.32016827421E+02  0.32699909445E+02 -0.21957222164E+01  0.46007118056E+02  0.41800000000E+01 0.  1.
        -11    1    1    2    0    0  0.53900614556E+02 -0.32520747642E+02 -0.11823675988E+02  0.64052124013E+02  0.00000000000E+00 0.  1.
         11    1    1    2    0    0 -0.15091212803E+02  0.26358342501E+02 -0.33065369294E+02  0.44897946165E+02  0.00000000000E+00 0. -1.
</event>
<event>
 6    1  0.6597032E-006  0.1597251E+03  0.7561462E-02  0.1189007E+00
         -2   -1    0    0    0  501 -0.00000000000E+00  0.00000000000E+00  0.12471558223E+03  0.12471558223E+03  0.00000000000E+00 0.  1.
          2   -1    0    0  501    0  0.00000000000E+00 -0.00000000000E+00 -0.24447329485E+03  0.24447329485E+03  0.00000000000E+00 0. -1.
          5    1    1    2  502    0 -0.71627834373E+02  0.12930749359E+02 -0.63205658022E+02  0.96489266459E+02  0.41800000000E+01 0. -1.
         -5    1    1    2    0  502  0.11421662603E+02 -0.10714652987E+03  0.24239830081E+02  0.11052544957E+03  0.41800000000E+01 0.  1.
        -11    1    1    2    0    0 -0.28606465555E+01 -0.13548822429E+02 -0.76783480657E+00  0.13868794404E+02  0.00000000000E+00 0.  1.
         11    1    1    2    0    0  0.63066818325E+02  0.10776460294E+03 -0.80024049876E+02  0.14830536666E+03  0.00000000000E+00 0. -1.
</event>
<event>
 6    1  0.6597032E-006  0.3389286E+03  0.7561462E-02  0.1067253E+00
          1   -1    0    0  501    0  0.00000000000E+00  0.00000000000E+00  0.98128693895E+02  0.98128693895E+02  0.00000000000E+00 0. -1.
         -1   -1    0    0    0  501 -0.00000000000E+00 -0.00000000000E+00 -0.12454361858E+04  0.12454361858E+04  0.00000000000E+00 0.  1.
          5    1    1    2  502    0 -0.27096149888E+03 -0.13342194850E+01 -0.36096693998E+03  0.45137181810E+03  0.41800000000E+01 0. -1.
         -5    1    1    2    0  502 -0.57401890602E+02  0.47466158304E+02 -0.18566131396E+03  0.20008900303E+03  0.41800000000E+01 0. -1.
        -11    1    1    2    0    0  0.22870222129E+03 -0.22299193290E+02 -0.32526997291E+03  0.39824931302E+03  0.00000000000E+00 0.  1.
         11    1    1    2    0    0  0.99661168189E+02 -0.23832745530E+02 -0.27540926506E+03  0.29385474555E+03  0.00000000000E+00 0. -1.
</event>
<event>
 6    1  0.6597032E-006  0.9608636E+02  0.7561462E-02  0.1288748E+00
          1   -1    0    0  501    0  0.00000000000E+00  0.00000000000E+00  0.15060010760E+03  0.15060010760E+03  0.00000000000E+00 0. -1.
         -1   -1    0    0    0  501 -0.00000000000E+00 -0.00000000000E+00 -0.87662107003E+02  0.87662107003E+02  0.00000000000E+00 0.  1.
          5    1    1    2  502    0  0.13433611682E+02 -0.42106791666E+02 -0.32924880477E+02  0.55271728593E+02  0.41800000000E+01 0.  1.
         -5    1    1    2    0  502 -0.45501132390E+02  0.28486413010E+02  0.53982519922E+02  0.76245745009E+02  0.41800000000E+01 0.  1.
        -11    1    1    2    0    0  0.53311508249E+02 -0.17624827995E+02  0.39952007521E+02  0.68912367385E+02  0.00000000000E+00 0. -1.
         11    1    1    2    0    0 -0.21243987542E+02  0.31245206651E+02  0.19283536276E+01  0.37832373611E+02  0.00000000000E+00 0.  1.
</event>
<event>
 6    1  0.6597032E-006  0.8254676E+02  0.7561462E-02  0.1321976E+00
         -1   -1    0    0    0  501 -0.00000000000E+00  0.00000000000E+00  0.18011182671E+03  0.18011182671E+03  0.00000000000E+00 0.  1.
          1   -1    0    0  501    0  0.00000000000E+00 -0.00000000000E+00 -0.87176645581E+02  0.87176645581E+02  0.00000000000E+00 0. -1.
          5    1    1    2  502    0  0.84692568679E+01  0.41366817387E+01  0.10638823974E+03  0.10688671761E+03  0.41800000000E+01 0.  1.
         -5    1    1    2    0  502  0.68221883303E+01  0.48149953015E+02 -0.22001203389E+02  0.53539570222E+02  0.41800000000E+01 0.  1.
        -11    1    1    2    0    0 -0.45588949759E+02 -0.54134355607E-01  0.90400298387E+01  0.46476632947E+02  0.00000000000E+00 0.  1.
         11    1    1    2    0    0  0.30297504560E+02 -0.52232500398E+02 -0.49188505569E+00  0.60385551511E+02  0.00000000000E+00 0. -1.
</event>
<event>
 6    1  0.6597032E-006  0.7923142E+02  0.7561462E-02  0.1331247E+00
         -2   -1    0    0    0  501 -0.00000000000E+00  0.00000000000E+00  0.23777335407E+03  0.23777335407E+03  0.00000000000E+00 0.  1.
          2   -1    0    0  501    0  0.00000000000E+00 -0.00000000000E+00 -0.68643521461E+02  0.68643521461E+02  0.00000000000E+00 0. -1.
          5    1    1    2  502    0  0.32704502800E+02 -0.37995176103E+02  0.14637086115E+03  0.15477441424E+03  0.41800000000E+01 0.  1.
         -5    1    1    2    0  502 -0.48526483141E+02  0.85360773031E+01  0.14098818082E+02  0.51419191486E+02  0.41800000000E+01 0.  1.
        -11    1    1    2    0    0 -0.12548125296E+02 -0.54877215706E+01  0.42020446878E+02  0.44196023490E+02  0.00000000000E+00 0.  1.
         11    1    1    2    0    0  0.28370105636E+02  0.34946820370E+02 -0.33360293496E+02  0.56027246318E+02  0.00000000000E+00 0. -1.
</event>
<event>
 6    1  0.6597032E-006  0.1403156E+03  0.7561462E-02  0.1212905E+00
         -2   -1    0    0    0  501 -0.00000000000E+00  0.00000000000E+00  0.30073689750E+02  0.30073689750E+02  0.00000000000E+00 0. -1.
          2   -1    0    0  501    0  0.00000000000E+00 -0.00000000000E+00 -0.73275676983E+03  0.73275676983E+03  0.00000000000E+00 0.  1.
          5    1    1    2  502    0 -0.70554933556E+02  0.73976886692E+02 -0.16307486021E+03  0.19251353419E+03  0.41800000000E+01 0. -1.
         -5    1    1    2    0  502  0.40904332348E+02  0.22879754383E+02 -0.18638088752E+03  0.19222891353E+03  0.41800000000E+01 0. -1.
        -11    1    1    2    0    0  0.38696434050E+02 -0.50643911633E+01 -0.14848968846E+03  0.15353256868E+03  0.00000000000E+00 0.  1.
         11    1    1    2    0    0 -0.90458328421E+01 -0.91792249912E+02 -0.20473764388E+03  0.22455544317E+03  0.00000000000E+00 0. -1.
</event>
<event>
 6    1  0.6597032E-006  0.1024317E+03  0.7561462E-02  0.1275264E+00
          1   -1    0    0  501    0  0.00000000000E+00  0.00000000000E+00  0.51222014404E+02  0.51222014404E+02  0.00000000000E+00 0. -1.
         -1   -1    0    0    0  501 -0.00000000000E+00 -0.00000000000E+00 -0.32279383868E+03  0.32279383868E+03  0.00000000000E+00 0.  1.
          5    1    1    2  502    0  0.31045166464E+02  0.84545695169E+01 -0.12678947595E+03  0.13087522958E+03  0.41800000000E+01 0. -1.
         -5    1    1    2    0  502 -0.53819481147E+02 -0.68345650114E+02 -0.74402917299E+02  0.11454663218E+03  0.41800000000E+01 0. -1.
        -11    1    1    2    0    0  0.31075829492E+02  0.67344128023E+02 -0.19754013206E+02  0.76753891078E+02  0.00000000000E+00 0. -1.
         11    1    1    2    0    0 -0.83015148100E+01 -0.74530474254E+01 -0.50625417822E+02  0.51840100248E+02  0.00000000000E+00 0.  1.
</event>
<event>
 6    1  0.6597032E-006  0.1040705E+03  0.7561462E-02  0.1271962E+00
         -2   -1    0    0    0  501 -0.00000000000E+00  0.00000000000E+00  0.33580574074E+02  0.33580574074E+02  0.00000000000E+00 0. -1.
          2   -1    0    0  501    0  0.00000000000E+00 -0.00000000000E+00 -0.44415280582E+03  0.44415280582E+03  0.00000000000E+00 0.  1.
          5    1    1    2  502    0 -0.97270701155E+01 -0.54515824178E+02 -0.85269913501E+02  0.10175962621E+03  0.41800000000E+01 0. -1.
         -5    1    1    2    0  502 -0.23654394042E+02  0.66771766283E+02 -0.57230085023E+02  0.91163337816E+02  0.41800000000E+01 0. -1.
        -11    1    1    2    0    0  0.17403847705E+02 -0.43335469358E+02 -0.22268187741E+03  0.22752598829E+03  0.00000000000E+00 0.  1.
         11    1    1    2    0    0  0.15977616453E+02  0.31079527253E+02 -0.45390355810E+02  0.57284427572E+02  0.00000000000E+00 0. -1.
</event>
<event>
 6    1  0.6597032E-006  0.1273736E+03  0.7561462E-02  0.1231406E+00
         -1   -1    0    0    0  501 -0.00000000000E+00  0.00000000000E+00  0.68897037477E+02  0.68897037477E+02  0.00000000000E+00 0.  1.
          1   -1    0    0  501    0  0.00000000000E+00 -0.00000000000E+00 -0.47624191594E+03  0.47624191594E+03  0.00000000000E+00 0. -1.
          5    1    1    2  502    0 -0.23117914420E+01 -0.19711688268E+02 -0.95419196457E+02  0.97550963534E+02  0.41800000000E+01 0.  1.
         -5    1    1    2    0  502  0.28280010413E+02 -0.99662636709E+02 -0.43776676064E+01  0.10377396840E+03  0.41800000000E+01 0.  1.
        -11    1    1    2    0    0 -0.37456728563E+02  0.63364356078E+02 -0.77980199912E+02  0.10723320248E+03  0.00000000000E+00 0.  1.
         11    1    1    2    0    0  0.11488509592E+02  0.56009968899E+02 -0.22956781449E+03  0.23658081900E+03  0.00000000000E+00 0. -1.
</event>
<event>
 6    1  0.6597032E-006  0.1912408E+03  0.7561462E-02  0.1157347E+00
          4   -1    0    0  501    0  0.00000000000E+00  0.00000000000E+00  0.21999050166E+03  0.21999050166E+03  0.00000000000E+00 0. -1.
         -4   -1    0    0    0  501 -0.00000000000E+00 -0.00000000000E+00 -0.19643869828E+03  0.19643869828E+03  0.00000000000E+00 0.  1.
          5    1    1    2  502    0 -0.37802709013E+02  0.11429009783E+02  0.26441255723E+02  0.47710370755E+02  0.41800000000E+01 0. -1.
         -5    1    1    2    0  502 -0.84067852951E+02 -0.13185547326E+03 -0.57623262539E+02  0.16670687602E+03  0.41800000000E+01 0. -1.
        -11    1    1    2    0    0  0.11101978589E+03  0.13063594471E+03  0.31344166197E+02  0.17428023314E+03  0.00000000000E+00 0.  1.
         11    1    1    2    0    0  0.10850776076E+02 -0.10209481236E+02  0.23389644007E+02  0.27731720021E+02  0.00000000000E+00 0. -1.
</event>
<event>
 6    1  0.6597032E-006  0.1457123E+03  0.7561462E-02  0.1205843E+00
         -2   -1    0    0    0  501 -0.00000000000E+00  0.00000000000E+00  0.45732160621E+02  0.45732160621E+02  0.00000000000E+00 0.  1.
          2   -1    0    0  501    0  0.00000000000E+00 -0.00000000000E+00 -0.54431802127E+03  0.54431802127E+03  0.00000000000E+00 0. -1.
          5    1    1    2  502    0  0.32150453333E+02 -0.12721010842E+03 -0.13885004061E+03  0.19108340982E+03  0.41800000000E+01 0. -1.
         -5    1    1    2    0  502  0.41188124837E+01  0.22530276420E+02 -0.85759531512E+02  0.88863646206E+02  0.41800000000E+01 0. -1.
        -11    1    1    2    0    0 -0.59493497592E+02  0.94136765188E+02 -0.25517803699E+03  0.27841881649E+03  0.00000000000E+00 0. -1.
         11    1    1    2    0    0  0.23224231775E+02  0.10543066807E+02 -0.18798251541E+02  0.31684309370E+02  0.00000000000E+00 0.  1.
</event>
<event>
 6    1  0.6597032E-006  0.1910803E+03  0.7561462E-02  0.1157491E+00
          2   -1    0    0  501    0  0.00000000000E+00  0.00000000000E+00  0.71124604786E+03  0.71124604786E+03  0.00000000000E+00 0. -1.
         -2   -1    0    0    0  501 -0.00000000000E+00 -0.00000000000E+00 -0.59863214509E+02  0.59863214509E+02  0.00000000000E+00 0.  1.
          5    1    1    2  502    0 -0.16563303807E+03  0.77692265957E+02  0.35573822232E+03  0.40004693063E+03  0.41800000000E+01 0. -1.
         -5    1    1    2    0  502  0.23002236479E+02  0.14240067947E+02  0.63361085013E+02  0.69021604677E+02  0.41800000000E+01 0. -1.
        -11    1    1    2    0    0  0.54018289131E+02 -0.50582800207E+02  0.35022494654E+02  0.81872891540E+02  0.00000000000E+00 0.  1.
         11    1    1    2    0    0  0.88612512461E+02 -0.41349533698E+02  0.19726103137E+03  0.22016783552E+03  0.00000000000E+00 0. -1.
</event>
<event>
 6    1  0.8442554E-006  0.4144444E+03  0.7561462E-02  0.1038890E+00
          2   -1    0    0  501    0  0.00000000000E+00  0.00000000000E+00  0.29426370207E+03  0.29426370207E+03  0.00000000000E+00 0.  1.
         -2   -1    0    0    0  501 -0.00000000000E+00 -0.00000000000E+00 -0.76183523310E+03  0.76183523310E+03  0.00000000000E+00 0. -1.
          5    1    1    2  502    0  0.18112046746E+03 -0.30208992498E+03 -0.39537045929E+03  0.52952641009E+03  0.41800000000E+01 0. -1.
         -5    1    1    2    0  502 -0.18648685445E+02 -0.66644744536E+02 -0.89430291055E+02  0.11315716858E+03  0.41800000000E+01 0. -1.
        -11    1    1    2    0    0 -0.10372436645E+03  0.16177695229E+03 -0.26171101473E+02  0.19394703669E+03  0.00000000000E+00 0. -1.
         11    1    1    2    0    0 -0.58747415569E+02  0.20695771722E+03  0.43400320791E+02  0.21946831981E+03  0.00000000000E+00 0.  1.
</event>
<event>
 6    1  0.6597032E-006  0.1619616E+03  0.7561462E-02  0.1186500E+00
          2   -1    0    0  501    0  0.00000000000E+00  0.00000000000E+00  0.14017462591E+03  0.14017462591E+03  0.00000000000E+00 0.  1.
         -2   -1    0    0    0  501 -0.00000000000E+00 -0.00000000000E+00 -0.39148920913E+03  0.39148920913E+03  0.00000000000E+00 0. -1.
          5    1    1    2  502    0  0.49612873441E+02 -0.49962337491E+02 -0.95764228935E+02  0.11893667358E+03  0.41800000000E+01 0.  1.
         -5    1    1    2    0  502 -0.71595901068E+02 -0.68056791177E+02 -0.22279583491E+03  0.24374814118E+03  0.41800000000E+01 0.  1.
        -11    1    1    2    0    0  0.39781011435E+01  0.13179095532E+03  0.62056176935E+02  0.14572456996E+03  0.00000000000E+00 0.  1.
         11    1    1    2    0    0  0.18004926484E+02 -0.13771826655E+02  0.51893036884E+01  0.23254450324E+02  0.00000000000E+00 0. -1.
</event>
<event>
 6    1  0.6597032E-006  0.1260500E+03  0.7561462E-02  0.1233437E+00
         -1   -1    0    0    0  501 -0.00000000000E+00  0.00000000000E+00  0.31951013072E+03  0.31951013072E+03  0.00000000000E+00 0.  1.
          1   -1    0    0  501    0  0.00000000000E+00 -0.00000000000E+00 -0.55610580403E+02  0.55610580403E+02  0.00000000000E+00 0. -1.
          5    1    1    2  502    0 -0.95801581291E+02 -0.19342566218E+02  0.10049226799E+03  0.14024352452E+03  0.41800000000E+01 0.  1.
         -5    1    1    2    0  502  0.24534852276E+02  0.32126268063E+02  0.91083846778E+02  0.99738636544E+02  0.41800000000E+01 0.  1.
        -11    1    1    2    0    0  0.44554172322E+02  0.36488845228E+02  0.43088168827E+02  0.71924268437E+02  0.00000000000E+00 0.  1.
         11    1    1    2    0    0  0.26712556692E+02 -0.49272547074E+02  0.29235266728E+02  0.63214281621E+02  0.00000000000E+00 0. -1.
</event>
<event>
 6    1  0.6597032E-006  0.1770464E+03  0.7561462E-02  0.1170693E+00
          3   -1    0    0  501    0  0.00000000000E+00  0.00000000000E+00  0.60054734171E+02  0.60054734171E+02  0.00000000000E+00 0. -1.
         -3   -1    0    0    0  501 -0.00000000000E+00 -0.00000000000E+00 -0.14836783166E+04  0.14836783166E+04  0.00000000000E+00 0.  1.
          5    1    1    2  502    0  0.16933425501E+00 -0.37696359010E+02 -0.21671839604E+03  0.22001222634E+03  0.41800000000E+01 0.  1.
         -5    1    1    2    0  502  0.14721663139E+03  0.47862296714E+02 -0.11148448740E+04  0.11255488001E+04  0.41800000000E+01 0.  1.
        -11    1    1    2    0    0 -0.29376851740E+02  0.24563981910E+02  0.85714178033E+01  0.39241022267E+02  0.00000000000E+00 0. -1.
         11    1    1    2    0    0 -0.11800911391E+03 -0.34729919615E+02 -0.10063173017E+03  0.15893100201E+03  0.00000000000E+00 0.  1.
</event>
<event>
 6    1  0.6597032E-006  0.1158791E+03  0.7561462E-02  0.1250054E+00
          2   -1    0    0  501    0  0.00000000000E+00  0.00000000000E+00  0.43096707757E+03  0.43096707757E+03  0.00000000000E+00 0.  1.
         -2   -1    0    0    0  501 -0.00000000000E+00 -0.00000000000E+00 -0.35910496013E+02  0.35910496013E+02  0.00000000000E+00 0. -1.
          5    1    1    2  502    0 -0.54313089414E+02 -0.16547789136E+02  0.39193507628E+02  0.69118336549E+02  0.41800000000E+01 0.  1.
         -5    1    1    2    0  502  0.62356218093E+02 -0.33996192407E+02  0.12212020585E+03  0.14133243120E+03  0.41800000000E+01 0.  1.
        -11    1    1    2    0    0 -0.48080027669E+02  0.39295277195E+02  0.11631126491E+03  0.13184884609E+03  0.00000000000E+00 0.  1.
         11    1    1    2    0    0  0.40036898991E+02  0.11248704349E+02  0.11743160317E+03  0.12457795974E+03  0.00000000000E+00 0. -1.
</event>
<event>
 6    1  0.6597032E-006  0.1885758E+03  0.7561462E-02  0.1159752E+00
         -1   -1    0    0    0  501 -0.00000000000E+00  0.00000000000E+00  0.39054852878E+03  0.39054852878E+03  0.00000000000E+00 0.  1.
          1   -1    0    0  501    0  0.00000000000E+00 -0.00000000000E+00 -0.10421625532E+03  0.10421625532E+03  0.00000000000E+00 0. -1.
          5    1    1    2  502    0 -0.85729623259E+02  0.88221038258E+02  0.11150904249E+03  0.16608509522E+03  0.41800000000E+01 0.  1.
         -5    1    1    2    0  502 -0.69221323279E+02 -0.40665959684E+02  0.99681239644E+02  0.12805910280E+03  0.41800000000E+01 0.  1.
        -11    1    1    2    0    0  0.91951932055E+01 -0.24420723109E+02 -0.12547069043E+02  0.28954312923E+02  0.00000000000E+00 0. -1.
         11    1    1    2    0    0  0.14575575333E+03 -0.23134355464E+02  0.87689060365E+02  0.17166627316E+03  0.00000000000E+00 0.  1.
</event>
<event>
 6    1  0.6597032E-006  0.1855765E+03  0.7561462E-02  0.1162513E+00
         -2   -1    0    0    0  501 -0.00000000000E+00  0.00000000000E+00  0.29307516298E+03  0.29307516298E+03  0.00000000000E+00 0. -1.
          2   -1    0    0  501    0  0.00000000000E+00 -0.00000000000E+00 -0.61705251242E+03  0.61705251242E+03  0.00000000000E+00 0.  1.
          5    1    1    2  502    0  0.23570730087E+02 -0.13798828397E+03  0.17944702377E+03  0.22762919973E+03  0.41800000000E+01 0. -1.
         -5    1    1    2    0  502  0.56211052640E+02  0.81209081540E+01  0.64764105014E+02  0.86240902629E+02  0.41800000000E+01 0. -1.
        -11    1    1    2    0    0 -0.95104067570E+02  0.12684404929E+03 -0.54944547839E+03  0.57186058636E+03  0.00000000000E+00 0.  1.
         11    1    1    2    0    0  0.15322284843E+02  0.30233265264E+01 -0.18742999836E+02  0.24396986678E+02  0.00000000000E+00 0. -1.
</event>
<event>
 6    1  0.6597032E-006  0.1096768E+03  0.7561462E-02  0.1261170E+00
          2   -1    0    0  501    0  0.00000000000E+00  0.00000000000E+00  0.13824388049E+03  0.13824388049E+03  0.00000000000E+00 0.  1.
         -2   -1    0    0    0  501 -0.00000000000E+00 -0.00000000000E+00 -0.11777441159E+03  0.11777441159E+03  0.00000000000E+00 0. -1.
          5    1    1    2  502    0 -0.70536582266E+02 -0.44733834399E+01 -0.39536343729E+02  0.81092635132E+02  0.41800000000E+01 0. -1.
         -5    1    1    2    0  502  0.45046574786E+02  0.31803646408E+02  0.67856591864E-01  0.55300477659E+02  0.41800000000E+01 0. -1.
        -11    1    1    2    0    0 -0.19104338757E+02 -0.42135041239E+02  0.55757997165E+02  0.72451995883E+02  0.00000000000E+00 0. -1.
         11    1    1    2    0    0  0.44594346238E+02  0.14804778271E+02  0.41799588736E+01  0.47173183401E+02  0.00000000000E+00 0.  1.
</event>
<event>
 6    1  0.6597032E-006  0.1177419E+03  0.7561462E-02  0.1246869E+00
          1   -1    0    0  501    0  0.00000000000E+00  0.00000000000E+00  0.66997084211E+03  0.66997084211E+03  0.00000000000E+00 0. -1.
         -1   -1    0    0    0  501 -0.00000000000E+00 -0.00000000000E+00 -0.24185690514E+02  0.24185690514E+02  0.00000000000E+00 0.  1.
          5    1    1    2  502    0  0.82192090111E+01  0.44360830644E+02  0.13302775610E+03  0.14053218487E+03  0.41800000000E+01 0.  1.
         -5    1    1    2    0  502 -0.55602723293E+02 -0.63208874036E+02  0.12580481759E+03  0.15143100450E+03  0.41800000000E+01 0.  1.
        -11    1    1    2    0    0  0.29361460833E+02 -0.36981634669E+02  0.12190930766E+03  0.13073490727E+03  0.00000000000E+00 0.  1.
         11    1    1    2    0    0  0.18022053450E+02  0.55829678062E+02  0.26504327025E+03  0.27145843599E+03  0.00000000000E+00 0. -1.
</event>
<event>
 6    1  0.6597032E-006  0.1462435E+03  0.7561462E-02  0.1205166E+00
         -1   -1    0    0    0  501 -0.00000000000E+00  0.00000000000E+00  0.19955678251E+03  0.19955678251E+03  0.00000000000E+00 0.  1.
          1   -1    0    0  501    0  0.00000000000E+00 -0.00000000000E+00 -0.17819418382E+03  0.17819418382E+03  0.00000000000E+00 0. -1.
          5    1    1    2  502    0  0.10115023219E+02  0.27461258054E+01 -0.32244210830E+02  0.34161622235E+02  0.41800000000E+01 0. -1.
         -5    1    1    2    0  502  0.12612600987E+03 -0.46481691679E+02  0.10009974783E+03  0.16764769590E+03  0.41800000000E+01 0. -1.
        -11    1    1    2    0    0 -0.56540795253E+02  0.35107641832E+02  0.22418413127E+02  0.70228151691E+02  0.00000000000E+00 0.  1.
         11    1    1    2    0    0 -0.79700237835E+02  0.86279240422E+01 -0.68911351434E+02  0.10571349649E+03  0.00000000000E+00 0. -1.
</event>
<event>
 6    1  0.6597032E-006  0.9919766E+02  0.7561462E-02  0.1281992E+00
          1   -1    0    0  501    0  0.00000000000E+00  0.00000000000E+00  0.27104388488E+02  0.27104388488E+02  0.00000000000E+00 0. -1.
         -1   -1    0    0    0  501 -0.00000000000E+00 -0.00000000000E+00 -0.80527917487E+03  0.80527917487E+03  0.00000000000E+00 0.  1.
          5    1    1    2  502    0 -0.50827925454E+02 -0.30648106716E+02 -0.20445817496E+03  0.21293990269E+03  0.41800000000E+01 0. -1.
         -5    1    1    2    0  502  0.20165408160E+02  0.32937467079E+02 -0.48244797882E+03  0.48400934401E+03  0.41800000000E+01 0.  1.
        -11    1    1    2    0    0 -0.34498361822E+02  0.32638984622E+01 -0.32650762764E+02  0.47611577485E+02  0.00000000000E+00 0.  1.
         11    1    1    2    0    0  0.65160879115E+02 -0.55532588255E+01 -0.58617869843E+02  0.87822739172E+02  0.00000000000E+00 0. -1.
</event>
<event>
 6    1  0.6597032E-006  0.1329593E+03  0.7561462E-02  0.1223130E+00
          2   -1    0    0  501    0  0.00000000000E+00  0.00000000000E+00  0.16149244493E+03  0.16149244493E+03  0.00000000000E+00 0. -1.
         -2   -1    0    0    0  501 -0.00000000000E+00 -0.00000000000E+00 -0.13461755111E+03  0.13461755111E+03  0.00000000000E+00 0.  1.
          5    1    1    2  502    0 -0.34325914131E+02 -0.37019332132E+01 -0.34649943491E+02  0.49092399354E+02  0.41800000000E+01 0. -1.
         -5    1    1    2    0  502  0.49818482314E+02  0.95135464791E+02  0.12506232175E+02  0.10819665468E+03  0.41800000000E+01 0. -1.
        -11    1    1    2    0    0 -0.49005861289E+02 -0.45995251228E+02  0.53099449746E+01  0.67419085516E+02  0.00000000000E+00 0.  1.
         11    1    1    2    0    0  0.33513293106E+02 -0.45438280349E+02  0.43708660163E+02  0.71401856483E+02  0.00000000000E+00 0. -1.
</event>
<event>
 6    1  0.6597032E-006  0.7015710E+02  0.7561462E-02  0.1359560E+00
          1   -1    0    0  501    0  0.00000000000E+00  0.00000000000E+00  0.15224800461E+03  0.15224800461E+03  0.00000000000E+00 0. -1.
         -1   -1    0    0    0  501 -0.00000000000E+00 -0.00000000000E+00 -0.14315277751E+03  0.14315277751E+03  0.00000000000E+00 0.  1.
          5    1    1    2  502    0 -0.25126278654E+01  0.44148823557E+02 -0.11236849658E+03  0.12082873559E+03  0.41800000000E+01 0. -1.
         -5    1    1    2    0  502  0.15885808444E+02 -0.14827711460E+02  0.18109221884E+02  0.28594339550E+02  0.41800000000E+01 0.  1.
        -11    1    1    2    0    0 -0.28384438312E+02  0.11231696239E+02 -0.34801553420E+01  0.30723587354E+02  0.00000000000E+00 0.  1.
         11    1    1    2    0    0  0.15011257733E+02 -0.40552808337E+02  0.10683465714E+03  0.11525411962E+03  0.00000000000E+00 0. -1.
</event>
<event>
 6    1  0.6597032E-006  0.1305672E+03  0.7561462E-02  0.1226617E+00
          2   -1    0    0  501    0  0.00000000000E+00  0.00000000000E+00  0.40835322368E+03  0.40835322368E+03  0.00000000000E+00 0. -1.
         -2   -1    0    0    0  501 -0.00000000000E+00 -0.00000000000E+00 -0.53923106605E+02  0.53923106605E+02  0.00000000000E+00 0.  1.
          5    1    1    2  502    0 -0.66098815313E+02  0.37529334518E+02  0.85756294140E+02  0.11466960678E+03  0.41800000000E+01 0. -1.
         -5    1    1    2    0  502 -0.11490589437E+02 -0.61683786582E+02  0.12948739526E+02  0.64203313217E+02  0.41800000000E+01 0. -1.
        -11    1    1    2    0    0  0.40368137659E+02 -0.34202241056E+02  0.10765103152E+03  0.11995050820E+03  0.00000000000E+00 0.  1.
         11    1    1    2    0    0  0.37221267092E+02  0.58356693120E+02  0.14807405189E+03  0.16345290208E+03  0.00000000000E+00 0. -1.
</event>
<event>
 6    1  0.6597032E-006  0.1111822E+03  0.7561462E-02  0.1258396E+00
         -3   -1    0    0    0  501 -0.00000000000E+00  0.00000000000E+00  0.12812654678E+03  0.12812654678E+03  0.00000000000E+00 0.  1.
          3   -1    0    0  501    0  0.00000000000E+00 -0.00000000000E+00 -0.12238033414E+03  0.12238033414E+03  0.00000000000E+00 0. -1.
          5    1    1    2  502    0  0.64843359609E+02 -0.12249476472E+02  0.23895519384E+02  0.70307746414E+02  0.41800000000E+01 0.  1.
         -5    1    1    2    0  502 -0.46768687644E+02  0.43382680389E+02  0.28945560249E+02  0.70176099634E+02  0.41800000000E+01 0.  1.
        -11    1    1    2    0    0  0.19348114519E+02  0.20731282121E+02 -0.34808723488E+02  0.44897470137E+02  0.00000000000E+00 0. -1.
         11    1    1    2    0    0 -0.37422786484E+02 -0.51864486038E+02 -0.12286143507E+02  0.65125564739E+02  0.00000000000E+00 0.  1.
</event>
<event>
 6    1  0.6597032E-006  0.1498768E+03  0.7561462E-02  0.1200624E+00
          2   -1    0    0  501    0  0.00000000000E+00  0.00000000000E+00  0.16820787723E+03  0.16820787723E+03  0.00000000000E+00 0.  1.
         -2   -1    0    0    0  501 -0.00000000000E+00 -0.00000000000E+00 -0.18892289400E+03  0.18892289400E+03  0.00000000000E+00 0. -1.
          5    1    1    2  502    0  0.32958380314E+02 -0.82218909290E+02  0.34330444219E+02  0.95090775988E+02  0.41800000000E+01 0.  1.
         -5    1    1    2    0  502  0.11370981587E+02 -0.43707526990E+02 -0.82416030822E+02  0.94071896304E+02  0.41800000000E+01 0.  1.
        -11    1    1    2    0    0  0.17055397243E+02 -0.76669252520E+01  0.33688685201E+01  0.19000462969E+02  0.00000000000E+00 0.  1.
         11    1    1    2    0    0 -0.61384759144E+02  0.13359336153E+03  0.24001701313E+02  0.14896763597E+03  0.00000000000E+00 0. -1.
</event>
<event>
 6    1  0.6597032E-006  0.1414966E+03  0.7561462E-02  0.1211329E+00
         -2   -1    0    0    0  501 -0.00000000000E+00  0.00000000000E+00  0.34939496653E+02  0.34939496653E+02  0.00000000000E+00 0. -1.
          2   -1    0    0  501    0  0.00000000000E+00 -0.00000000000E+00 -0.85027327374E+03  0.85027327374E+03  0.00000000000E+00 0.  1.
          5    1    1    2  502    0 -0.32189124337E+02  0.19350607247E+02 -0.32293374630E+03  0.32513729811E+03  0.41800000000E+01 0. -1.
         -5    1    1    2    0  502 -0.98464526841E+02 -0.33702299332E+02 -0.16172068500E+03  0.19235945618E+03  0.41800000000E+01 0. -1.
        -11    1    1    2    0    0  0.42549504118E+02 -0.19316632570E+02 -0.20682151777E+03  0.21203474434E+03  0.00000000000E+00 0.  1.
         11    1    1    2    0    0  0.88104147061E+02  0.33668324655E+02 -0.12385782802E+03  0.15568127175E+03  0.00000000000E+00 0. -1.
</event>
<event>
 6    1  0.6597032E-006  0.6758683E+02  0.7561462E-02  0.1368497E+00
         -2   -1    0    0    0  501 -0.00000000000E+00  0.00000000000E+00  0.15822254276E+03  0.15822254276E+03  0.00000000000E+00 0.  1.
          2   -1    0    0  501    0  0.00000000000E+00 -0.00000000000E+00 -0.11875313794E+03  0.11875313794E+03  0.00000000000E+00 0. -1.
          5    1    1    2  502    0 -0.19051487616E+02  0.17691245923E+02 -0.46680090100E+02  0.53595173051E+02  0.41800000000E+01 0.  1.
         -5    1    1    2    0  502 -0.10493557259E+02  0.20906535116E+02  0.81722296370E+02  0.85107015448E+02  0.41800000000E+01 0.  1.
        -11    1    1    2    0    0 -0.21683354297E+02 -0.13225394110E+01  0.53755996486E+02  0.57979514677E+02  0.00000000000E+00 0.  1.
         11    1    1    2    0    0  0.51228399171E+02 -0.37275241627E+02 -0.49328797935E+02  0.80293977518E+02  0.00000000000E+00 0. -1.
</event>
<event>
 6    1  0.6597032E-006  0.2880457E+03  0.7561462E-02  0.1091374E+00
         -2   -1    0    0    0  501 -0.00000000000E+00  0.00000000000E+00  0.17657052080E+03  0.17657052080E+03  0.00000000000E+00 0.  1.
          2   -1    0    0  501    0  0.00000000000E+00 -0.00000000000E+00 -0.66584614946E+03  0.66584614946E+03  0.00000000000E+00 0. -1.
          5    1    1    2  502    0  0.20690885197E+02  0.15913979797E+02 -0.50160875558E+02  0.56700558374E+02  0.41800000000E+01 0. -1.
         -5    1    1    2    0  502  0.24367805513E+03  0.95086859479E+02 -0.98652253836E+01  0.26179247596E+03  0.41800000000E+01 0. -1.
        -11    1    1    2    0    0 -0.75177142744E+02 -0.18326290671E+02 -0.56682144206E+02  0.95918304785E+02  0.00000000000E+00 0.  1.
         11    1    1    2    0    0 -0.18919179758E+03 -0.92674548605E+02 -0.37256738351E+03  0.42800533115E+03  0.00000000000E+00 0. -1.
</event>
<event>
 6    1  0.6597032E-006  0.1147949E+03  0.7561462E-02  0.1251940E+00
         -1   -1    0    0    0  501 -0.00000000000E+00  0.00000000000E+00  0.65033907573E+02  0.65033907573E+02  0.00000000000E+00 0.  1.
          1   -1    0    0  501    0  0.00000000000E+00 -0.00000000000E+00 -0.35361638343E+03  0.35361638343E+03  0.00000000000E+00 0. -1.
          5    1    1    2  502    0  0.94855399330E+02  0.49440432964E+02 -0.15423969679E+03  0.18774786193E+03  0.41800000000E+01 0.  1.
         -5    1    1    2    0  502 -0.91607596742E+01  0.12921235941E+02  0.18781866874E+02  0.24922054075E+02  0.41800000000E+01 0.  1.
        -11    1    1    2    0    0 -0.94865636698E+01 -0.46471482403E+01  0.11498213606E+02  0.15614089572E+02  0.00000000000E+00 0.  1.
         11    1    1    2    0    0 -0.76208075986E+02 -0.57714520664E+02 -0.16462285954E+03  0.19036628542E+03  0.00000000000E+00 0. -1.
</event>
<event>
 6    1  0.6597032E-006  0.7917902E+02  0.7561462E-02  0.1331398E+00
          1   -1    0    0  501    0  0.00000000000E+00  0.00000000000E+00  0.79713914146E+02  0.79713914146E+02  0.00000000000E+00 0. -1.
         -1   -1    0    0    0  501 -0.00000000000E+00 -0.00000000000E+00 -0.21153338129E+03  0.21153338129E+03  0.00000000000E+00 0.  1.
          5    1    1    2  502    0 -0.13246261124E+02 -0.16020814288E+02  0.14843107087E+02  0.25882815771E+02  0.41800000000E+01 0.  1.
         -5    1    1    2    0  502  0.43817210972E+02  0.54722354981E+02 -0.14570144598E+03  0.16174321585E+03  0.41800000000E+01 0.  1.
        -11    1    1    2    0    0 -0.31065603919E+02 -0.29875642089E+01  0.39048760161E+02  0.49988028136E+02  0.00000000000E+00 0. -1.
         11    1    1    2    0    0  0.49465407158E+00 -0.35713976484E+02 -0.40009888407E+02  0.53633235678E+02  0.00000000000E+00 0.  1.
</event>
<event>
 6    1  0.8519513E-006  0.1775922E+03  0.7561462E-02  0.1170154E+00
         -2   -1    0    0    0  501 -0.00000000000E+00  0.00000000000E+00  0.13054570176E+03  0.13054570176E+03  0.00000000000E+00 0.  1.
          2   -1    0    0  501    0  0.00000000000E+00 -0.00000000000E+00 -0.28730701669E+03  0.28730701669E+03  0.00000000000E+00 0. -1.
          5    1    1    2  502    0  0.11695109665E+02 -0.16494821565E+02  0.10247589959E+02  0.23050818391E+02  0.41800000000E+01 0. -1.
         -5    1    1    2    0  502 -0.10984751225E+03  0.13056315074E+03 -0.34546282589E+02  0.17413825059E+03  0.41800000000E+01 0. -1.
        -11    1    1    2    0    0  0.96424631862E+02 -0.68549099244E+02 -0.54249824081E+02  0.13015272586E+03  0.00000000000E+00 0.  1.
         11    1    1    2    0    0  0.17277707231E+01 -0.45519229932E+02 -0.78212798220E+02  0.90510923598E+02  0.00000000000E+00 0. -1.
</event>
<event>
 6    1  0.6597032E-006  0.1321043E+03  0.7561462E-02  0.1224366E+00
         -1   -1    0    0    0  501 -0.00000000000E+00  0.00000000000E+00  0.21700701337E+03  0.21700701337E+03  0.00000000000E+00 0.  1.
          1   -1    0    0  501    0  0.00000000000E+00 -0.00000000000E+00 -0.10085830799E+03  0.10085830799E+03  0.00000000000E+00 0. -1.
          5    1    1    2  502    0 -0.29029476136E+02  0.11176036031E+03  0.24292081018E+02  0.11807059846E+03  0.41800000000E+01 0. -1.
         -5    1    1    2    0  502  0.48853794961E+01 -0.17427154912E+02  0.57253556934E+02  0.60191484803E+02  0.41800000000E+01 0. -1.
        -11    1    1    2    0    0 -0.31725917432E+02 -0.21630584700E+02 -0.68047099968E+01  0.38996411495E+02  0.00000000000E+00 0.  1.
         11    1    1    2    0    0  0.55870014071E+02 -0.72702620694E+02  0.41407777418E+02  0.10060682660E+03  0.00000000000E+00 0. -1.
</event>
<event>
 6    1  0.6597032E-006  0.9394646E+02  0.7561462E-02  0.1293567E+00
          1   -1    0    0  501    0  0.00000000000E+00  0.00000000000E+00  0.20757982480E+03  0.20757982480E+03  0.00000000000E+00 0. -1.
         -1   -1    0    0    0  501 -0.00000000000E+00 -0.00000000000E+00 -0.71032817450E+02  0.71032817450E+02  0.00000000000E+00 0.  1.
          5    1    1    2  502    0  0.44258624488E+02 -0.55781372455E+02 -0.61735759965E+01  0.71595899289E+02  0.41800000000E+01 0. -1.
         -5    1    1    2    0  502 -0.28017424686E+02  0.49559630854E+01  0.76033426285E+02  0.81290171415E+02  0.41800000000E+01 0. -1.
        -11    1    1    2    0    0 -0.41891483326E+02  0.45042173519E+02  0.87877507506E+01  0.62136288381E+02  0.00000000000E+00 0.  1.
         11    1    1    2    0    0  0.25650283524E+02  0.57832358499E+01  0.57899406309E+02  0.63590283163E+02  0.00000000000E+00 0. -1.
</event>
<event>
 6    1  0.6597032E-006  0.5683015E+02  0.7561462E-02  0.1411637E+00
          2   -1    0    0  501    0  0.00000000000E+00  0.00000000000E+00  0.43521758816E+03  0.43521758816E+03  0.00000000000E+00 0. -1.
         -2   -1    0    0    0  501 -0.00000000000E+00 -0.00000000000E+00 -0.25208664318E+02  0.25208664318E+02  0.00000000000E+00 0.  1.
          5    1    1    2  502    0  0.19017266440E+01 -0.10477849499E+02  0.13439362816E+03  0.13487965593E+03  0.41800000000E+01 0. -1.
         -5    1    1    2    0  502  0.39909409734E+02  0.28649707986E+02  0.49603974867E+01  0.49554461921E+02  0.41800000000E+01 0.  1.
        -11    1    1    2    0    0 -0.99925803915E+00 -0.11521232782E+02  0.39108609062E+02  0.40782601979E+02  0.00000000000E+00 0. -1.
         11    1    1    2    0    0 -0.40811878339E+02 -0.66506257052E+01  0.23154628913E+03  0.23520953265E+03  0.00000000000E+00 0.  1.
</event>
<event>
 6    1  0.6597032E-006  0.1326191E+03  0.7561462E-02  0.1223620E+00
         -2   -1    0    0    0  501 -0.00000000000E+00  0.00000000000E+00  0.65671312389E+02  0.65671312389E+02  0.00000000000E+00 0.  1.
          2   -1    0    0  501    0  0.00000000000E+00 -0.00000000000E+00 -0.44928907736E+03  0.44928907736E+03  0.00000000000E+00 0. -1.
          5    1    1    2  502    0  0.11091659547E+03 -0.37278137399E+02 -0.49310272963E+02  0.12704773157E+03  0.41800000000E+01 0. -1.
         -5    1    1    2    0  502 -0.32746839578E+02 -0.29203045796E+02 -0.28453327590E+02  0.52461773103E+02  0.41800000000E+01 0. -1.
        -11    1    1    2    0    0 -0.55348635503E+02  0.36115621769E+02 -0.28408241908E+03  0.29166869976E+03  0.00000000000E+00 0. -1.
         11    1    1    2    0    0 -0.22821120385E+02  0.30365561426E+02 -0.21771745340E+02  0.43782185321E+02  0.00000000000E+00 0.  1.
</event>
<event>
 6    1  0.6597032E-006  0.1012741E+03  0.7561462E-02  0.1277639E+00
          1   -1    0    0  501    0  0.00000000000E+00  0.00000000000E+00  0.88641182194E+02  0.88641182194E+02  0.00000000000E+00 0. -1.
         -1   -1    0    0    0  501 -0.00000000000E+00 -0.00000000000E+00 -0.22716233369E+03  0.22716233369E+03  0.00000000000E+00 0.  1.
          5    1    1    2  502    0  0.36948015734E+01 -0.54051072773E+02 -0.56734291079E+02  0.78558400002E+02  0.41800000000E+01 0. -1.
         -5    1    1    2    0  502  0.28070604968E+01  0.63722982010E+02 -0.12204111899E+03  0.13776793948E+03  0.41800000000E+01 0.  1.
        -11    1    1    2    0    0 -0.39445307444E+01 -0.46853342288E+02  0.35251958671E+01  0.47151055261E+02  0.00000000000E+00 0. -1.
         11    1    1    2    0    0 -0.25573313258E+01  0.37181433051E+02  0.36729062700E+02  0.52326121145E+02  0.00000000000E+00 0.  1.
</event>
<event>
 6    1  0.6597032E-006  0.1014533E+03  0.7561462E-02  0.1277269E+00
          1   -1    0    0  501    0  0.00000000000E+00  0.00000000000E+00  0.41227616131E+03  0.41227616131E+03  0.00000000000E+00 0. -1.
         -1   -1    0    0    0  501 -0.00000000000E+00 -0.00000000000E+00 -0.46531744147E+02  0.46531744147E+02  0.00000000000E+00 0.  1.
          5    1    1    2  502    0  0.32090300572E+02 -0.10846237804E+02 -0.12503116740E+02  0.36348708279E+02  0.41800000000E+01 0.  1.
         -5    1    1    2    0  502  0.20476761946E+02 -0.55674987335E+02  0.17842564646E+03  0.18807494705E+03  0.41800000000E+01 0.  1.
        -11    1    1    2    0    0 -0.41771817528E+02 -0.14604661632E+00  0.29435393709E+02  0.51101354894E+02  0.00000000000E+00 0.  1.
         11    1    1    2    0    0 -0.10795244991E+02  0.66667271755E+02  0.17038649374E+03  0.18328289524E+03  0.00000000000E+00 0. -1.
</event>
<event>
 6    1  0.6597032E-006  0.7910893E+02  0.7561462E-02  0.1331599E+00
         -2   -1    0    0    0  501 -0.00000000000E+00  0.00000000000E+00  0.91898766136E+02  0.91898766136E+02  0.00000000000E+00 0.  1.
          2   -1    0    0  501    0  0.00000000000E+00 -0.00000000000E+00 -0.14743844703E+03  0.14743844703E+03  0.00000000000E+00 0. -1.
          5    1    1    2  502    0 -0.57189735867E+02 -0.25623036385E+02  0.40779601714E+02  0.74884272034E+02  0.41800000000E+01 0. -1.
         -5    1    1    2    0  502  0.21280865543E+02 -0.40540641319E+01 -0.55115310097E+02  0.59367335138E+02  0.41800000000E+01 0. -1.
        -11    1    1    2    0    0 -0.13322802928E+02 -0.37501683797E+01  0.16948605608E+02  0.21881866300E+02  0.00000000000E+00 0.  1.
         11    1    1    2    0    0  0.49231673252E+02  0.33427268897E+02 -0.58152578115E+02  0.83203739691E+02  0.00000000000E+00 0. -1.
</event>
<event>
 6    1  0.6597032E-006  0.1180705E+03  0.7561462E-02  0.1246314E+00
          1   -1    0    0  501    0  0.00000000000E+00  0.00000000000E+00  0.54163797682E+02  0.54163797682E+02  0.00000000000E+00 0. -1.
         -1   -1    0    0    0  501 -0.00000000000E+00 -0.00000000000E+00 -0.40910789858E+03  0.40910789858E+03  0.00000000000E+00 0.  1.
          5    1    1    2  502    0  0.91699097013E+01 -0.49944800476E+02 -0.77301193305E+02  0.92582488760E+02  0.41800000000E+01 0.  1.
         -5    1    1    2    0  502  0.66498459045E+02  0.65917623839E+02 -0.21878413928E+03  0.23801502093E+03  0.41800000000E+01 0.  1.
        -11    1    1    2    0    0 -0.75747125246E+02 -0.27015301806E+02 -0.77062704968E+02  0.11138273660E+03  0.00000000000E+00 0.  1.
         11    1    1    2    0    0  0.78756500177E-01  0.11042478442E+02  0.18203936650E+02  0.21291449981E+02  0.00000000000E+00 0. -1.
</event>
<event>
 6    1  0.6597032E-006  0.9552648E+02  0.7561462E-02  0.1289995E+00
          2   -1    0    0  501    0  0.00000000000E+00  0.00000000000E+00  0.10125374360E+03  0.10125374360E+03  0.00000000000E+00 0. -1.
         -2   -1    0    0    0  501 -0.00000000000E+00 -0.00000000000E+00 -0.16921772061E+03  0.16921772061E+03  0.00000000000E+00 0.  1.
          5    1    1    2  502    0 -0.12475898507E+02 -0.32553248039E+02 -0.74919038074E+02  0.82738725319E+02  0.41800000000E+01 0. -1.
         -5    1    1    2    0  502 -0.60157122814E+02  0.36755787980E+02  0.17806484292E+02  0.72831385118E+02  0.41800000000E+01 0. -1.
        -11    1    1    2    0    0  0.47478055202E+02 -0.24102383807E+02  0.31430615150E+02  0.61830204590E+02  0.00000000000E+00 0. -1.
         11    1    1    2    0    0  0.25154966119E+02  0.19899843866E+02 -0.42282038379E+02  0.53071149185E+02  0.00000000000E+00 0.  1.
</event>
<event>
 6    1  0.6597032E-006  0.1574758E+03  0.7561462E-02  0.1191576E+00
         -1   -1    0    0    0  501 -0.00000000000E+00  0.00000000000E+00  0.23740665863E+03  0.23740665863E+03  0.00000000000E+00 0.  1.
          1   -1    0    0  501    0  0.00000000000E+00 -0.00000000000E+00 -0.36327444619E+03  0.36327444619E+03  0.00000000000E+00 0. -1.
          5    1    1    2  502    0 -0.37477459845E+02  0.35455100312E+02  0.50025841147E+02  0.71983896234E+02  0.41800000000E+01 0.  1.
         -5    1    1    2    0  502 -0.73356513918E+02 -0.10754739275E+03  0.12934942414E+03  0.18356569872E+03  0.41800000000E+01 0.  1.
        -11    1    1    2    0    0  0.62564299919E+02  0.48800784675E+02 -0.76588313662E+02  0.11027954479E+03  0.00000000000E+00 0.  1.
         11    1    1    2    0    0  0.48269673845E+02  0.23291507762E+02 -0.22865473919E+03  0.23485196508E+03  0.00000000000E+00 0. -1.
</event>
<event>
 6    1  0.6597032E-006  0.1260426E+03  0.7561462E-02  0.1233449E+00
          1   -1    0    0  501    0  0.00000000000E+00  0.00000000000E+00  0.39279735916E+02  0.39279735916E+02  0.00000000000E+00 0. -1.
         -1   -1    0    0    0  501 -0.00000000000E+00 -0.00000000000E+00 -0.46771078532E+03  0.46771078532E+03  0.00000000000E+00 0.  1.
          5    1    1    2  502    0 -0.63902261411E+02  0.10084356944E+02 -0.10040117241E+03  0.11951176130E+03  0.41800000000E+01 0.  1.
         -5    1    1    2    0  502  0.44876739753E+02  0.58058064043E+02 -0.21141101483E+03  0.22382303314E+03  0.41800000000E+01 0.  1.
        -11    1    1    2    0    0  0.42166994687E+02 -0.39675868300E+00 -0.32782183397E+02  0.53412399371E+02  0.00000000000E+00 0. -1.
         11    1    1    2    0    0 -0.23141473029E+02 -0.67745662304E+02 -0.83836678767E+02  0.11024332742E+03  0.00000000000E+00 0.  1.
</event>
<event>
 6    1  0.6597032E-006  0.5289866E+02  0.7561462E-02  0.1430306E+00
          3   -1    0    0  501    0  0.00000000000E+00  0.00000000000E+00  0.28431731078E+03  0.28431731078E+03  0.00000000000E+00 0.  1.
         -3   -1    0    0    0  501 -0.00000000000E+00 -0.00000000000E+00 -0.49202211223E+02  0.49202211223E+02  0.00000000000E+00 0. -1.
          5    1    1    2  502    0 -0.17350387053E+01  0.70276170191E+01  0.11662380551E+03  0.11692297538E+03  0.41800000000E+01 0. -1.
         -5    1    1    2    0  502  0.30415360990E+02  0.16931731540E+02 -0.24591942781E+02  0.42825386943E+02  0.41800000000E+01 0. -1.
        -11    1    1    2    0    0 -0.90910579588E+01 -0.37485696234E+02  0.14485231516E+03  0.14990002656E+03  0.00000000000E+00 0.  1.
         11    1    1    2    0    0 -0.19589264326E+02  0.13526347675E+02 -0.17690783268E+01  0.23871133119E+02  0.00000000000E+00 0. -1.
</event>
<event>
 6    1  0.6597032E-006  0.1325269E+03  0.7561462E-02  0.1223754E+00
          2   -1    0    0  501    0  0.00000000000E+00  0.00000000000E+00  0.56914434753E+03  0.56914434753E+03  0.00000000000E+00 0.  1.
         -2   -1    0    0    0  501 -0.00000000000E+00 -0.00000000000E+00 -0.36747797808E+02  0.36747797808E+02  0.00000000000E+00 0. -1.
          5    1    1    2  502    0  0.44485889068E+02  0.17666838610E+02  0.41114717678E+02  0.63237678027E+02  0.41800000000E+01 0. -1.
         -5    1    1    2    0  502  0.12012702461E+02 -0.95336283214E+02  0.24979043278E+03  0.26766778780E+03  0.41800000000E+01 0. -1.
        -11    1    1    2    0    0 -0.72424073596E+02  0.47206488370E+02  0.21454984224E+03  0.23131219982E+03  0.00000000000E+00 0.  1.
         11    1    1    2    0    0  0.15925482067E+02  0.30462956233E+02  0.26941557035E+02  0.43674479700E+02  0.00000000000E+00 0. -1.
</event>
<event>
 6    1  0.6597032E-006  0.2080073E+03  0.7561462E-02  0.1143154E+00
         -1   -1    0    0    0  501 -0.00000000000E+00  0.00000000000E+00  0.27333841633E+03  0.27333841633E+03  0.00000000000E+00 0.  1.
          1   -1    0    0  501    0  0.00000000000E+00 -0.00000000000E+00 -0.20010174429E+03  0.20010174429E+03  0.00000000000E+00 0. -1.
          5    1    1    2  502    0  0.34289763777E+02  0.72751279278E+02 -0.31679611151E+02  0.86542513825E+02  0.41800000000E+01 0.  1.
         -5    1    1    2    0  502  0.27069116662E+01  0.12869538843E+03  0.99811961907E+02  0.16294088042E+03  0.41800000000E+01 0.  1.
        -11    1    1    2    0    0  0.91718573001E+00 -0.66747162159E+02  0.42472312463E+02  0.79119670196E+02  0.00000000000E+00 0.  1.
         11    1    1    2    0    0 -0.37913861173E+02 -0.13469950555E+03 -0.37367991178E+02  0.14483709618E+03  0.00000000000E+00 0. -1.
</event>
<event>
 6    1  0.6597032E-006  0.9107573E+02  0.7561462E-02  0.1300267E+00
         -4   -1    0    0    0  501 -0.00000000000E+00  0.00000000000E+00  0.53828933762E+02  0.53828933762E+02  0.00000000000E+00 0.  1.
          4   -1    0    0  501    0  0.00000000000E+00 -0.00000000000E+00 -0.22173132395E+03  0.22173132395E+03  0.00000000000E+00 0. -1.
          5    1    1    2  502    0 -0.62005525206E+02 -0.36303640659E+01 -0.20265256711E+01  0.62285182071E+02  0.41800000000E+01 0.  1.
         -5    1    1    2    0  502  0.35266484935E+02  0.13357471401E+01 -0.85880678485E+02  0.92943383396E+02  0.41800000000E+01 0.  1.
        -11    1    1    2    0    0  0.48666055728E+02 -0.20431717679E+02 -0.28658602698E+02  0.60059600199E+02  0.00000000000E+00 0.  1.
         11    1    1    2    0    0 -0.21927015457E+02  0.22726334604E+02 -0.51336583335E+02  0.60272092049E+02  0.00000000000E+00 0. -1.
</event>
<event>
 6    1  0.6597032E-006  0.7551876E+02  0.7561462E-02  0.1342272E+00
          1   -1    0    0  501    0  0.00000000000E+00  0.00000000000E+00  0.26206917282E+03  0.26206917282E+03  0.00000000000E+00 0. -1.
         -1   -1    0    0    0  501 -0.00000000000E+00 -0.00000000000E+00 -0.63570929742E+02  0.63570929742E+02  0.00000000000E+00 0.  1.
          5    1    1    2  502    0 -0.42953498364E+01 -0.12301509077E+02  0.10380416492E+03  0.10470221684E+03  0.41800000000E+01 0. -1.
         -5    1    1    2    0  502 -0.50749750414E+02  0.28702799789E+02 -0.21268544030E+02  0.62202984237E+02  0.41800000000E+01 0.  1.
        -11    1    1    2    0    0  0.65043736726E+02 -0.20345085077E+02  0.12649541390E+03  0.14368611593E+03  0.00000000000E+00 0. -1.
         11    1    1    2    0    0 -0.99986364760E+01  0.39437943649E+01 -0.10532791713E+02  0.15048785554E+02  0.00000000000E+00 0.  1.
</event>
<event>
 6    1  0.6597032E-006  0.1233588E+03  0.7561462E-02  0.1237657E+00
         -2   -1    0    0    0  501 -0.00000000000E+00  0.00000000000E+00  0.83489947874E+03  0.83489947874E+03  0.00000000000E+00 0.  1.
          2   -1    0    0  501    0  0.00000000000E+00 -0.00000000000E+00 -0.20521049523E+02  0.20521049523E+02  0.00000000000E+00 0. -1.
          5    1    1    2  502    0  0.28075231718E+02 -0.20434126479E+02  0.52950379119E+02  0.63458547177E+02  0.41800000000E+01 0.  1.
         -5    1    1    2    0  502 -0.25623148903E+02  0.91769192175E+02  0.43329206661E+03  0.44366385674E+03  0.41800000000E+01 0.  1.
        -11    1    1    2    0    0  0.26151908869E+02  0.11624760727E+02  0.68687635995E+02  0.74411348180E+02  0.00000000000E+00 0.  1.
         11    1    1    2    0    0 -0.28603991683E+02 -0.82959826423E+02  0.25944834749E+03  0.27388677616E+03  0.00000000000E+00 0. -1.
</event>
<event>
 6    1  0.6597032E-006  0.9014714E+02  0.7561462E-02  0.1302496E+00
          2   -1    0    0  501    0  0.00000000000E+00  0.00000000000E+00  0.50718952339E+02  0.50718952339E+02  0.00000000000E+00 0. -1.
         -2   -1    0    0    0  501 -0.00000000000E+00 -0.00000000000E+00 -0.40507499392E+03  0.40507499392E+03  0.00000000000E+00 0.  1.
          5    1    1    2  502    0 -0.32313540747E+02 -0.70572840080E+02 -0.22016058060E+03  0.23347985850E+03  0.41800000000E+01 0. -1.
         -5    1    1    2    0  502  0.15892260370E+02  0.47262416095E+02 -0.11609484789E+03  0.12641908884E+03  0.41800000000E+01 0. -1.
        -11    1    1    2    0    0  0.77767378386E+00 -0.12981762102E+02 -0.45815376066E+02  0.47625409267E+02  0.00000000000E+00 0.  1.
         11    1    1    2    0    0  0.15643606594E+02  0.36292186087E+02  0.27714762984E+02  0.48269589655E+02  0.00000000000E+00 0. -1.
</event>
<event>
 6    1  0.6597032E-006  0.1924322E+03  0.7561462E-02  0.1156286E+00
          1   -1    0    0  501    0  0.00000000000E+00  0.00000000000E+00  0.59181044543E+03  0.59181044543E+03  0.00000000000E+00 0. -1.
         -1   -1    0    0    0  501 -0.00000000000E+00 -0.00000000000E+00 -0.68727043026E+02  0.68727043026E+02  0.00000000000E+00 0.  1.
          5    1    1    2  502    0 -0.29127149656E+02 -0.18485238644E+03  0.22917507995E+03  0.29590114108E+03  0.41800000000E+01 0. -1.
         -5    1    1    2    0  502  0.35916334966E+01  0.18551330283E+02  0.88139604722E+01  0.21265229499E+02  0.41800000000E+01 0. -1.
        -11    1    1    2    0    0  0.18980856175E+02  0.91975934738E+01  0.42665644476E+01  0.21519112413E+02  0.00000000000E+00 0.  1.
         11    1    1    2    0    0  0.65546599841E+01  0.15710346269E+03  0.28082779753E+03  0.32185200546E+03  0.00000000000E+00 0. -1.
</event>
<event>
 6    1  0.6597032E-006  0.1081219E+03  0.7561462E-02  0.1264088E+00
          2   -1    0    0  501    0  0.00000000000E+00  0.00000000000E+00  0.57599638070E+03  0.57599638070E+03  0.00000000000E+00 0. -1.
         -2   -1    0    0    0  501 -0.00000000000E+00 -0.00000000000E+00 -0.26624103364E+02  0.26624103364E+02  0.00000000000E+00 0.  1.
          5    1    1    2  502    0  0.54273376876E+02  0.26807855498E+02  0.61111417688E+02  0.86118164900E+02  0.41800000000E+01 0. -1.
         -5    1    1    2    0  502 -0.14136635356E+02 -0.61412900115E+02  0.17827121855E+03  0.18912823301E+03  0.41800000000E+01 0. -1.
        -11    1    1    2    0    0 -0.52438233389E+02 -0.33156549262E+01  0.93568789169E+02  0.10731206920E+03  0.00000000000E+00 0.  1.
         11    1    1    2    0    0  0.12301491868E+02  0.37920699544E+02  0.21642085193E+03  0.22006201696E+03  0.00000000000E+00 0. -1.
</event>
<event>
 6    1  0.6597032E-006  0.1535861E+03  0.7561462E-02  0.1196134E+00
         -2   -1    0    0    0  501 -0.00000000000E+00  0.00000000000E+00  0.39232281118E+02  0.39232281118E+02  0.00000000000E+00 0.  1.
          2   -1    0    0  501    0  0.00000000000E+00 -0.00000000000E+00 -0.82818970610E+03  0.82818970610E+03  0.00000000000E+00 0. -1.
          5    1    1    2  502    0 -0.12174227930E+03 -0.30550646800E+02 -0.15968231025E+03  0.20315126679E+03  0.41800000000E+01 0.  1.
         -5    1    1    2    0  502 -0.18703975751E+02  0.35164132597E+02 -0.18749011377E+03  0.19171950890E+03  0.41800000000E+01 0.  1.
        -11    1    1    2    0    0  0.76849726857E+02 -0.10951954642E+02 -0.10979139734E+03  0.13446180409E+03  0.00000000000E+00 0.  1.
         11    1    1    2    0    0  0.63596528194E+02  0.63384688458E+01 -0.33199360361E+03  0.33808940744E+03  0.00000000000E+00 0. -1.
</event>
<event>
 6    1  0.6597032E-006  0.8103457E+02  0.7561462E-02  0.1326141E+00
         -1   -1    0    0    0  501 -0.00000000000E+00  0.00000000000E+00  0.62513381835E+03  0.62513381835E+03  0.00000000000E+00 0.  1.
          1   -1    0    0  501    0  0.00000000000E+00 -0.00000000000E+00 -0.53925035733E+03  0.53925035733E+03  0.00000000000E+00 0. -1.
          5    1    1    2  502    0  0.37320221454E+02 -0.14204380499E+02  0.55960427429E+02  0.68873835327E+02  0.41800000000E+01 0. -1.
         -5    1    1    2    0  502 -0.51323328515E+01  0.22854535990E+02  0.55791552571E+03  0.55842266867E+03  0.41800000000E+01 0.  1.
        -11    1    1    2    0    0  0.25557187051E+02 -0.27345462429E+02 -0.22206094617E+03  0.22519326797E+03  0.00000000000E+00 0. -1.
         11    1    1    2    0    0 -0.57745075653E+02  0.18695306939E+02 -0.30593154594E+03  0.31189440371E+03  0.00000000000E+00 0.  1.
</event>
<event>
 6    1  0.6597032E-006  0.3266121E+03  0.7561462E-02  0.1072646E+00
         -2   -1    0    0    0  501 -0.00000000000E+00  0.00000000000E+00  0.15635171585E+03  0.15635171585E+03  0.00000000000E+00 0. -1.
          2   -1    0    0  501    0  0.00000000000E+00 -0.00000000000E+00 -0.76699003345E+03  0.76699003345E+03  0.00000000000E+00 0.  1.
          5    1    1    2  502    0  0.89035026002E+02  0.14417956000E+03 -0.11933443093E+03  0.20729968688E+03  0.41800000000E+01 0. -1.
         -5    1    1    2    0  502 -0.20191493377E+02  0.15875196383E+03 -0.48336980523E+02  0.16722385748E+03  0.41800000000E+01 0. -1.
        -11    1    1    2    0    0 -0.40693668149E+02 -0.33429762243E+02 -0.62655667244E+02  0.81848984532E+02  0.00000000000E+00 0.  1.
         11    1    1    2    0    0 -0.28149864476E+02 -0.26950176159E+03 -0.38031123891E+03  0.46696922041E+03  0.00000000000E+00 0. -1.
</event>
<event>
 6    1  0.6597032E-006  0.7470855E+02  0.7561462E-02  0.1344776E+00
         -2   -1    0    0    0  501 -0.00000000000E+00  0.00000000000E+00  0.37417893104E+03  0.37417893104E+03  0.00000000000E+00 0.  1.
          2   -1    0    0  501    0  0.00000000000E+00 -0.00000000000E+00 -0.34206365151E+02  0.34206365151E+02  0.00000000000E+00 0. -1.
          5    1    1    2  502    0  0.25798835448E+02 -0.23377891340E+02 -0.47860734156E+00  0.35068606743E+02  0.41800000000E+01 0.  1.
         -5    1    1    2    0  502 -0.19078332678E+02 -0.60472581941E+01  0.20871875665E+03  0.20971777199E+03  0.41800000000E+01 0.  1.
        -11    1    1    2    0    0 -0.51906166889E+01  0.61538157116E+02  0.65774218958E+02  0.90222697601E+02  0.00000000000E+00 0. -1.
         11    1    1    2    0    0 -0.15298860808E+01 -0.32113007582E+02  0.65958197622E+02  0.73376219860E+02  0.00000000000E+00 0.  1.
</event>
<event>
 6    1  0.6597032E-006  0.1308867E+03  0.7561462E-02  0.1226146E+00
         -1   -1    0    0    0  501 -0.00000000000E+00  0.00000000000E+00  0.11420436926E+03  0.11420436926E+03  0.00000000000E+00 0.  1.
          1   -1    0    0  501    0  0.00000000000E+00 -0.00000000000E+00 -0.20165929832E+03  0.20165929832E+03  0.00000000000E+00 0. -1.
          5    1    1    2  502    0  0.24755804938E+02 -0.91257535301E+02 -0.45251538313E+02  0.10490930248E+03  0.41800000000E+01 0.  1.
         -5    1    1    2    0  502  0.55448694782E+02  0.23420619782E+02  0.12673125271E+02  0.61653578065E+02  0.41800000000E+01 0.  1.
        -11    1    1    2    0    0 -0.44392986446E+02  0.24979277957E+02  0.20990285150E+02  0.55093499105E+02  0.00000000000E+00 0.  1.
         11    1    1    2    0    0 -0.35811513274E+02  0.42857637562E+02 -0.75866801160E+02  0.94207287928E+02  0.00000000000E+00 0. -1.
</event>
<event>
 6    1  0.6597032E-006  0.1130506E+03  0.7561462E-02  0.1255023E+00
         -4   -1    0    0    0  501 -0.00000000000E+00  0.00000000000E+00  0.30030617955E+02  0.30030617955E+02  0.00000000000E+00 0.  1.
          4   -1    0    0  501    0  0.00000000000E+00 -0.00000000000E+00 -0.73985122138E+03  0.73985122138E+03  0.00000000000E+00 0. -1.
          5    1    1    2  502    0  0.49483851807E+02  0.35489125805E+02 -0.37332767888E+03  0.37828449328E+03  0.41800000000E+01 0.  1.
         -5    1    1    2    0  502  0.46567850331E+02 -0.31957216359E+01 -0.29139263064E+02  0.55184657045E+02  0.41800000000E+01 0.  1.
        -11    1    1    2    0    0 -0.13296665389E+02 -0.32853740589E+02 -0.28325528697E+02  0.45370752221E+02  0.00000000000E+00 0.  1.
         11    1    1    2    0    0 -0.82755036749E+02  0.56033641982E+00 -0.27902813279E+03  0.29104193679E+03  0.00000000000E+00 0. -1.
</event>
<event>
 6    1  0.6597032E-006  0.1520073E+03  0.7561462E-02  0.1198028E+00
         -1   -1    0    0    0  501 -0.00000000000E+00  0.00000000000E+00  0.32866155229E+02  0.32866155229E+02  0.00000000000E+00 0.  1.
          1   -1    0    0  501    0  0.00000000000E+00 -0.00000000000E+00 -0.84168060403E+03  0.84168060403E+03  0.00000000000E+00 0. -1.
          5    1    1    2  502    0  0.17062395643E+02  0.12662112695E+02 -0.10244496693E+03  0.10470863428E+03  0.41800000000E+01 0.  1.
         -5    1    1    2    0  502 -0.10994485552E+03 -0.88521194873E+02 -0.22202672913E+03  0.26312965254E+03  0.41800000000E+01 0.  1.
        -11    1    1    2    0    0 -0.12923784678E+02  0.11525176688E+02 -0.21602229159E+02  0.27685920840E+02  0.00000000000E+00 0.  1.
         11    1    1    2    0    0  0.10580624455E+03  0.64333905491E+02 -0.46274052358E+03  0.47902255160E+03  0.00000000000E+00 0. -1.
</event>
<event>
 6    1  0.6597032E-006  0.1096278E+03  0.7561462E-02  0.1261261E+00
         -1   -1    0    0    0  501 -0.00000000000E+00  0.00000000000E+00  0.24578050930E+02  0.24578050930E+02  0.00000000000E+00 0.  1.
          1   -1    0    0  501    0  0.00000000000E+00 -0.00000000000E+00 -0.66347530206E+03  0.66347530206E+03  0.00000000000E+00 0. -1.
          5    1    1    2  502    0 -0.19526590365E+02 -0.57852719897E+02 -0.10580660377E+03  0.12223229823E+03  0.41800000000E+01 0.  1.
         -5    1    1    2    0  502 -0.40749502284E+02  0.65357151548E+02 -0.16811645284E+03  0.18496673569E+03  0.41800000000E+01 0.  1.
        -11    1    1    2    0    0  0.67902541800E+02  0.29653844134E+01 -0.36094592894E+03  0.36728941219E+03  0.00000000000E+00 0. -1.
         11    1    1    2    0    0 -0.76264491508E+01 -0.10469816064E+02 -0.40282655815E+01  0.13564906880E+02  0.00000000000E+00 0.  1.
</event>
<event>
 6    1  0.6597032E-006  0.8417805E+02  0.7561462E-02  0.1317596E+00
         -1   -1    0    0    0  501 -0.00000000000E+00  0.00000000000E+00  0.56734238746E+02  0.56734238746E+02  0.00000000000E+00 0.  1.
          1   -1    0    0  501    0  0.00000000000E+00 -0.00000000000E+00 -0.25347924008E+03  0.25347924008E+03  0.00000000000E+00 0. -1.
          5    1    1    2  502    0  0.20763128555E+02  0.77317065720E+02 -0.75087505769E+02  0.10983916461E+03  0.41800000000E+01 0. -1.
         -5    1    1    2    0  502 -0.26416386938E+02 -0.33539957972E+02 -0.63554039805E+00  0.42902570916E+02  0.41800000000E+01 0. -1.
        -11    1    1    2    0    0  0.60324214213E+01 -0.11265762771E+02  0.13786246770E+02  0.18798088175E+02  0.00000000000E+00 0.  1.
         11    1    1    2    0    0 -0.37916303815E+00 -0.32511344978E+02 -0.13480820194E+03  0.13867365513E+03  0.00000000000E+00 0. -1.
</event>
<event>
 6    1  0.6597032E-006  0.6747328E+02  0.7561462E-02  0.1368902E+00
         -3   -1    0    0    0  501 -0.00000000000E+00  0.00000000000E+00  0.33662268074E+03  0.33662268074E+03  0.00000000000E+00 0.  1.
          3   -1    0    0  501    0  0.00000000000E+00 -0.00000000000E+00 -0.38902481055E+02  0.38902481055E+02  0.00000000000E+00 0. -1.
          5    1    1    2  502    0  0.11667660996E+02  0.27539642721E+01 -0.16507835511E+02  0.20825457152E+02  0.41800000000E+01 0.  1.
         -5    1    1    2    0  502 -0.50417105442E+02 -0.13463221431E+02  0.18836786693E+03  0.19550720842E+03  0.41800000000E+01 0.  1.
        -11    1    1    2    0    0  0.32102833985E+02  0.33357635140E+02  0.19483741746E+02  0.50228875803E+02  0.00000000000E+00 0. -1.
         11    1    1    2    0    0  0.66466104609E+01 -0.22648377981E+02  0.10637642653E+03  0.10896362043E+03  0.00000000000E+00 0.  1.
</event>
<event>
 6    1  0.6597032E-006  0.1528503E+03  0.7561462E-02  0.1197014E+00
         -2   -1    0    0    0  501 -0.00000000000E+00  0.00000000000E+00  0.12753003931E+03  0.12753003931E+03  0.00000000000E+00 0.  1.
          2   -1    0    0  501    0  0.00000000000E+00 -0.00000000000E+00 -0.22415145056E+03  0.22415145056E+03  0.00000000000E+00 0. -1.
          5    1    1    2  502    0  0.11042372972E+03 -0.55732274741E+02 -0.71067434181E+02  0.14271488757E+03  0.41800000000E+01 0. -1.
         -5    1    1    2    0  502  0.14998524615E+02  0.25076608739E+02  0.29574871343E+02  0.41784416490E+02  0.41800000000E+01 0. -1.
        -11    1    1    2    0    0 -0.28812119780E+02  0.46320016365E+02  0.60626107564E+00  0.54553182444E+02  0.00000000000E+00 0.  1.
         11    1    1    2    0    0 -0.96610134553E+02 -0.15664350363E+02 -0.55735109485E+02  0.11262900337E+03  0.00000000000E+00 0. -1.
</event>
<event>
 6    1  0.6597032E-006  0.7740770E+02  0.7561462E-02  0.1336573E+00
         -1   -1    0    0    0  501 -0.00000000000E+00  0.00000000000E+00  0.18731202022E+03  0.18731202022E+03  0.00000000000E+00 0.  1.
          1   -1    0    0  501    0  0.00000000000E+00 -0.00000000000E+00 -0.99217298368E+02  0.99217298368E+02  0.00000000000E+00 0. -1.
          5    1    1    2  502    0 -0.29000349900E+01 -0.35267492210E+02 -0.17121616530E+02  0.39532624026E+02  0.41800000000E+01 0. -1.
         -5    1    1    2    0  502 -0.25886396122E+02  0.23633096833E+01  0.13587423365E+03  0.13840148304E+03  0.41800000000E+01 0. -1.
        -11    1    1    2    0    0 -0.15148346916E+02  0.44838304911E+02 -0.40179593367E+02  0.62083377202E+02  0.00000000000E+00 0. -1.
         11    1    1    2    0    0  0.43934778027E+02 -0.11934122384E+02  0.95216980989E+01  0.46511834323E+02  0.00000000000E+00 0.  1.
</event>
<event>
 6    1  0.6597032E-006  0.9051161E+02  0.7561462E-02  0.1301617E+00
         -2   -1    0    0    0  501 -0.00000000000E+00  0.00000000000E+00  0.37176725999E+02  0.37176725999E+02  0.00000000000E+00 0.  1.
          2   -1    0    0  501    0  0.00000000000E+00 -0.00000000000E+00 -0.38148905306E+03  0.38148905306E+03  0.00000000000E+00 0. -1.
          5    1    1    2  502    0 -0.74429238163E+02  0.22732514619E+02 -0.10337030442E+03  0.12945798914E+03  0.41800000000E+01 0.  1.
         -5    1    1    2    0  502  0.46054158035E+02 -0.44779202314E+01 -0.24275931939E+02  0.52419753084E+02  0.41800000000E+01 0.  1.
        -11    1    1    2    0    0  0.58341383476E+01  0.15203887454E+02  0.11473480923E+00  0.16285224224E+02  0.00000000000E+00 0.  1.
         11    1    1    2    0    0  0.22540941780E+02 -0.33458481841E+02 -0.21678082550E+03  0.22050281261E+03  0.00000000000E+00 0. -1.
</event>
<event>
 6    1  0.6597032E-006  0.1178317E+03  0.7561462E-02  0.1246717E+00
          1   -1    0    0  501    0  0.00000000000E+00  0.00000000000E+00  0.14217604312E+03  0.14217604312E+03  0.00000000000E+00 0. -1.
         -1   -1    0    0    0  501 -0.00000000000E+00 -0.00000000000E+00 -0.29269555847E+03  0.29269555847E+03  0.00000000000E+00 0.  1.
          5    1    1    2  502    0 -0.23630937510E+02  0.54550278824E+02 -0.12780842017E+03  0.14101992339E+03  0.41800000000E+01 0. -1.
         -5    1    1    2    0  502  0.38065050717E+02 -0.10368828251E+03 -0.11074781591E+03  0.15646967484E+03  0.41800000000E+01 0.  1.
        -11    1    1    2    0    0 -0.36903818900E+01  0.53725525799E+02  0.10428577167E+03  0.11736938789E+03  0.00000000000E+00 0.  1.
         11    1    1    2    0    0 -0.10743731317E+02 -0.45875221121E+01 -0.16249050935E+02  0.20012615472E+02  0.00000000000E+00 0. -1.
</event>
<event>
 6    1  0.6597032E-006  0.1531230E+03  0.7561462E-02  0.1196687E+00
          1   -1    0    0  501    0  0.00000000000E+00  0.00000000000E+00  0.13605077673E+03  0.13605077673E+03  0.00000000000E+00 0. -1.
         -1   -1    0    0    0  501 -0.00000000000E+00 -0.00000000000E+00 -0.22951500773E+03  0.22951500773E+03  0.00000000000E+00 0.  1.
          5    1    1    2  502    0  0.24045094451E+02 -0.28751710921E+02  0.37895259006E+02  0.53463543683E+02  0.41800000000E+01 0. -1.
         -5    1    1    2    0  502 -0.20583962951E+01 -0.10931978773E+03 -0.88746901289E+02  0.14088483904E+03  0.41800000000E+01 0. -1.
        -11    1    1    2    0    0 -0.50530553470E+02  0.88982489685E+02 -0.37311292158E+01  0.10239698057E+03  0.00000000000E+00 0. -1.
         11    1    1    2    0    0  0.28543855315E+02  0.49089008963E+02 -0.38881459498E+02  0.68820421169E+02  0.00000000000E+00 0.  1.
</event>
<event>
 6    1  0.6597032E-006  0.1311510E+03  0.7561462E-02  0.1225758E+00
         -1   -1    0    0    0  501 -0.00000000000E+00  0.00000000000E+00  0.64897884529E+03  0.64897884529E+03  0.00000000000E+00 0.  1.
          1   -1    0    0  501    0  0.00000000000E+00 -0.00000000000E+00 -0.33845513001E+02  0.33845513001E+02  0.00000000000E+00 0. -1.
          5    1    1    2  502    0 -0.27351194319E+02  0.44134175673E+01  0.27717369540E+02  0.39411813705E+02  0.41800000000E+01 0.  1.
         -5    1    1    2    0  502  0.75682150885E+02 -0.77615239986E+02  0.41412550846E+03  0.42809966432E+03  0.41800000000E+01 0.  1.
        -11    1    1    2    0    0 -0.60922662234E+02  0.10472633086E+02  0.66267079686E+02  0.90623245735E+02  0.00000000000E+00 0.  1.
         11    1    1    2    0    0  0.12591705668E+02  0.62729189333E+02  0.10702337460E+03  0.12468963452E+03  0.00000000000E+00 0. -1.
</event>
<event>
 6    1  0.6597032E-006  0.1000219E+03  0.7561462E-02  0.1280250E+00
          3   -1    0    0  501    0  0.00000000000E+00  0.00000000000E+00  0.38284092025E+02  0.38284092025E+02  0.00000000000E+00 0. -1.
         -3   -1    0    0    0  501 -0.00000000000E+00 -0.00000000000E+00 -0.45194127671E+03  0.45194127671E+03  0.00000000000E+00 0.  1.
          5    1    1    2  502    0  0.75739636428E+02  0.52558645346E+01 -0.24566528260E+03  0.25716341131E+03  0.41800000000E+01 0. -1.
         -5    1    1    2    0  502 -0.25058396412E+02 -0.42604683055E+02 -0.52374906917E+02  0.72136575490E+02  0.41800000000E+01 0. -1.
        -11    1    1    2    0    0 -0.47576003891E+02  0.12270112341E+02 -0.12473313490E+03  0.13406113063E+03  0.00000000000E+00 0.  1.
         11    1    1    2    0    0 -0.31052361252E+01  0.25078706179E+02  0.91161397321E+01  0.26864251314E+02  0.00000000000E+00 0. -1.
</event>
<event>
 6    1  0.6597032E-006  0.1316193E+03  0.7561462E-02  0.1225073E+00
         -1   -1    0    0    0  501 -0.00000000000E+00  0.00000000000E+00  0.11525820711E+03  0.11525820711E+03  0.00000000000E+00 0.  1.
          1   -1    0    0  501    0  0.00000000000E+00 -0.00000000000E+00 -0.26902206033E+03  0.26902206033E+03  0.00000000000E+00 0. -1.
          5    1    1    2  502    0  0.70373290455E+02  0.81287299610E+02 -0.72508657195E+02  0.12974977016E+03  0.41800000000E+01 0. -1.
         -5    1    1    2    0  502  0.25350506405E+02  0.49804705685E+01  0.44905079926E+02  0.51974915731E+02  0.41800000000E+01 0. -1.
        -11    1    1    2    0    0 -0.76937560630E+02 -0.62189652945E+02 -0.32638950485E+02  0.10417409591E+03  0.00000000000E+00 0.  1.
         11    1    1    2    0    0 -0.18786236230E+02 -0.24078117234E+02 -0.93521325468E+02  0.98381485649E+02  0.00000000000E+00 0. -1.
</event>
<event>
 6    1  0.6597032E-006  0.1076851E+03  0.7561462E-02  0.1264918E+00
          1   -1    0    0  501    0  0.00000000000E+00  0.00000000000E+00  0.91245156787E+02  0.91245156787E+02  0.00000000000E+00 0. -1.
         -1   -1    0    0    0  501 -0.00000000000E+00 -0.00000000000E+00 -0.27845340116E+03  0.27845340116E+03  0.00000000000E+00 0.  1.
          5    1    1    2  502    0 -0.22717923378E+02 -0.80772184435E+02 -0.80200680403E+02  0.11614590547E+03  0.41800000000E+01 0. -1.
         -5    1    1    2    0  502 -0.37124457525E+02  0.36494122988E+02 -0.12471299193E+03  0.13520669035E+03  0.41800000000E+01 0. -1.
        -11    1    1    2    0    0  0.22062062656E+02  0.33020303769E+02  0.52456857631E+02  0.65793593777E+02  0.00000000000E+00 0. -1.
         11    1    1    2    0    0  0.37780318247E+02  0.11257757679E+02 -0.34751429669E+02  0.52552368347E+02  0.00000000000E+00 0.  1.
</event>
<event>
 6    1  0.6597032E-006  0.8688942E+02  0.7561462E-02  0.1310564E+00
         -3   -1    0    0    0  501 -0.00000000000E+00  0.00000000000E+00  0.22447967949E+03  0.22447967949E+03  0.00000000000E+00 0.  1.
          3   -1    0    0  501    0  0.00000000000E+00 -0.00000000000E+00 -0.40242643803E+02  0.40242643803E+02  0.00000000000E+00 0. -1.
          5    1    1    2  502    0 -0.17026692485E+02 -0.66020554567E+02  0.61838209611E+02  0.92141513175E+02  0.41800000000E+01 0.  1.
         -5    1    1    2    0  502  0.33671932272E+02  0.48138159666E+02  0.43721094841E+02  0.73349082973E+02  0.41800000000E+01 0.  1.
        -11    1    1    2    0    0  0.34400938338E+01  0.25023270284E+02  0.72890916970E+02  0.77143269817E+02  0.00000000000E+00 0.  1.
         11    1    1    2    0    0 -0.20085333621E+02 -0.71408753831E+01  0.57868142690E+01  0.22088457331E+02  0.00000000000E+00 0. -1.
</event>
<event>
 6    1  0.6597032E-006  0.1177335E+03  0.7561462E-02  0.1246884E+00
          1   -1    0    0  501    0  0.00000000000E+00  0.00000000000E+00  0.13285499994E+03  0.13285499994E+03  0.00000000000E+00 0. -1.
         -1   -1    0    0    0  501 -0.00000000000E+00 -0.00000000000E+00 -0.14246830659E+03  0.14246830659E+03  0.00000000000E+00 0.  1.
          5    1    1    2  502    0  0.96267847056E+02  0.12469198733E+02 -0.21887282453E+02  0.99596710925E+02  0.41800000000E+01 0.  1.
         -5    1    1    2    0  502 -0.34674778272E+02  0.36730986910E+02 -0.12712809859E+02  0.52255081878E+02  0.41800000000E+01 0.  1.
        -11    1    1    2    0    0 -0.41083996518E+02 -0.52691992532E+02 -0.23405641948E+02  0.70796644849E+02  0.00000000000E+00 0.  1.
         11    1    1    2    0    0 -0.20509072267E+02  0.34918068903E+01  0.48392427609E+02  0.52674868870E+02  0.00000000000E+00 0. -1.
</event>
<event>
 6    1  0.6597032E-006  0.1323814E+03  0.7561462E-02  0.1223964E+00
          4   -1    0    0  501    0  0.00000000000E+00  0.00000000000E+00  0.11150431539E+03  0.11150431539E+03  0.00000000000E+00 0. -1.
         -4   -1    0    0    0  501 -0.00000000000E+00 -0.00000000000E+00 -0.27031927423E+03  0.27031927423E+03  0.00000000000E+00 0.  1.
          5    1    1    2  502    0 -0.27941278679E+02  0.10561496947E+02  0.18880044742E+02  0.35583546218E+02  0.41800000000E+01 0. -1.
         -5    1    1    2    0  502 -0.66491519083E+02  0.60885498292E+02 -0.17524355104E+03  0.19711910255E+03  0.41800000000E+01 0.  1.
        -11    1    1    2    0    0  0.49078168830E+02  0.10957507857E+02 -0.18729870142E+02  0.53661361050E+02  0.00000000000E+00 0.  1.
         11    1    1    2    0    0  0.45354628932E+02 -0.82404503096E+02  0.16278417597E+02  0.95459579799E+02  0.00000000000E+00 0. -1.
</event>
<event>
 6    1  0.6597032E-006  0.8532494E+02  0.7561462E-02  0.1314585E+00
          1   -1    0    0  501    0  0.00000000000E+00  0.00000000000E+00  0.13785925986E+03  0.13785925986E+03  0.00000000000E+00 0. -1.
         -1   -1    0    0    0  501 -0.00000000000E+00 -0.00000000000E+00 -0.12390517598E+03  0.12390517598E+03  0.00000000000E+00 0.  1.
          5    1    1    2  502    0  0.58026647992E+02 -0.39853887456E+02  0.94142263423E+01  0.71144390363E+02  0.41800000000E+01 0.  1.
         -5    1    1    2    0  502 -0.21085005094E+02  0.24139339925E+02 -0.62872337050E+02  0.70694330310E+02  0.41800000000E+01 0.  1.
        -11    1    1    2    0    0  0.85621175238E+01  0.20341477096E+02 -0.14289814236E+02  0.26292286660E+02  0.00000000000E+00 0.  1.
         11    1    1    2    0    0 -0.45503760422E+02 -0.46269295644E+01  0.81702008824E+02  0.93633428515E+02  0.00000000000E+00 0. -1.
</event>
<event>
 6    1  0.6597032E-006  0.7266089E+02  0.7561462E-02  0.1351271E+00
          4   -1    0    0  501    0  0.00000000000E+00  0.00000000000E+00  0.80573605832E+02  0.80573605832E+02  0.00000000000E+00 0. -1.
         -4   -1    0    0    0  501 -0.00000000000E+00 -0.00000000000E+00 -0.15243845602E+03  0.15243845602E+03  0.00000000000E+00 0.  1.
          5    1    1    2  502    0  0.29262714820E+02  0.38973436938E+02 -0.70889463400E+02  0.86127949509E+02  0.41800000000E+01 0. -1.
         -5    1    1    2    0  502 -0.32849489757E+02 -0.16704227767E+02  0.29666783879E+02  0.47494322485E+02  0.41800000000E+01 0. -1.
        -11    1    1    2    0    0 -0.17864732494E+02  0.10072239600E+02  0.24505766132E+02  0.31955144365E+02  0.00000000000E+00 0. -1.
         11    1    1    2    0    0  0.21451507431E+02 -0.32341448771E+02 -0.55147936796E+02  0.67434645491E+02  0.00000000000E+00 0.  1.
</event>
<event>
 6    1  0.6597032E-006  0.1165205E+03  0.7561462E-02  0.1248950E+00
          1   -1    0    0  501    0  0.00000000000E+00  0.00000000000E+00  0.36027260623E+03  0.36027260623E+03  0.00000000000E+00 0. -1.
         -1   -1    0    0    0  501 -0.00000000000E+00 -0.00000000000E+00 -0.59852239106E+02  0.59852239106E+02  0.00000000000E+00 0.  1.
          5    1    1    2  502    0 -0.21460500976E+02  0.16741451833E+02 -0.18435384752E+02  0.33138574541E+02  0.41800000000E+01 0. -1.
         -5    1    1    2    0  502  0.66283267243E+02 -0.61771872195E+02  0.76684241462E+02  0.11877365448E+03  0.41800000000E+01 0. -1.
        -11    1    1    2    0    0 -0.67311697530E+02  0.57990115276E+02  0.17657449173E+03  0.19766706661E+03  0.00000000000E+00 0.  1.
         11    1    1    2    0    0  0.22488931263E+02 -0.12959694915E+02  0.65597018690E+02  0.70545549701E+02  0.00000000000E+00 0. -1.
</event>
<event>
 6    1  0.6597032E-006  0.1016846E+03  0.7561462E-02  0.1276793E+00
         -1   -1    0    0    0  501 -0.00000000000E+00  0.00000000000E+00  0.50664379422E+02  0.50664379422E+02  0.00000000000E+00 0.  1.
          1   -1    0    0  501    0  0.00000000000E+00 -0.00000000000E+00 -0.26162812687E+03  0.26162812687E+03  0.00000000000E+00 0. -1.
          5    1    1    2  502    0 -0.84421204128E+01 -0.48205568030E+02 -0.48643756648E+02  0.69128385248E+02  0.41800000000E+01 0. -1.
         -5    1    1    2    0  502  0.14036616060E+02  0.74658476655E+02 -0.34886195805E+02  0.83698469428E+02  0.41800000000E+01 0. -1.
        -11    1    1    2    0    0 -0.20168872693E+00 -0.52030317301E+02 -0.33310729267E+02  0.61780249927E+02  0.00000000000E+00 0.  1.
         11    1    1    2    0    0 -0.53928069206E+01  0.25577408676E+02 -0.94123065728E+02  0.97685401689E+02  0.00000000000E+00 0. -1.
</event>
<event>
 6    1  0.6597032E-006  0.1100263E+03  0.7561462E-02  0.1260521E+00
         -2   -1    0    0    0  501 -0.00000000000E+00  0.00000000000E+00  0.21211656426E+03  0.21211656426E+03  0.00000000000E+00 0.  1.
          2   -1    0    0  501    0  0.00000000000E+00 -0.00000000000E+00 -0.78279205385E+02  0.78279205385E+02  0.00000000000E+00 0. -1.
          5    1    1    2  502    0  0.95024534387E+02  0.41468648120E+02  0.64551385653E+02  0.12220337435E+03  0.41800000000E+01 0.  1.
         -5    1    1    2    0  502 -0.22386175858E+02 -0.32994991363E+02  0.13021005939E+02  0.42152453312E+02  0.41800000000E+01 0.  1.
        -11    1    1    2    0    0 -0.11031667360E+02 -0.95370491327E+01  0.62435501109E+02  0.64115870030E+02  0.00000000000E+00 0.  1.
         11    1    1    2    0    0 -0.61606691169E+02  0.10633923752E+01 -0.61705338240E+01  0.61924071957E+02  0.00000000000E+00 0. -1.
</event>
<event>
 6    1  0.6597032E-006  0.1027054E+03  0.7561462E-02  0.1274708E+00
         -2   -1    0    0    0  501 -0.00000000000E+00  0.00000000000E+00  0.22871622656E+03  0.22871622656E+03  0.00000000000E+00 0.  1.
          2   -1    0    0  501    0  0.00000000000E+00 -0.00000000000E+00 -0.65039906146E+02  0.65039906146E+02  0.00000000000E+00 0. -1.
          5    1    1    2  502    0  0.28546656764E+02 -0.14955733675E+02  0.98363864239E+02  0.10359299093E+03  0.41800000000E+01 0. -1.
         -5    1    1    2    0  502 -0.70887681445E+02 -0.16080304811E+02  0.17660674974E+02  0.74920033529E+02  0.41800000000E+01 0. -1.
        -11    1    1    2    0    0  0.53231280663E+02  0.53294555565E+02  0.19639124884E+02  0.77843266376E+02  0.00000000000E+00 0.  1.
         11    1    1    2    0    0 -0.10890255982E+02 -0.22258517078E+02  0.28012656321E+02  0.37399841872E+02  0.00000000000E+00 0. -1.
</event>
<event>
 6    1  0.6597032E-006  0.8354245E+02  0.7561462E-02  0.1319289E+00
          2   -1    0    0  501    0  0.00000000000E+00  0.00000000000E+00  0.63752461393E+03  0.63752461393E+03  0.00000000000E+00 0. -1.
         -2   -1    0    0    0  501 -0.00000000000E+00 -0.00000000000E+00 -0.24545549740E+02  0.24545549740E+02  0.00000000000E+00 0.  1.
          5    1    1    2  502    0 -0.26947343961E+02 -0.22690456412E+02  0.20787228713E+01  0.35536033086E+02  0.41800000000E+01 0. -1.
         -5    1    1    2    0  502  0.35221168298E+02 -0.96687733105E+01  0.20809509985E+03  0.21131743623E+03  0.41800000000E+01 0. -1.
        -11    1    1    2    0    0 -0.48115448621E+02  0.99420386427E+01  0.27787025176E+03  0.28218046946E+03  0.00000000000E+00 0. -1.
         11    1    1    2    0    0  0.39841624284E+02  0.22417191080E+02  0.12493498970E+03  0.13303622489E+03  0.00000000000E+00 0.  1.
</event>
<event>
 6    1  0.6597032E-006  0.1002636E+03  0.7561462E-02  0.1279743E+00
          2   -1    0    0  501    0  0.00000000000E+00  0.00000000000E+00  0.18457959980E+02  0.18457959980E+02  0.00000000000E+00 0. -1.
         -2   -1    0    0    0  501 -0.00000000000E+00 -0.00000000000E+00 -0.13604017226E+04  0.13604017226E+04  0.00000000000E+00 0.  1.
          5    1    1    2  502    0 -0.57366171748E+02  0.66286813236E+01 -0.10177722922E+04  0.10194178380E+04  0.41800000000E+01 0.  1.
         -5    1    1    2    0  502  0.34664934173E+02  0.26868144693E+02 -0.17029281433E+03  0.17589960169E+03  0.41800000000E+01 0.  1.
        -11    1    1    2    0    0  0.55346343925E+02 -0.55977845463E+01 -0.10212201272E+03  0.11629040571E+03  0.00000000000E+00 0.  1.
         11    1    1    2    0    0 -0.32645106349E+02 -0.27899041470E+02 -0.51756643341E+02  0.67251837249E+02  0.00000000000E+00 0. -1.
</event>
<event>
 6    1  0.6597032E-006  0.1828503E+03  0.7561462E-02  0.1165073E+00
          2   -1    0    0  501    0  0.00000000000E+00  0.00000000000E+00  0.16326717468E+03  0.16326717468E+03  0.00000000000E+00 0. -1.
         -2   -1    0    0    0  501 -0.00000000000E+00 -0.00000000000E+00 -0.22491644243E+03  0.22491644243E+03  0.00000000000E+00 0.  1.
          5    1    1    2  502    0 -0.21805479340E+02 -0.14806890977E+02 -0.27858790265E+02  0.38578589201E+02  0.41800000000E+01 0. -1.
         -5    1    1    2    0  502  0.74985521262E+01  0.16453637635E+03 -0.52551086982E+02  0.17293795584E+03  0.41800000000E+01 0. -1.
        -11    1    1    2    0    0 -0.37023300730E+02 -0.74327219077E+02 -0.22290108920E+01  0.83067615725E+02  0.00000000000E+00 0.  1.
         11    1    1    2    0    0  0.51330227945E+02 -0.75402266299E+02  0.20989620394E+02  0.93599456345E+02  0.00000000000E+00 0. -1.
</event>
<event>
 6    1  0.6597032E-006  0.7895270E+02  0.7561462E-02  0.1332050E+00
          2   -1    0    0  501    0  0.00000000000E+00  0.00000000000E+00  0.69627594496E+03  0.69627594496E+03  0.00000000000E+00 0.  1.
         -2   -1    0    0    0  501 -0.00000000000E+00 -0.00000000000E+00 -0.17924534854E+02  0.17924534854E+02  0.00000000000E+00 0. -1.
          5    1    1    2  502    0 -0.13802600170E+02  0.30825100853E+02  0.15345877949E+02  0.37331849460E+02  0.41800000000E+01 0.  1.
         -5    1    1    2    0  502  0.18334764280E+02 -0.28938537657E+02  0.29960645602E+03  0.30158763806E+03  0.41800000000E+01 0.  1.
        -11    1    1    2    0    0  0.41297742992E+02  0.89759129773E+01  0.22902131360E+03  0.23288802604E+03  0.00000000000E+00 0.  1.
         11    1    1    2    0    0 -0.45829907102E+02 -0.10862476174E+02  0.13437776253E+03  0.14239296625E+03  0.00000000000E+00 0. -1.
</event>
<event>
 6    1  0.6597032E-006  0.1241214E+03  0.7561462E-02  0.1236449E+00
          2   -1    0    0  501    0  0.00000000000E+00  0.00000000000E+00  0.66381367872E+02  0.66381367872E+02  0.00000000000E+00 0. -1.
         -2   -1    0    0    0  501 -0.00000000000E+00 -0.00000000000E+00 -0.31131286291E+03  0.31131286291E+03  0.00000000000E+00 0.  1.
          5    1    1    2  502    0 -0.48903019427E+02  0.58029640488E+02 -0.14222760043E+03  0.16126099097E+03  0.41800000000E+01 0.  1.
         -5    1    1    2    0  502  0.23863703144E+02  0.52516011777E+02  0.24714880600E+01  0.57887722998E+02  0.41800000000E+01 0.  1.
        -11    1    1    2    0    0  0.25073448195E+02 -0.79518837170E+02 -0.56133949243E+02  0.10051339974E+03  0.00000000000E+00 0.  1.
         11    1    1    2    0    0 -0.34131911539E-01 -0.31026815095E+02 -0.49041433418E+02  0.58032117070E+02  0.00000000000E+00 0. -1.
</event>
<event>
 6    1  0.6597032E-006  0.1093356E+03  0.7561462E-02  0.1261805E+00
          2   -1    0    0  501    0  0.00000000000E+00  0.00000000000E+00  0.15101601674E+03  0.15101601674E+03  0.00000000000E+00 0. -1.
         -2   -1    0    0    0  501 -0.00000000000E+00 -0.00000000000E+00 -0.83903983345E+02  0.83903983345E+02  0.00000000000E+00 0.  1.
          5    1    1    2  502    0 -0.57554809165E+01 -0.47697804643E+02 -0.22559767676E+01  0.48278027710E+02  0.41800000000E+01 0.  1.
         -5    1    1    2    0  502 -0.99355583189E+01  0.77335286427E+02  0.33517172900E+02  0.84972555129E+02  0.41800000000E+01 0.  1.
        -11    1    1    2    0    0 -0.34964162988E+02 -0.28994363095E+01  0.20123064523E+01  0.35141838335E+02  0.00000000000E+00 0.  1.
         11    1    1    2    0    0  0.50655202223E+02 -0.26738045474E+02  0.33838530806E+02  0.66527578906E+02  0.00000000000E+00 0. -1.
</event>
<event>
 6    1  0.6597032E-006  0.1221566E+03  0.7561462E-02  0.1239581E+00
         -1   -1    0    0    0  501 -0.00000000000E+00  0.00000000000E+00  0.67414493802E+02  0.67414493802E+02  0.00000000000E+00 0.  1.
          1   -1    0    0  501    0  0.00000000000E+00 -0.00000000000E+00 -0.24772760005E+03  0.24772760005E+03  0.00000000000E+00 0. -1.
          5    1    1    2  502    0  0.25176557332E+01  0.41888118099E+02 -0.30150864237E+02  0.51841103793E+02  0.41800000000E+01 0.  1.
         -5    1    1    2    0  502  0.38129837212E+02 -0.89000706786E+02 -0.45777754717E+02  0.10718248701E+03  0.41800000000E+01 0.  1.
        -11    1    1    2    0    0  0.20983750651E+02  0.37330962027E+02 -0.11716554536E+02  0.44398155000E+02  0.00000000000E+00 0.  1.
         11    1    1    2    0    0 -0.61631243596E+02  0.97816266603E+01 -0.92667932762E+02  0.11172034806E+03  0.00000000000E+00 0. -1.
</event>
<event>
 6    1  0.6597032E-006  0.8556381E+02  0.7561462E-02  0.1313965E+00
         -2   -1    0    0    0  501 -0.00000000000E+00  0.00000000000E+00  0.12901437389E+03  0.12901437389E+03  0.00000000000E+00 0.  1.
          2   -1    0    0  501    0  0.00000000000E+00 -0.00000000000E+00 -0.14099325128E+03  0.14099325128E+03  0.00000000000E+00 0. -1.
          5    1    1    2  502    0 -0.10736380140E+02  0.77551523382E+02 -0.40492441535E+02  0.88241820350E+02  0.41800000000E+01 0.  1.
         -5    1    1    2    0  502  0.12520920982E+02 -0.38373971334E+01  0.56160264031E+02  0.57818221479E+02  0.41800000000E+01 0.  1.
        -11    1    1    2    0    0 -0.14906022153E+02 -0.45089187671E+02  0.31468163527E+02  0.56969023662E+02  0.00000000000E+00 0.  1.
         11    1    1    2    0    0  0.13121481311E+02 -0.28624938577E+02 -0.59114863410E+02  0.66978559677E+02  0.00000000000E+00 0. -1.
</event>
<event>
 6    1  0.6597032E-006  0.1149938E+03  0.7561462E-02  0.1251592E+00
          1   -1    0    0  501    0  0.00000000000E+00  0.00000000000E+00  0.71359101166E+02  0.71359101166E+02  0.00000000000E+00 0. -1.
         -1   -1    0    0    0  501 -0.00000000000E+00 -0.00000000000E+00 -0.22763082159E+03  0.22763082159E+03  0.00000000000E+00 0.  1.
          5    1    1    2  502    0  0.43187942332E+02 -0.14309553375E+02 -0.92998261307E+02  0.10361520490E+03  0.41800000000E+01 0. -1.
         -5    1    1    2    0  502 -0.55029978491E+02 -0.48629891604E+02 -0.18688298234E+02  0.75893937709E+02  0.41800000000E+01 0. -1.
        -11    1    1    2    0    0  0.25790385649E+02 -0.16151554847E+02 -0.14629683545E+02  0.33764542889E+02  0.00000000000E+00 0. -1.
         11    1    1    2    0    0 -0.13948349490E+02  0.79090999826E+02 -0.29955477342E+02  0.85716237259E+02  0.00000000000E+00 0.  1.
</event>
<event>
 6    1  0.6597032E-006  0.1548079E+03  0.7561462E-02  0.1194687E+00
          2   -1    0    0  501    0  0.00000000000E+00  0.00000000000E+00  0.31531069456E+02  0.31531069456E+02  0.00000000000E+00 0. -1.
         -2   -1    0    0    0  501 -0.00000000000E+00 -0.00000000000E+00 -0.92539186902E+03  0.92539186902E+03  0.00000000000E+00 0.  1.
          5    1    1    2  502    0  0.33465554891E+02 -0.63394699350E+02 -0.41679800195E+03  0.42293838570E+03  0.41800000000E+01 0.  1.
         -5    1    1    2    0  502 -0.70563723336E+02 -0.51361869337E+02 -0.20863176044E+03  0.22619010707E+03  0.41800000000E+01 0.  1.
        -11    1    1    2    0    0 -0.25789555100E+01  0.11049600718E+03 -0.19053075124E+03  0.22026798629E+03  0.00000000000E+00 0. -1.
         11    1    1    2    0    0  0.39677123955E+02  0.42605615073E+01 -0.77900285938E+02  0.87526459422E+02  0.00000000000E+00 0.  1.
</event>
<event>
 6    1  0.6597032E-006  0.5644383E+02  0.7561462E-02  0.1413392E+00
         -1   -1    0    0    0  501 -0.00000000000E+00  0.00000000000E+00  0.38993210770E+03  0.38993210770E+03  0.00000000000E+00 0.  1.
          1   -1    0    0  501    0  0.00000000000E+00 -0.00000000000E+00 -0.33534642573E+02  0.33534642573E+02  0.00000000000E+00 0. -1.
          5    1    1    2  502    0  0.15660819683E+02  0.23536886467E+02 -0.98450330426E+00  0.28595243389E+02  0.41800000000E+01 0.  1.
         -5    1    1    2    0  502 -0.26403540149E+02  0.78163828411E+01  0.25468285931E+03  0.25620123731E+03  0.41800000000E+01 0.  1.
        -11    1    1    2    0    0 -0.16451535823E+02 -0.22471116661E+02  0.10625313514E+03  0.10984230898E+03  0.00000000000E+00 0.  1.
         11    1    1    2    0    0  0.27194256289E+02 -0.88821526470E+01 -0.35540260227E+01  0.28827960589E+02  0.00000000000E+00 0. -1.
</event>
<event>
 6    1  0.6597032E-006  0.1109136E+03  0.7561462E-02  0.1258887E+00
          1   -1    0    0  501    0  0.00000000000E+00  0.00000000000E+00  0.64108435058E+02  0.64108435058E+02  0.00000000000E+00 0. -1.
         -1   -1    0    0    0  501 -0.00000000000E+00 -0.00000000000E+00 -0.21231195428E+03  0.21231195428E+03  0.00000000000E+00 0.  1.
          5    1    1    2  502    0 -0.39807016326E+02  0.43043791043E+02 -0.57294126684E+02  0.82082006850E+02  0.41800000000E+01 0.  1.
         -5    1    1    2    0  502  0.51293899296E+01 -0.68260004052E+02 -0.21611652386E+02  0.71904622334E+02  0.41800000000E+01 0.  1.
        -11    1    1    2    0    0  0.36102827073E+02  0.54378669151E+02 -0.66372906574E+02  0.93090367430E+02  0.00000000000E+00 0.  1.
         11    1    1    2    0    0 -0.14252006772E+01 -0.29162456141E+02 -0.29248335798E+01  0.29343392725E+02  0.00000000000E+00 0. -1.
</event>
<event>
 6    1  0.6597032E-006  0.1008471E+03  0.7561462E-02  0.1278525E+00
         -1   -1    0    0    0  501 -0.00000000000E+00  0.00000000000E+00  0.51725533243E+02  0.51725533243E+02  0.00000000000E+00 0.  1.
          1   -1    0    0  501    0  0.00000000000E+00 -0.00000000000E+00 -0.32299587673E+03  0.32299587673E+03  0.00000000000E+00 0. -1.
          5    1    1    2  502    0  0.28592385237E+02 -0.14484509899E+02 -0.65648058819E+01  0.32983247214E+02  0.41800000000E+01 0. -1.
         -5    1    1    2    0  502 -0.80263349790E+02  0.58611840027E+02 -0.13587692238E+03  0.16839704138E+03  0.41800000000E+01 0. -1.
        -11    1    1    2    0    0  0.39522517864E+02 -0.23566137819E+02 -0.39332201344E+01  0.46182924232E+02  0.00000000000E+00 0.  1.
         11    1    1    2    0    0  0.12148446689E+02 -0.20561192310E+02 -0.12489539510E+03  0.12715819715E+03  0.00000000000E+00 0. -1.
</event>
<event>
 6    1  0.6597032E-006  0.1261585E+03  0.7561462E-02  0.1233270E+00
          3   -1    0    0  501    0  0.00000000000E+00  0.00000000000E+00  0.59042603860E+02  0.59042603860E+02  0.00000000000E+00 0. -1.
         -3   -1    0    0    0  501 -0.00000000000E+00 -0.00000000000E+00 -0.33212275946E+03  0.33212275946E+03  0.00000000000E+00 0.  1.
          5    1    1    2  502    0  0.62245081565E+02 -0.72102128977E+02 -0.86513509701E+02  0.12874481327E+03  0.41800000000E+01 0. -1.
         -5    1    1    2    0  502 -0.37788168627E+02  0.44410978445E+02 -0.14338910437E+03  0.15484892104E+03  0.41800000000E+01 0.  1.
        -11    1    1    2    0    0  0.10590581637E+02 -0.29550995218E+02 -0.12879197565E+02  0.33930745169E+02  0.00000000000E+00 0.  1.
         11    1    1    2    0    0 -0.35047494575E+02  0.57242145750E+02 -0.30298343955E+02  0.73640883839E+02  0.00000000000E+00 0. -1.
</event>
<event>
 6    1  0.6597032E-006  0.1277739E+03  0.7561462E-02  0.1230797E+00
          2   -1    0    0  501    0  0.00000000000E+00  0.00000000000E+00  0.22252736238E+03  0.22252736238E+03  0.00000000000E+00 0.  1.
         -2   -1    0    0    0  501 -0.00000000000E+00 -0.00000000000E+00 -0.89792520873E+02  0.89792520873E+02  0.00000000000E+00 0. -1.
          5    1    1    2  502    0 -0.49159212164E+02  0.22735758372E+02  0.20422085435E+02  0.58035134383E+02  0.41800000000E+01 0.  1.
         -5    1    1    2    0  502  0.73441778672E+02  0.45892776140E+02 -0.88808219382E+01  0.87156085012E+02  0.41800000000E+01 0.  1.
        -11    1    1    2    0    0 -0.87327537697E+01 -0.88701704839E+02  0.87133316990E+02  0.12464537039E+03  0.00000000000E+00 0. -1.
         11    1    1    2    0    0 -0.15549812738E+02  0.20073170326E+02  0.34060261018E+02  0.42483293466E+02  0.00000000000E+00 0.  1.
</event>
<event>
 6    1  0.6597032E-006  0.1455674E+03  0.7561462E-02  0.1206028E+00
          2   -1    0    0  501    0  0.00000000000E+00  0.00000000000E+00  0.33689654121E+03  0.33689654121E+03  0.00000000000E+00 0. -1.
         -2   -1    0    0    0  501 -0.00000000000E+00 -0.00000000000E+00 -0.89838647822E+02  0.89838647822E+02  0.00000000000E+00 0.  1.
          5    1    1    2  502    0 -0.12154377595E+03 -0.56059538410E+02  0.22337280590E+02  0.13576445715E+03  0.41800000000E+01 0.  1.
         -5    1    1    2    0  502 -0.38767069430E+01  0.17341823877E+02  0.61209660843E+02  0.63873802867E+02  0.41800000000E+01 0.  1.
        -11    1    1    2    0    0  0.11827310968E+03  0.47662771615E+02  0.17107780083E+03  0.21337263698E+03  0.00000000000E+00 0. -1.
         11    1    1    2    0    0  0.71473732144E+01 -0.89450570821E+01 -0.75668488802E+01  0.13724292042E+02  0.00000000000E+00 0.  1.
</event>
<event>
 6    1  0.6597032E-006  0.2719194E+03  0.7561462E-02  0.1100186E+00
          1   -1    0    0  501    0  0.00000000000E+00  0.00000000000E+00  0.97598290669E+03  0.97598290669E+03  0.00000000000E+00 0. -1.
         -1   -1    0    0    0  501 -0.00000000000E+00 -0.00000000000E+00 -0.11497852191E+03  0.11497852191E+03  0.00000000000E+00 0.  1.
          5    1    1    2  502    0  0.73619366061E+02 -0.14284875030E+02  0.28729021812E+02  0.80415780840E+02  0.41800000000E+01 0. -1.
         -5    1    1    2    0  502  0.14008259808E+03  0.15646062273E+03  0.10713084144E+03  0.23579132795E+03  0.41800000000E+01 0. -1.
        -11    1    1    2    0    0 -0.90219741248E+02 -0.41257703586E+02  0.16670941200E+03  0.19399440163E+03  0.00000000000E+00 0. -1.
         11    1    1    2    0    0 -0.12348222289E+03 -0.10091804411E+03  0.55843510953E+03  0.58075991817E+03  0.00000000000E+00 0.  1.
</event>
<event>
 6    1  0.6724672E-006  0.2923825E+03  0.7561462E-02  0.1089112E+00
          3   -1    0    0  501    0  0.00000000000E+00  0.00000000000E+00  0.13827591032E+03  0.13827591032E+03  0.00000000000E+00 0. -1.
         -3   -1    0    0    0  501 -0.00000000000E+00 -0.00000000000E+00 -0.83851366966E+03  0.83851366966E+03  0.00000000000E+00 0.  1.
          5    1    1    2  502    0  0.15466089806E+03  0.18564643018E+03 -0.33267719061E+03  0.41118873522E+03  0.41800000000E+01 0.  1.
         -5    1    1    2    0  502  0.22133125112E+02  0.46167379611E+02 -0.22139457185E+03  0.22727589184E+03  0.41800000000E+01 0.  1.
        -11    1    1    2    0    0 -0.72600267989E+02 -0.10388685798E+03 -0.11349707607E+03  0.17013190309E+03  0.00000000000E+00 0.  1.
         11    1    1    2    0    0 -0.10419375519E+03 -0.12792695181E+03 -0.32668920816E+02  0.16819304981E+03  0.00000000000E+00 0. -1.
</event>
<event>
 6    1  0.6597032E-006  0.2221353E+03  0.7561462E-02  0.1132301E+00
         -2   -1    0    0    0  501 -0.00000000000E+00  0.00000000000E+00  0.32915434293E+02  0.32915434293E+02  0.00000000000E+00 0.  1.
          2   -1    0    0  501    0  0.00000000000E+00 -0.00000000000E+00 -0.16639717562E+04  0.16639717562E+04  0.00000000000E+00 0. -1.
          5    1    1    2  502    0 -0.27615103477E+02  0.21205164027E+03 -0.67415099228E+03  0.70726623338E+03  0.41800000000E+01 0. -1.
         -5    1    1    2    0  502  0.20205657623E+02 -0.40656556615E+01 -0.16417237183E+03  0.16551386114E+03  0.41800000000E+01 0. -1.
        -11    1    1    2    0    0  0.14621324344E+02 -0.92710654278E+02 -0.51218835115E+03  0.52071677099E+03  0.00000000000E+00 0. -1.
         11    1    1    2    0    0 -0.72118784908E+01 -0.11527533034E+03 -0.28054460665E+03  0.30339032499E+03  0.00000000000E+00 0.  1.
</event>
<event>
 6    1  0.6597032E-006  0.1043828E+03  0.7561462E-02  0.1271340E+00
          1   -1    0    0  501    0  0.00000000000E+00  0.00000000000E+00  0.11950328049E+03  0.11950328049E+03  0.00000000000E+00 0. -1.
         -1   -1    0    0    0  501 -0.00000000000E+00 -0.00000000000E+00 -0.11752342196E+03  0.11752342196E+03  0.00000000000E+00 0.  1.
          5    1    1    2  502    0 -0.54568035775E+02  0.26222516374E+02  0.27444170431E+02  0.66602896213E+02  0.41800000000E+01 0.  1.
         -5    1    1    2    0  502  0.47794039124E+02  0.18965832019E+02 -0.43613010531E+02  0.67553978770E+02  0.41800000000E+01 0.  1.
        -11    1    1    2    0    0 -0.38807401393E+02 -0.13977767328E+02  0.23323141033E+02  0.47385243378E+02  0.00000000000E+00 0. -1.
         11    1    1    2    0    0  0.45581398044E+02 -0.31210581065E+02 -0.51744424048E+01  0.55484584095E+02  0.00000000000E+00 0.  1.
</event>
<event>
 6    1  0.6597032E-006  0.7929665E+02  0.7561462E-02  0.1331059E+00
          2   -1    0    0  501    0  0.00000000000E+00  0.00000000000E+00  0.34044122664E+03  0.34044122664E+03  0.00000000000E+00 0. -1.
         -2   -1    0    0    0  501 -0.00000000000E+00 -0.00000000000E+00 -0.45636632220E+02  0.45636632220E+02  0.00000000000E+00 0.  1.
          5    1    1    2  502    0  0.22558903736E+02  0.63536357029E+02  0.14404671744E+02  0.69070541986E+02  0.41800000000E+01 0.  1.
         -5    1    1    2    0  502 -0.49942082405E+01 -0.67385652965E+01  0.13248660566E+03  0.13281763233E+03  0.41800000000E+01 0.  1.
        -11    1    1    2    0    0 -0.39008712799E+00 -0.63303440595E+02  0.15262216498E+03  0.16523015162E+03  0.00000000000E+00 0. -1.
         11    1    1    2    0    0 -0.17174608367E+02  0.65056488630E+01 -0.47088479665E+01  0.18959532929E+02  0.00000000000E+00 0.  1.
</event>
<event>
 6    1  0.6597032E-006  0.1489004E+03  0.7561462E-02  0.1201831E+00
         -2   -1    0    0    0  501 -0.00000000000E+00  0.00000000000E+00  0.26988657994E+03  0.26988657994E+03  0.00000000000E+00 0.  1.
          2   -1    0    0  501    0  0.00000000000E+00 -0.00000000000E+00 -0.12255429109E+03  0.12255429109E+03  0.00000000000E+00 0. -1.
          5    1    1    2  502    0  0.63837241421E+02 -0.10054355823E+03  0.17084997229E+02  0.12038924381E+03  0.41800000000E+01 0. -1.
         -5    1    1    2    0  502  0.32377738439E+02 -0.35720426515E+01  0.92462357843E+02  0.98121544286E+02  0.41800000000E+01 0. -1.
        -11    1    1    2    0    0 -0.24089996733E+02  0.75190106468E+01 -0.27095363421E+02  0.37027316708E+02  0.00000000000E+00 0. -1.
         11    1    1    2    0    0 -0.72124983127E+02  0.96596590237E+02  0.64880297203E+02  0.13690276623E+03  0.00000000000E+00 0.  1.
</event>
<event>
 6    1  0.6597032E-006  0.6553699E+02  0.7561462E-02  0.1375963E+00
          2   -1    0    0  501    0  0.00000000000E+00  0.00000000000E+00  0.10350467569E+03  0.10350467569E+03  0.00000000000E+00 0. -1.
         -2   -1    0    0    0  501 -0.00000000000E+00 -0.00000000000E+00 -0.10371473477E+03  0.10371473477E+03  0.00000000000E+00 0.  1.
          5    1    1    2  502    0  0.23053480889E+02  0.45341293096E+02 -0.41314204038E+02  0.65663016196E+02  0.41800000000E+01 0. -1.
         -5    1    1    2    0  502 -0.35598150266E+01 -0.34742626186E+02  0.50725832936E+02  0.61727667090E+02  0.41800000000E+01 0. -1.
        -11    1    1    2    0    0  0.11378090601E+02 -0.79454363124E+01 -0.36349331431E+02  0.38908415534E+02  0.00000000000E+00 0.  1.
         11    1    1    2    0    0 -0.30871756463E+02 -0.26532305975E+01  0.26727643456E+02  0.40920311637E+02  0.00000000000E+00 0. -1.
</event>
<event>
 6    1  0.6597032E-006  0.1222692E+03  0.7561462E-02  0.1239400E+00
         -4   -1    0    0    0  501 -0.00000000000E+00  0.00000000000E+00  0.33674147522E+03  0.33674147522E+03  0.00000000000E+00 0.  1.
          4   -1    0    0  501    0  0.00000000000E+00 -0.00000000000E+00 -0.64403557928E+02  0.64403557928E+02  0.00000000000E+00 0. -1.
          5    1    1    2  502    0  0.25359188924E+02  0.14250237772E+02  0.13099039953E+03  0.13424647075E+03  0.41800000000E+01 0. -1.
         -5    1    1    2    0  502  0.70693758014E+02 -0.48782079911E+02  0.23338509526E+02  0.89103631629E+02  0.41800000000E+01 0. -1.
        -11    1    1    2    0    0 -0.23480560761E+02 -0.25725584045E+02  0.14430172556E+02  0.37701091338E+02  0.00000000000E+00 0. -1.
         11    1    1    2    0    0 -0.72572386177E+02  0.60257426185E+02  0.10357883568E+03  0.14009383943E+03  0.00000000000E+00 0.  1.
</event>
<event>
 6    1  0.6597032E-006  0.9328511E+02  0.7561462E-02  0.1295086E+00
         -1   -1    0    0    0  501 -0.00000000000E+00  0.00000000000E+00  0.24865103610E+03  0.24865103610E+03  0.00000000000E+00 0.  1.
          1   -1    0    0  501    0  0.00000000000E+00 -0.00000000000E+00 -0.10003879392E+03  0.10003879392E+03  0.00000000000E+00 0. -1.
          5    1    1    2  502    0  0.10703650028E+02 -0.40240939001E+02  0.15367062438E+03  0.15926717958E+03  0.41800000000E+01 0. -1.
         -5    1    1    2    0  502 -0.65408486349E+02  0.12230021097E+02  0.35006185798E+02  0.75304375348E+02  0.41800000000E+01 0. -1.
        -11    1    1    2    0    0  0.23983297655E+01  0.25572048878E+02  0.21358436387E+02  0.33404557689E+02  0.00000000000E+00 0.  1.
         11    1    1    2    0    0  0.52306506555E+02  0.24388690261E+01 -0.61423004380E+02  0.80713717404E+02  0.00000000000E+00 0. -1.
</event>
<event>
 6    1  0.6597032E-006  0.1523473E+03  0.7561462E-02  0.1197618E+00
          1   -1    0    0  501    0  0.00000000000E+00  0.00000000000E+00  0.69583730676E+02  0.69583730676E+02  0.00000000000E+00 0. -1.
         -1   -1    0    0    0  501 -0.00000000000E+00 -0.00000000000E+00 -0.37564621416E+03  0.37564621416E+03  0.00000000000E+00 0.  1.
          5    1    1    2  502    0 -0.30290112287E+02  0.23491465296E+01 -0.22956400527E+02  0.38307676997E+02  0.41800000000E+01 0. -1.
         -5    1    1    2    0  502  0.11431299614E+03  0.76424015057E+02 -0.17684260667E+03  0.22405104574E+03  0.41800000000E+01 0. -1.
        -11    1    1    2    0    0  0.56555472866E+01 -0.37171186583E+02 -0.66343739952E+02  0.76257289212E+02  0.00000000000E+00 0. -1.
         11    1    1    2    0    0 -0.89678431139E+02 -0.41601975004E+02 -0.39919736330E+02  0.10661393288E+03  0.00000000000E+00 0.  1.
</event>
<event>
 6    1  0.6597032E-006  0.1010045E+03  0.7561462E-02  0.1278198E+00
          1   -1    0    0  501    0  0.00000000000E+00  0.00000000000E+00  0.24030298552E+03  0.24030298552E+03  0.00000000000E+00 0. -1.
         -1   -1    0    0    0  501 -0.00000000000E+00 -0.00000000000E+00 -0.73672724206E+02  0.73672724206E+02  0.00000000000E+00 0.  1.
          5    1    1    2  502    0  0.36604251915E+02 -0.39704205421E+02 -0.19458266349E+02  0.57553381444E+02  0.41800000000E+01 0.  1.
         -5    1    1    2    0  502  0.94641911428E+01  0.64483138590E+02  0.47880433308E+02  0.80979345330E+02  0.41800000000E+01 0.  1.
        -11    1    1    2    0    0 -0.52708292495E+02 -0.39843983226E+02  0.14363883935E+03  0.15810699942E+03  0.00000000000E+00 0. -1.
         11    1    1    2    0    0  0.66398494375E+01  0.15065050057E+02 -0.54307449924E+01  0.17335983530E+02  0.00000000000E+00 0.  1.
</event>
<event>
 6    1  0.6597032E-006  0.1250152E+03  0.7561462E-02  0.1235046E+00
         -1   -1    0    0    0  501 -0.00000000000E+00  0.00000000000E+00  0.24561981826E+03  0.24561981826E+03  0.00000000000E+00 0.  1.
          1   -1    0    0  501    0  0.00000000000E+00 -0.00000000000E+00 -0.69901022254E+02  0.69901022254E+02  0.00000000000E+00 0. -1.
          5    1    1    2  502    0  0.72179108879E+00 -0.10430888570E+03  0.46367903371E+02  0.11422924092E+03  0.41800000000E+01 0. -1.
         -5    1    1    2    0  502 -0.68755403685E+01  0.34678783313E+02  0.97899578424E+01  0.36921629731E+02  0.41800000000E+01 0.  1.
        -11    1    1    2    0    0 -0.70696655800E+01  0.87510880380E+02  0.78971818176E+02  0.11808760486E+03  0.00000000000E+00 0.  1.
         11    1    1    2    0    0  0.13223414860E+02 -0.17880777994E+02  0.40589116614E+02  0.46282364997E+02  0.00000000000E+00 0. -1.
</event>
<event>
 6    1  0.6597032E-006  0.1446129E+03  0.7561462E-02  0.1207253E+00
         -2   -1    0    0    0  501 -0.00000000000E+00  0.00000000000E+00  0.78106440814E+02  0.78106440814E+02  0.00000000000E+00 0.  1.
          2   -1    0    0  501    0  0.00000000000E+00 -0.00000000000E+00 -0.38677734157E+03  0.38677734157E+03  0.00000000000E+00 0. -1.
          5    1    1    2  502    0  0.47849077752E+02 -0.15500884337E+01  0.10200174559E+02  0.49126906853E+02  0.41800000000E+01 0. -1.
         -5    1    1    2    0  502 -0.24037514831E+02  0.10233104724E+03 -0.58121118382E+02  0.12018727948E+03  0.41800000000E+01 0. -1.
        -11    1    1    2    0    0  0.31105916344E+02 -0.16060600342E+02 -0.97800679430E+02  0.10387730172E+03  0.00000000000E+00 0. -1.
         11    1    1    2    0    0 -0.54917479265E+02 -0.84720358462E+02 -0.16294927751E+03  0.19169229433E+03  0.00000000000E+00 0.  1.
</event>
<event>
 6    1  0.6597032E-006  0.9832800E+02  0.7561462E-02  0.1283852E+00
          1   -1    0    0  501    0  0.00000000000E+00  0.00000000000E+00  0.42547312416E+03  0.42547312416E+03  0.00000000000E+00 0. -1.
         -1   -1    0    0    0  501 -0.00000000000E+00 -0.00000000000E+00 -0.44504891967E+02  0.44504891967E+02  0.00000000000E+00 0.  1.
          5    1    1    2  502    0 -0.14562583783E+02 -0.48489045998E+02  0.16785991257E+03  0.17537867338E+03  0.41800000000E+01 0. -1.
         -5    1    1    2    0  502 -0.23244516223E+02 -0.18231728068E+02 -0.17596295757E+02  0.34638208198E+02  0.41800000000E+01 0. -1.
        -11    1    1    2    0    0  0.66357295869E+02  0.47307977756E+02  0.18899346767E+03  0.20581512650E+03  0.00000000000E+00 0.  1.
         11    1    1    2    0    0 -0.28550195863E+02  0.19412796311E+02  0.41711147708E+02  0.54146008048E+02  0.00000000000E+00 0. -1.
</event>
<event>
 6    1  0.6597032E-006  0.1709518E+03  0.7561462E-02  0.1176859E+00
         -2   -1    0    0    0  501 -0.00000000000E+00  0.00000000000E+00  0.98876585225E+02  0.98876585225E+02  0.00000000000E+00 0. -1.
          2   -1    0    0  501    0  0.00000000000E+00 -0.00000000000E+00 -0.41448930528E+03  0.41448930528E+03  0.00000000000E+00 0.  1.
          5    1    1    2  502    0 -0.14070304709E+03  0.74920952779E+02 -0.41705659955E+02  0.16482515311E+03  0.41800000000E+01 0.  1.
         -5    1    1    2    0  502  0.87018247278E+00  0.14242817939E+02 -0.68951400849E+02  0.70536395992E+02  0.41800000000E+01 0.  1.
        -11    1    1    2    0    0  0.36583213915E+02 -0.36462170990E+02 -0.12193753961E+02  0.53070793185E+02  0.00000000000E+00 0. -1.
         11    1    1    2    0    0  0.10324965070E+03 -0.52701599728E+02 -0.19276190529E+03  0.22493354822E+03  0.00000000000E+00 0.  1.
</event>
<event>
 6    1  0.6597032E-006  0.1230913E+03  0.7561462E-02  0.1238083E+00
         -1   -1    0    0    0  501 -0.00000000000E+00  0.00000000000E+00  0.82209989126E+03  0.82209989126E+03  0.00000000000E+00 0. -1.
          1   -1    0    0  501    0  0.00000000000E+00 -0.00000000000E+00 -0.32274168748E+02  0.32274168748E+02  0.00000000000E+00 0.  1.
          5    1    1    2  502    0  0.10637029449E+03 -0.24794321408E+02  0.54985479188E+03  0.56061320220E+03  0.41800000000E+01 0.  1.
         -5    1    1    2    0  502 -0.15567896830E+02 -0.27573224332E+02  0.38842403471E+02  0.50287640819E+02  0.41800000000E+01 0.  1.
        -11    1    1    2    0    0 -0.68984634405E+02  0.42224735565E+02  0.20380214729E+03  0.21926496144E+03  0.00000000000E+00 0. -1.
         11    1    1    2    0    0 -0.21817763257E+02  0.10142810174E+02 -0.26736201338E+01  0.24208255542E+02  0.00000000000E+00 0.  1.
</event>
<event>
 6    1  0.6597032E-006  0.1162781E+03  0.7561462E-02  0.1249367E+00
          1   -1    0    0  501    0  0.00000000000E+00  0.00000000000E+00  0.23497572240E+03  0.23497572240E+03  0.00000000000E+00 0. -1.
         -1   -1    0    0    0  501 -0.00000000000E+00 -0.00000000000E+00 -0.69134560895E+02  0.69134560895E+02  0.00000000000E+00 0.  1.
          5    1    1    2  502    0 -0.88084828318E+01  0.71398433505E+02  0.68577228219E+02  0.99476802859E+02  0.41800000000E+01 0. -1.
         -5    1    1    2    0  502 -0.45641892258E+02 -0.37727129639E+02  0.61650730576E+01  0.59682486254E+02  0.41800000000E+01 0. -1.
        -11    1    1    2    0    0  0.31535096734E+02 -0.59047194466E+02  0.88074510489E+02  0.11062618541E+03  0.00000000000E+00 0. -1.
         11    1    1    2    0    0  0.22915278355E+02  0.25375890600E+02  0.30243497373E+01  0.34324808772E+02  0.00000000000E+00 0.  1.
</event>
<event>
 6    1  0.6597032E-006  0.9049977E+02  0.7561462E-02  0.1301646E+00
          1   -1    0    0  501    0  0.00000000000E+00  0.00000000000E+00  0.58571537801E+02  0.58571537801E+02  0.00000000000E+00 0. -1.
         -1   -1    0    0    0  501 -0.00000000000E+00 -0.00000000000E+00 -0.25447957255E+03  0.25447957255E+03  0.00000000000E+00 0.  1.
          5    1    1    2  502    0 -0.13353103207E+02  0.57243372103E+02 -0.10178673657E+03  0.11761428976E+03  0.41800000000E+01 0.  1.
         -5    1    1    2    0  502  0.22838424184E+01 -0.65451383004E+02 -0.79824389711E+02  0.10333685241E+03  0.41800000000E+01 0.  1.
        -11    1    1    2    0    0 -0.84705298952E+01  0.27628150123E+02  0.28898078208E+02  0.40867633648E+02  0.00000000000E+00 0. -1.
         11    1    1    2    0    0  0.19539790684E+02 -0.19420139222E+02 -0.43194986676E+02  0.51232334529E+02  0.00000000000E+00 0.  1.
</event>
<event>
 6    1  0.6597032E-006  0.8552202E+02  0.7561462E-02  0.1314073E+00
          2   -1    0    0  501    0  0.00000000000E+00  0.00000000000E+00  0.10342579575E+04  0.10342579575E+04  0.00000000000E+00 0. -1.
         -2   -1    0    0    0  501 -0.00000000000E+00 -0.00000000000E+00 -0.20245168476E+02  0.20245168476E+02  0.00000000000E+00 0.  1.
          5    1    1    2  502    0 -0.25549792636E+02 -0.20528250013E+02  0.62488936691E+03  0.62576225057E+03  0.41800000000E+01 0. -1.
         -5    1    1    2    0  502  0.27420164296E+02  0.36005052554E+02  0.22784662840E+02  0.50841346168E+02  0.41800000000E+01 0.  1.
        -11    1    1    2    0    0  0.20493463258E+02 -0.48510486626E+02  0.19592501633E+03  0.20287893280E+03  0.00000000000E+00 0.  1.
         11    1    1    2    0    0 -0.22363834918E+02  0.33033684085E+02  0.17041374294E+03  0.17502059644E+03  0.00000000000E+00 0. -1.
</event>
<event>
 6    1  0.6597032E-006  0.9320571E+02  0.7561462E-02  0.1295269E+00
         -1   -1    0    0    0  501 -0.00000000000E+00  0.00000000000E+00  0.13203696370E+03  0.13203696370E+03  0.00000000000E+00 0.  1.
          1   -1    0    0  501    0  0.00000000000E+00 -0.00000000000E+00 -0.10648597935E+03  0.10648597935E+03  0.00000000000E+00 0. -1.
          5    1    1    2  502    0 -0.40580199591E+02  0.44766078563E+02 -0.82410480138E+01  0.61123985972E+02  0.41800000000E+01 0. -1.
         -5    1    1    2    0  502  0.62414359644E+02 -0.13901632921E+02  0.44376808500E+02  0.77946014781E+02  0.41800000000E+01 0.  1.
        -11    1    1    2    0    0  0.90078961551E+01  0.80707126930E+01 -0.39957176995E+02  0.41747509985E+02  0.00000000000E+00 0.  1.
         11    1    1    2    0    0 -0.30842056209E+02 -0.38935158335E+02  0.29372400860E+02  0.57705432310E+02  0.00000000000E+00 0. -1.
</event>
<event>
 6    1  0.6597032E-006  0.1430691E+03  0.7561462E-02  0.1209258E+00
          3   -1    0    0  501    0  0.00000000000E+00  0.00000000000E+00  0.25142985188E+03  0.25142985188E+03  0.00000000000E+00 0. -1.
         -3   -1    0    0    0  501 -0.00000000000E+00 -0.00000000000E+00 -0.13418715026E+03  0.13418715026E+03  0.00000000000E+00 0.  1.
          5    1    1    2  502    0  0.71502514500E+01  0.41616679168E+02  0.22749700880E+02  0.48146602900E+02  0.41800000000E+01 0. -1.
         -5    1    1    2    0  502  0.10052150425E+03 -0.25666970374E+02 -0.66651659829E+02  0.12338266630E+03  0.41800000000E+01 0. -1.
        -11    1    1    2    0    0 -0.41282440948E+02  0.36626310702E+02  0.76724261848E+02  0.94511051853E+02  0.00000000000E+00 0. -1.
         11    1    1    2    0    0 -0.66389314750E+02 -0.52576019495E+02  0.84420398729E+02  0.11957668109E+03  0.00000000000E+00 0.  1.
</event>
<event>
 6    1  0.6597032E-006  0.2087584E+03  0.7561462E-02  0.1142553E+00
         -2   -1    0    0    0  501 -0.00000000000E+00  0.00000000000E+00  0.58711364764E+02  0.58711364764E+02  0.00000000000E+00 0.  1.
          2   -1    0    0  501    0  0.00000000000E+00 -0.00000000000E+00 -0.96697247893E+03  0.96697247893E+03  0.00000000000E+00 0. -1.
          5    1    1    2  502    0  0.10367191721E+03  0.47906378638E+02 -0.11638314132E+03  0.16311160448E+03  0.41800000000E+01 0. -1.
         -5    1    1    2    0  502  0.80354680766E+02 -0.73850522834E+02 -0.13370359854E+03  0.17264095432E+03  0.41800000000E+01 0. -1.
        -11    1    1    2    0    0 -0.11309754583E+03  0.43120763662E+02 -0.28417973866E+03  0.30888279168E+03  0.00000000000E+00 0.  1.
         11    1    1    2    0    0 -0.70929052149E+02 -0.17176619466E+02 -0.37399463564E+03  0.38104849322E+03  0.00000000000E+00 0. -1.
</event>
<event>
 6    1  0.6597032E-006  0.8674450E+02  0.7561462E-02  0.1310933E+00
         -4   -1    0    0    0  501 -0.00000000000E+00  0.00000000000E+00  0.29762112938E+03  0.29762112938E+03  0.00000000000E+00 0.  1.
          4   -1    0    0  501    0  0.00000000000E+00 -0.00000000000E+00 -0.51802440520E+02  0.51802440520E+02  0.00000000000E+00 0. -1.
          5    1    1    2  502    0  0.50287147454E+02  0.25695321490E+02  0.19400757586E+02  0.59857401718E+02  0.41800000000E+01 0. -1.
         -5    1    1    2    0  502 -0.30172936945E+02  0.23758319848E+02  0.16387987722E+03  0.16837146565E+03  0.41800000000E+01 0. -1.
        -11    1    1    2    0    0 -0.35529393709E+02 -0.11624497372E+02  0.70293536785E+02  0.79615627048E+02  0.00000000000E+00 0.  1.
         11    1    1    2    0    0  0.15415183200E+02 -0.37829143966E+02 -0.77554827290E+01  0.41579075491E+02  0.00000000000E+00 0. -1.
</event>
<event>
 6    1  0.6597032E-006  0.1450606E+03  0.7561462E-02  0.1206677E+00
         -1   -1    0    0    0  501 -0.00000000000E+00  0.00000000000E+00  0.13084177541E+03  0.13084177541E+03  0.00000000000E+00 0.  1.
          1   -1    0    0  501    0  0.00000000000E+00 -0.00000000000E+00 -0.20566243881E+03  0.20566243881E+03  0.00000000000E+00 0. -1.
          5    1    1    2  502    0 -0.10140061797E+03  0.11386218505E+02  0.23362170354E+01  0.10215019141E+03  0.41800000000E+01 0. -1.
         -5    1    1    2    0  502  0.36630984404E+01  0.63312583229E+02 -0.46545459582E+02  0.78777240959E+02  0.41800000000E+01 0. -1.
        -11    1    1    2    0    0  0.26802310017E+02 -0.10555161561E+02  0.30603005737E+02  0.42027600668E+02  0.00000000000E+00 0.  1.
         11    1    1    2    0    0  0.70935209510E+02 -0.64143640174E+02 -0.61214426586E+02  0.11354918117E+03  0.00000000000E+00 0. -1.
</event>
<event>
 6    1  0.6597032E-006  0.1126188E+03  0.7561462E-02  0.1255796E+00
         -2   -1    0    0    0  501 -0.00000000000E+00  0.00000000000E+00  0.22955605061E+03  0.22955605061E+03  0.00000000000E+00 0. -1.
          2   -1    0    0  501    0  0.00000000000E+00 -0.00000000000E+00 -0.58068140135E+02  0.58068140135E+02  0.00000000000E+00 0.  1.
          5    1    1    2  502    0 -0.47980438916E+02  0.51291770227E+01  0.45574692258E+02  0.66505307682E+02  0.41800000000E+01 0. -1.
         -5    1    1    2    0  502  0.73846142653E+02 -0.39146579125E+02  0.71296242227E+02  0.10993786426E+03  0.41800000000E+01 0. -1.
        -11    1    1    2    0    0 -0.20032402709E+02  0.61677694655E+02  0.23092443808E+02  0.68838188074E+02  0.00000000000E+00 0.  1.
         11    1    1    2    0    0 -0.58333010281E+01 -0.27660292553E+02  0.31524532184E+02  0.42342830733E+02  0.00000000000E+00 0. -1.
</event>
<event>
 6    1  0.6597032E-006  0.1009302E+03  0.7561462E-02  0.1278352E+00
          1   -1    0    0  501    0  0.00000000000E+00  0.00000000000E+00  0.21404546219E+02  0.21404546219E+02  0.00000000000E+00 0. -1.
         -1   -1    0    0    0  501 -0.00000000000E+00 -0.00000000000E+00 -0.52395017384E+03  0.52395017384E+03  0.00000000000E+00 0.  1.
          5    1    1    2  502    0 -0.39391668658E+02 -0.49686739931E+02 -0.11096140966E+03  0.12786861428E+03  0.41800000000E+01 0.  1.
         -5    1    1    2    0  502  0.23672141568E+02  0.48459260320E+02 -0.21292128739E+03  0.21968526856E+03  0.41800000000E+01 0.  1.
        -11    1    1    2    0    0  0.11535502032E+02  0.41836532030E+02 -0.10431267090E+03  0.11298007138E+03  0.00000000000E+00 0. -1.
         11    1    1    2    0    0  0.41840250570E+01 -0.40609052419E+02 -0.74350259665E+02  0.84820765832E+02  0.00000000000E+00 0.  1.
</event>
<event>
 6    1  0.6597032E-006  0.1109694E+03  0.7561462E-02  0.1258785E+00
          2   -1    0    0  501    0  0.00000000000E+00  0.00000000000E+00  0.47704760939E+03  0.47704760939E+03  0.00000000000E+00 0. -1.
         -2   -1    0    0    0  501 -0.00000000000E+00 -0.00000000000E+00 -0.35682677544E+02  0.35682677544E+02  0.00000000000E+00 0.  1.
          5    1    1    2  502    0 -0.70773467522E+01  0.46400152392E+02  0.67175500958E+02  0.82055367332E+02  0.41800000000E+01 0. -1.
         -5    1    1    2    0  502 -0.24014857471E+02 -0.78058086522E+02  0.56784430962E+02  0.99557632809E+02  0.41800000000E+01 0. -1.
        -11    1    1    2    0    0  0.59236602068E+02  0.23608770447E+02  0.24108871493E+03  0.24937946494E+03  0.00000000000E+00 0. -1.
         11    1    1    2    0    0 -0.28144397844E+02  0.80491636839E+01  0.76316284997E+02  0.81737821856E+02  0.00000000000E+00 0.  1.
</event>
<event>
 6    1  0.6597032E-006  0.1030567E+03  0.7561462E-02  0.1273996E+00
          1   -1    0    0  501    0  0.00000000000E+00  0.00000000000E+00  0.20428023379E+02  0.20428023379E+02  0.00000000000E+00 0. -1.
         -1   -1    0    0    0  501 -0.00000000000E+00 -0.00000000000E+00 -0.92833811907E+03  0.92833811907E+03  0.00000000000E+00 0.  1.
          5    1    1    2  502    0 -0.55868407764E+02  0.31267897916E+02 -0.28441764577E+03  0.29156445266E+03  0.41800000000E+01 0.  1.
         -5    1    1    2    0  502  0.59422906482E+02  0.97661692064E+00 -0.48255095570E+03  0.48621490397E+03  0.41800000000E+01 0.  1.
        -11    1    1    2    0    0  0.35924141728E+02 -0.11146786931E+02 -0.11083010793E+03  0.11703891507E+03  0.00000000000E+00 0.  1.
         11    1    1    2    0    0 -0.39478640446E+02 -0.21097727906E+02 -0.30111386291E+02  0.53947870751E+02  0.00000000000E+00 0. -1.
</event>
<event>
 6    1  0.6597032E-006  0.1039685E+03  0.7561462E-02  0.1272165E+00
          1   -1    0    0  501    0  0.00000000000E+00  0.00000000000E+00  0.89836880685E+02  0.89836880685E+02  0.00000000000E+00 0. -1.
         -1   -1    0    0    0  501 -0.00000000000E+00 -0.00000000000E+00 -0.15241196347E+03  0.15241196347E+03  0.00000000000E+00 0.  1.
          5    1    1    2  502    0  0.27019024554E+02  0.42751300194E+02 -0.37254244606E+02  0.62952779901E+02  0.41800000000E+01 0. -1.
         -5    1    1    2    0  502 -0.50305821569E+02 -0.58463391022E+02 -0.45620551957E+02  0.89707028344E+02  0.41800000000E+01 0. -1.
        -11    1    1    2    0    0 -0.15294268496E+01  0.43022100691E+02  0.28706365498E+02  0.51742590914E+02  0.00000000000E+00 0.  1.
         11    1    1    2    0    0  0.24816223865E+02 -0.27310009863E+02 -0.84066517205E+01  0.37846444995E+02  0.00000000000E+00 0. -1.
</event>
<event>
 6    1  0.6597032E-006  0.1850666E+03  0.7561462E-02  0.1162988E+00
         -1   -1    0    0    0  501 -0.00000000000E+00  0.00000000000E+00  0.57983466691E+03  0.57983466691E+03  0.00000000000E+00 0.  1.
          1   -1    0    0  501    0  0.00000000000E+00 -0.00000000000E+00 -0.63021969165E+02  0.63021969165E+02  0.00000000000E+00 0. -1.
          5    1    1    2  502    0  0.50893606008E+01  0.17364974403E+03  0.23703060198E+03  0.29390664142E+03  0.41800000000E+01 0.  1.
         -5    1    1    2    0  502 -0.63067683203E+01 -0.18301418434E+02  0.65723819043E+02  0.68642625481E+02  0.41800000000E+01 0.  1.
        -11    1    1    2    0    0 -0.36844113063E+02 -0.36913984602E+02  0.93566819292E+02  0.10712086911E+03  0.00000000000E+00 0.  1.
         11    1    1    2    0    0  0.38061520782E+02 -0.11843434100E+03  0.12049145743E+03  0.17318650007E+03  0.00000000000E+00 0. -1.
</event>
<event>
 6    1  0.6597032E-006  0.1130825E+03  0.7561462E-02  0.1254966E+00
         -1   -1    0    0    0  501 -0.00000000000E+00  0.00000000000E+00  0.13045339171E+03  0.13045339171E+03  0.00000000000E+00 0.  1.
          1   -1    0    0  501    0  0.00000000000E+00 -0.00000000000E+00 -0.20015965167E+03  0.20015965167E+03  0.00000000000E+00 0. -1.
          5    1    1    2  502    0 -0.13379031351E+02 -0.25512374531E+02  0.77793708219E+02  0.83061502349E+02  0.41800000000E+01 0. -1.
         -5    1    1    2    0  502 -0.64270985931E+02 -0.23083851279E+02 -0.36280735110E+02  0.77442804459E+02  0.41800000000E+01 0. -1.
        -11    1    1    2    0    0  0.97565984457E+02  0.47946340691E+02 -0.91817740798E+02  0.14229712026E+03  0.00000000000E+00 0.  1.
         11    1    1    2    0    0 -0.19915967175E+02  0.64988511891E+00 -0.19401492276E+02  0.27811616309E+02  0.00000000000E+00 0. -1.
</event>
<event>
 6    1  0.6597032E-006  0.1047157E+03  0.7561462E-02  0.1270681E+00
         -2   -1    0    0    0  501 -0.00000000000E+00  0.00000000000E+00  0.25430457159E+02  0.25430457159E+02  0.00000000000E+00 0.  1.
          2   -1    0    0  501    0  0.00000000000E+00 -0.00000000000E+00 -0.80727084997E+03  0.80727084997E+03  0.00000000000E+00 0. -1.
          5    1    1    2  502    0  0.24019754264E+02 -0.50523723903E+02 -0.40265367237E+02  0.69053366831E+02  0.41800000000E+01 0.  1.
         -5    1    1    2    0  502  0.24297878462E+02 -0.25206839091E+02 -0.33118985574E+03  0.33306150270E+03  0.41800000000E+01 0.  1.
        -11    1    1    2    0    0  0.20520068917E+02  0.26143935687E+02 -0.47868220217E+02  0.58274738166E+02  0.00000000000E+00 0.  1.
         11    1    1    2    0    0 -0.68837701643E+02  0.49586627308E+02 -0.36251694961E+03  0.37231169942E+03  0.00000000000E+00 0. -1.
</event>
<event>
 6    1  0.6597032E-006  0.1448506E+03  0.7561462E-02  0.1206947E+00
         -1   -1    0    0    0  501 -0.00000000000E+00  0.00000000000E+00  0.52656303831E+03  0.52656303831E+03  0.00000000000E+00 0.  1.
          1   -1    0    0  501    0  0.00000000000E+00 -0.00000000000E+00 -0.71682389625E+02  0.71682389625E+02  0.00000000000E+00 0. -1.
          5    1    1    2  502    0  0.27772597843E+02 -0.69130227907E+02  0.33877044526E+03  0.34689075021E+03  0.41800000000E+01 0.  1.
         -5    1    1    2    0  502  0.57832511658E+02 -0.26309800971E+02  0.49313610775E+02  0.80536387052E+02  0.41800000000E+01 0.  1.
        -11    1    1    2    0    0 -0.42871359910E+02  0.99639184475E+02  0.67709428048E+02  0.12786902373E+03  0.00000000000E+00 0.  1.
         11    1    1    2    0    0 -0.42733749590E+02 -0.41991555979E+01 -0.91283540312E+00  0.42949266934E+02  0.00000000000E+00 0. -1.
</event>
<event>
 6    1  0.6597032E-006  0.1247542E+03  0.7561462E-02  0.1235454E+00
         -2   -1    0    0    0  501 -0.00000000000E+00  0.00000000000E+00  0.16617269614E+02  0.16617269614E+02  0.00000000000E+00 0.  1.
          2   -1    0    0  501    0  0.00000000000E+00 -0.00000000000E+00 -0.10786525550E+04  0.10786525550E+04  0.00000000000E+00 0. -1.
          5    1    1    2  502    0  0.17851972033E+02  0.87258386057E+02 -0.42875529372E+03  0.43792841097E+03  0.41800000000E+01 0. -1.
         -5    1    1    2    0  502  0.41615524998E+02 -0.37077989126E+02 -0.18498820802E+03  0.19324786856E+03  0.41800000000E+01 0. -1.
        -11    1    1    2    0    0 -0.64020540972E+02 -0.10941485543E+02 -0.37731989968E+03  0.38286897559E+03  0.00000000000E+00 0. -1.
         11    1    1    2    0    0  0.45530439408E+01 -0.39238911388E+02 -0.70971883997E+02  0.81224569522E+02  0.00000000000E+00 0.  1.
</event>
<event>
 6    1  0.6597032E-006  0.1357245E+03  0.7561462E-02  0.1219201E+00
          2   -1    0    0  501    0  0.00000000000E+00  0.00000000000E+00  0.38375766504E+03  0.38375766504E+03  0.00000000000E+00 0. -1.
         -2   -1    0    0    0  501 -0.00000000000E+00 -0.00000000000E+00 -0.58918881380E+02  0.58918881380E+02  0.00000000000E+00 0.  1.
          5    1    1    2  502    0  0.22914391005E+02 -0.67315581882E+02  0.21472770636E+02  0.74397642153E+02  0.41800000000E+01 0. -1.
         -5    1    1    2    0  502 -0.74462456920E+02 -0.96508785857E+01  0.88783493336E+02  0.11635195760E+03  0.41800000000E+01 0. -1.
        -11    1    1    2    0    0  0.74516146898E+02  0.66093247209E+02  0.19783096910E+03  0.22149055467E+03  0.00000000000E+00 0. -1.
         11    1    1    2    0    0 -0.22968080983E+02  0.10873213258E+02  0.16751550594E+02  0.30436391999E+02  0.00000000000E+00 0.  1.
</event>
<event>
 6    1  0.6597032E-006  0.1242692E+03  0.7561462E-02  0.1236216E+00
         -1   -1    0    0    0  501 -0.00000000000E+00  0.00000000000E+00  0.41020975875E+03  0.41020975875E+03  0.00000000000E+00 0.  1.
          1   -1    0    0  501    0  0.00000000000E+00 -0.00000000000E+00 -0.43614833007E+02  0.43614833007E+02  0.00000000000E+00 0. -1.
          5    1    1    2  502    0 -0.78074015480E+02  0.62162004114E+02  0.17359113967E+03  0.20027736473E+03  0.41800000000E+01 0.  1.
         -5    1    1    2    0  502 -0.36449682424E+01 -0.41726627612E+02  0.24559254860E+02  0.48734245092E+02  0.41800000000E+01 0.  1.
        -11    1    1    2    0    0  0.86568010983E+02 -0.10476379047E+01  0.16222848201E+03  0.18388365465E+03  0.00000000000E+00 0.  1.
         11    1    1    2    0    0 -0.48490272611E+01 -0.19387738597E+02  0.62160492000E+01  0.20929327293E+02  0.00000000000E+00 0. -1.
</event>
<event>
 6    1  0.7318859E-006  0.2074446E+03  0.7561462E-02  0.1143606E+00
          2   -1    0    0  501    0  0.00000000000E+00  0.00000000000E+00  0.35539900755E+03  0.35539900755E+03  0.00000000000E+00 0. -1.
         -2   -1    0    0    0  501 -0.00000000000E+00 -0.00000000000E+00 -0.13727134604E+03  0.13727134604E+03  0.00000000000E+00 0.  1.
          5    1    1    2  502    0 -0.12582167053E+03 -0.36888316483E+02  0.18462281413E+01  0.13119726227E+03  0.41800000000E+01 0.  1.
         -5    1    1    2    0  502 -0.36173965116E+02 -0.63974594315E+02  0.86252598148E+02  0.11339438944E+03  0.41800000000E+01 0.  1.
        -11    1    1    2    0    0  0.14520426008E+03  0.45388837795E+02  0.82120250441E+02  0.17288192292E+03  0.00000000000E+00 0.  1.
         11    1    1    2    0    0  0.16791375570E+02  0.55474073004E+02  0.47908584789E+02  0.75196778958E+02  0.00000000000E+00 0. -1.
</event>
<event>
 6    1  0.6597032E-006  0.9544792E+02  0.7561462E-02  0.1290170E+00
          1   -1    0    0  501    0  0.00000000000E+00  0.00000000000E+00  0.68209137126E+02  0.68209137126E+02  0.00000000000E+00 0. -1.
         -1   -1    0    0    0  501 -0.00000000000E+00 -0.00000000000E+00 -0.17160295262E+03  0.17160295262E+03  0.00000000000E+00 0.  1.
          5    1    1    2  502    0 -0.16585524508E+00  0.57163392493E+02  0.27796063845E+01  0.57383617531E+02  0.41800000000E+01 0.  1.
         -5    1    1    2    0  502  0.26522498968E+01 -0.51710658095E+02 -0.62774422886E+02  0.81480839212E+02  0.41800000000E+01 0.  1.
        -11    1    1    2    0    0 -0.40367889150E+02  0.85182049024E+01 -0.44334235725E+02  0.60561132309E+02  0.00000000000E+00 0.  1.
         11    1    1    2    0    0  0.37881494498E+02 -0.13970939301E+02  0.93523673464E+00  0.40386500692E+02  0.00000000000E+00 0. -1.
</event>
<event>
 6    1  0.6597032E-006  0.1480941E+03  0.7561462E-02  0.1202835E+00
          1   -1    0    0  501    0  0.00000000000E+00  0.00000000000E+00  0.26564365451E+03  0.26564365451E+03  0.00000000000E+00 0. -1.
         -1   -1    0    0    0  501 -0.00000000000E+00 -0.00000000000E+00 -0.13698440587E+03  0.13698440587E+03  0.00000000000E+00 0.  1.
          5    1    1    2  502    0  0.11803813402E+02  0.14736181042E+02 -0.50860081551E+02  0.54412363833E+02  0.41800000000E+01 0.  1.
         -5    1    1    2    0  502  0.86769565407E+02  0.90766596501E+02  0.53732482508E+02  0.13664620228E+03  0.41800000000E+01 0.  1.
        -11    1    1    2    0    0 -0.70829506873E+02 -0.43080973562E+02  0.19402823038E+02  0.85142579646E+02  0.00000000000E+00 0.  1.
         11    1    1    2    0    0 -0.27743871935E+02 -0.62421803982E+02  0.10638402464E+03  0.12642691462E+03  0.00000000000E+00 0. -1.
</event>
<event>
 6    1  0.6597032E-006  0.1022215E+03  0.7561462E-02  0.1275693E+00
         -3   -1    0    0    0  501 -0.00000000000E+00  0.00000000000E+00  0.27302805127E+02  0.27302805127E+02  0.00000000000E+00 0.  1.
          3   -1    0    0  501    0  0.00000000000E+00 -0.00000000000E+00 -0.48396245165E+03  0.48396245165E+03  0.00000000000E+00 0. -1.
          5    1    1    2  502    0 -0.62087443072E+01  0.55632465279E+02 -0.14543665100E+03  0.15589359048E+03  0.41800000000E+01 0. -1.
         -5    1    1    2    0  502 -0.17231917093E+02 -0.53962465817E+02 -0.41871821749E+02  0.70566341412E+02  0.41800000000E+01 0. -1.
        -11    1    1    2    0    0  0.56823905404E+02  0.63429637521E+01 -0.14698292013E+03  0.15771229573E+03  0.00000000000E+00 0.  1.
         11    1    1    2    0    0 -0.33383244003E+02 -0.80129632147E+01 -0.12236825365E+03  0.12709302916E+03  0.00000000000E+00 0. -1.
</event>
<event>
 6    1  0.6597032E-006  0.9048190E+02  0.7561462E-02  0.1301689E+00
          2   -1    0    0  501    0  0.00000000000E+00  0.00000000000E+00  0.20429154066E+02  0.20429154066E+02  0.00000000000E+00 0. -1.
         -2   -1    0    0    0  501 -0.00000000000E+00 -0.00000000000E+00 -0.78791495082E+03  0.78791495082E+03  0.00000000000E+00 0.  1.
          5    1    1    2  502    0  0.59514250049E+02  0.28896590799E+02 -0.20398037471E+03  0.21448175816E+03  0.41800000000E+01 0. -1.
         -5    1    1    2    0  502 -0.41287881533E+02 -0.15384724277E+02 -0.41952162448E+03  0.42184978927E+03  0.41800000000E+01 0. -1.
        -11    1    1    2    0    0 -0.23515184525E+02  0.23371330796E+02 -0.12633145534E+02  0.35479280890E+02  0.00000000000E+00 0. -1.
         11    1    1    2    0    0  0.52888160092E+01 -0.36883197318E+02 -0.13135065203E+03  0.13653327656E+03  0.00000000000E+00 0.  1.
</event>
<event>
 6    1  0.6597032E-006  0.2660774E+03  0.7561462E-02  0.1103546E+00
          2   -1    0    0  501    0  0.00000000000E+00  0.00000000000E+00  0.73132992102E+03  0.73132992102E+03  0.00000000000E+00 0. -1.
         -2   -1    0    0    0  501 -0.00000000000E+00 -0.00000000000E+00 -0.11625058119E+03  0.11625058119E+03  0.00000000000E+00 0.  1.
          5    1    1    2  502    0  0.85323278080E+01  0.17629526534E+03  0.19807657831E+03  0.26533869766E+03  0.41800000000E+01 0.  1.
         -5    1    1    2    0  502  0.17731188498E+02  0.80421849930E+02 -0.12772511025E+01  0.82469223120E+02  0.41800000000E+01 0.  1.
        -11    1    1    2    0    0  0.28973650871E+02 -0.39334986510E+02  0.85259777024E+02  0.98264658890E+02  0.00000000000E+00 0.  1.
         11    1    1    2    0    0 -0.55237167177E+02 -0.21738212876E+03  0.33302023560E+03  0.40150792254E+03  0.00000000000E+00 0. -1.
</event>
<event>
 6    1  0.6597032E-006  0.9054527E+02  0.7561462E-02  0.1301537E+00
         -3   -1    0    0    0  501 -0.00000000000E+00  0.00000000000E+00  0.14493410955E+03  0.14493410955E+03  0.00000000000E+00 0.  1.
          3   -1    0    0  501    0  0.00000000000E+00 -0.00000000000E+00 -0.17637007685E+03  0.17637007685E+03  0.00000000000E+00 0. -1.
          5    1    1    2  502    0 -0.12004534509E+02  0.82844234438E+01 -0.32978515653E+02  0.36301451972E+02  0.41800000000E+01 0.  1.
         -5    1    1    2    0  502 -0.10759604234E+01  0.58508626759E+02  0.11231208586E+03  0.12671185472E+03  0.41800000000E+01 0.  1.
        -11    1    1    2    0    0 -0.34911737118E+02 -0.36440291334E+02 -0.27411940116E+02  0.57429423487E+02  0.00000000000E+00 0.  1.
         11    1    1    2    0    0  0.47992232051E+02 -0.30352758869E+02 -0.83357597390E+02  0.10086145622E+03  0.00000000000E+00 0. -1.
</event>
<event>
 6    1  0.6597032E-006  0.9997638E+02  0.7561462E-02  0.1280346E+00
          1   -1    0    0  501    0  0.00000000000E+00  0.00000000000E+00  0.52860276886E+02  0.52860276886E+02  0.00000000000E+00 0.  1.
         -1   -1    0    0    0  501 -0.00000000000E+00 -0.00000000000E+00 -0.22040275252E+03  0.22040275252E+03  0.00000000000E+00 0. -1.
          5    1    1    2  502    0 -0.59797071681E+02  0.45782423581E+01 -0.92643848974E+02  0.11044005269E+03  0.41800000000E+01 0. -1.
         -5    1    1    2    0  502  0.49554266954E+02 -0.10568624350E+02 -0.10662763308E+02  0.51946974073E+02  0.41800000000E+01 0. -1.
        -11    1    1    2    0    0  0.87861741746E+01  0.47072972193E+02 -0.24871220204E+02  0.53959606764E+02  0.00000000000E+00 0.  1.
         11    1    1    2    0    0  0.14566305529E+01 -0.41082590201E+02 -0.39364643150E+02  0.56916395885E+02  0.00000000000E+00 0. -1.
</event>
<event>
 6    1  0.6597032E-006  0.8957026E+02  0.7561462E-02  0.1303896E+00
         -1   -1    0    0    0  501 -0.00000000000E+00  0.00000000000E+00  0.27008385313E+03  0.27008385313E+03  0.00000000000E+00 0.  1.
          1   -1    0    0  501    0  0.00000000000E+00 -0.00000000000E+00 -0.44824301115E+02  0.44824301115E+02  0.00000000000E+00 0. -1.
          5    1    1    2  502    0  0.36249766274E+02  0.91060469474E+01  0.13329100539E+03  0.13849523517E+03  0.41800000000E+01 0. -1.
         -5    1    1    2    0  502 -0.44187701902E+02 -0.23236592745E+02  0.77067057097E+01  0.50688834616E+02  0.41800000000E+01 0. -1.
        -11    1    1    2    0    0 -0.39999942558E+02 -0.39571676077E+01  0.49701466052E+02  0.63920969235E+02  0.00000000000E+00 0.  1.
         11    1    1    2    0    0  0.47937878187E+02  0.18087713406E+02  0.34560374864E+02  0.61803115229E+02  0.00000000000E+00 0. -1.
</event>
<event>
 6    1  0.6597032E-006  0.1226950E+03  0.7561462E-02  0.1238716E+00
         -1   -1    0    0    0  501 -0.00000000000E+00  0.00000000000E+00  0.21630046158E+02  0.21630046158E+02  0.00000000000E+00 0.  1.
          1   -1    0    0  501    0  0.00000000000E+00 -0.00000000000E+00 -0.81862087551E+03  0.81862087551E+03  0.00000000000E+00 0. -1.
          5    1    1    2  502    0  0.64861441550E+01  0.93055500032E+02 -0.16406785735E+03  0.18877799228E+03  0.41800000000E+01 0. -1.
         -5    1    1    2    0  502 -0.25748893013E+02 -0.33078129681E+02 -0.13585394989E+03  0.14223549576E+03  0.41800000000E+01 0. -1.
        -11    1    1    2    0    0  0.55473788263E+02 -0.31280743275E+02 -0.25793222082E+03  0.26567810715E+03  0.00000000000E+00 0.  1.
         11    1    1    2    0    0 -0.36211039405E+02 -0.28696627076E+02 -0.23913680129E+03  0.24355932647E+03  0.00000000000E+00 0. -1.
</event>
<event>
 6    1  0.6597032E-006  0.1053874E+03  0.7561462E-02  0.1269358E+00
          1   -1    0    0  501    0  0.00000000000E+00  0.00000000000E+00  0.36166230241E+03  0.36166230241E+03  0.00000000000E+00 0. -1.
         -1   -1    0    0    0  501 -0.00000000000E+00 -0.00000000000E+00 -0.33967011944E+02  0.33967011944E+02  0.00000000000E+00 0.  1.
          5    1    1    2  502    0 -0.47781893684E+02 -0.10873815770E+02  0.11484124754E+03  0.12492931509E+03  0.41800000000E+01 0.  1.
         -5    1    1    2    0  502  0.66573128034E+02  0.92866532245E+01  0.55642391341E+02  0.87360010408E+02  0.41800000000E+01 0.  1.
        -11    1    1    2    0    0 -0.11083925392E+01 -0.44690739432E+02  0.78437444782E+02  0.90282464903E+02  0.00000000000E+00 0. -1.
         11    1    1    2    0    0 -0.17682841811E+02  0.46277901977E+02  0.78774206806E+02  0.93057523951E+02  0.00000000000E+00 0.  1.
</event>
<event>
 6    1  0.6597032E-006  0.2579279E+03  0.7561462E-02  0.1108395E+00
         -2   -1    0    0    0  501 -0.00000000000E+00  0.00000000000E+00  0.19839649914E+03  0.19839649914E+03  0.00000000000E+00 0.  1.
          2   -1    0    0  501    0  0.00000000000E+00 -0.00000000000E+00 -0.36747123070E+03  0.36747123070E+03  0.00000000000E+00 0. -1.
          5    1    1    2  502    0  0.30671966204E+02  0.74314049339E+01  0.24291903098E+02  0.40044528293E+02  0.41800000000E+01 0.  1.
         -5    1    1    2    0  502  0.13979582713E+03 -0.18135562902E+03 -0.54348421741E+02  0.23538045970E+03  0.41800000000E+01 0.  1.
        -11    1    1    2    0    0 -0.72276438307E+02  0.24722981130E+02 -0.40418346586E+02  0.86421942069E+02  0.00000000000E+00 0. -1.
         11    1    1    2    0    0 -0.98191355029E+02  0.14920124296E+03 -0.98599866329E+02  0.20402079978E+03  0.00000000000E+00 0.  1.
</event>
<event>
 6    1  0.6597032E-006  0.1097213E+03  0.7561462E-02  0.1261087E+00
         -2   -1    0    0    0  501 -0.00000000000E+00  0.00000000000E+00  0.15269804034E+03  0.15269804034E+03  0.00000000000E+00 0.  1.
          2   -1    0    0  501    0  0.00000000000E+00 -0.00000000000E+00 -0.80559294740E+02  0.80559294740E+02  0.00000000000E+00 0. -1.
          5    1    1    2  502    0  0.45760676586E+02  0.30701808645E+02  0.22051874410E+02  0.59501244866E+02  0.41800000000E+01 0.  1.
         -5    1    1    2    0  502 -0.39691472609E+02 -0.61887053211E+02  0.21579643512E+02  0.76737042991E+02  0.41800000000E+01 0.  1.
        -11    1    1    2    0    0  0.33031588255E+02 -0.92374237643E+01  0.76026940024E+00  0.34307343675E+02  0.00000000000E+00 0. -1.
         11    1    1    2    0    0 -0.39100792232E+02  0.40422668330E+02  0.27746958277E+02  0.62711703547E+02  0.00000000000E+00 0.  1.
</event>
<event>
 6    1  0.6871976E-006  0.2814185E+03  0.7561462E-02  0.1094917E+00
         -1   -1    0    0    0  501 -0.00000000000E+00  0.00000000000E+00  0.48323735450E+03  0.48323735450E+03  0.00000000000E+00 0.  1.
          1   -1    0    0  501    0  0.00000000000E+00 -0.00000000000E+00 -0.18693003899E+03  0.18693003899E+03  0.00000000000E+00 0. -1.
          5    1    1    2  502    0 -0.51083519628E+02 -0.70978692281E+02  0.43055724772E+01  0.87655639236E+02  0.41800000000E+01 0. -1.
         -5    1    1    2    0  502 -0.13248593520E+03 -0.13197489865E+03  0.21317535997E+03  0.28360377889E+03  0.41800000000E+01 0. -1.
        -11    1    1    2    0    0  0.48060327258E+02  0.49640157538E+01  0.16000852077E+02  0.50896598863E+02  0.00000000000E+00 0. -1.
         11    1    1    2    0    0  0.13550912757E+03  0.19798957518E+03  0.62825530987E+02  0.24801137651E+03  0.00000000000E+00 0.  1.
</event>
<event>
 6    1  0.6597032E-006  0.1083901E+03  0.7561462E-02  0.1263581E+00
         -2   -1    0    0    0  501 -0.00000000000E+00  0.00000000000E+00  0.16314849565E+03  0.16314849565E+03  0.00000000000E+00 0.  1.
          2   -1    0    0  501    0  0.00000000000E+00 -0.00000000000E+00 -0.89810791831E+02  0.89810791831E+02  0.00000000000E+00 0. -1.
          5    1    1    2  502    0 -0.39017472163E+02 -0.17661972920E+01 -0.43187376623E+01  0.39517166926E+02  0.41800000000E+01 0. -1.
         -5    1    1    2    0  502  0.87997064848E+02  0.26353375498E+02  0.48885278298E+02  0.10414041798E+03  0.41800000000E+01 0. -1.
        -11    1    1    2    0    0 -0.16239394053E+02  0.22773472594E+02  0.41776524975E+02  0.50275511058E+02  0.00000000000E+00 0.  1.
         11    1    1    2    0    0 -0.32740198632E+02 -0.47360650799E+02 -0.13005361789E+02  0.59026191524E+02  0.00000000000E+00 0. -1.
</event>
<event>
 6    1  0.6597032E-006  0.1002821E+03  0.7561462E-02  0.1279704E+00
          2   -1    0    0  501    0  0.00000000000E+00  0.00000000000E+00  0.26155953766E+03  0.26155953766E+03  0.00000000000E+00 0. -1.
         -2   -1    0    0    0  501 -0.00000000000E+00 -0.00000000000E+00 -0.57124635322E+02  0.57124635322E+02  0.00000000000E+00 0.  1.
          5    1    1    2  502    0 -0.24027931052E+02  0.56494059566E+02  0.78181665111E+02  0.99492539401E+02  0.41800000000E+01 0. -1.
         -5    1    1    2    0  502  0.26288074782E+02 -0.31919369461E+02 -0.13207565676E+02  0.43609875184E+02  0.41800000000E+01 0. -1.
        -11    1    1    2    0    0  0.46020522829E+02 -0.11024995994E+02  0.10371016153E+03  0.11399665198E+03  0.00000000000E+00 0.  1.
         11    1    1    2    0    0 -0.48280666558E+02 -0.13549694111E+02  0.35750641374E+02  0.61585106418E+02  0.00000000000E+00 0. -1.
</event>
<event>
 6    1  0.6597032E-006  0.1747665E+03  0.7561462E-02  0.1172966E+00
          2   -1    0    0  501    0  0.00000000000E+00  0.00000000000E+00  0.98673334671E+03  0.98673334671E+03  0.00000000000E+00 0. -1.
         -2   -1    0    0    0  501 -0.00000000000E+00 -0.00000000000E+00 -0.34251871873E+02  0.34251871873E+02  0.00000000000E+00 0.  1.
          5    1    1    2  502    0  0.14158256077E+02 -0.18351846282E+01  0.15260033678E+03  0.15332370757E+03  0.41800000000E+01 0.  1.
         -5    1    1    2    0  502 -0.14505865031E+03  0.69406535361E+02  0.35176137788E+03  0.38679816255E+03  0.41800000000E+01 0.  1.
        -11    1    1    2    0    0  0.10443270732E+03 -0.35223886448E+01  0.28884891886E+03  0.30716818766E+03  0.00000000000E+00 0. -1.
         11    1    1    2    0    0  0.26467686920E+02 -0.64048962088E+02  0.15927084132E+03  0.17369516081E+03  0.00000000000E+00 0.  1.
</event>
<event>
 6    1  0.6597032E-006  0.9530689E+02  0.7561462E-02  0.1290486E+00
         -1   -1    0    0    0  501 -0.00000000000E+00  0.00000000000E+00  0.85780583080E+03  0.85780583080E+03  0.00000000000E+00 0.  1.
          1   -1    0    0  501    0  0.00000000000E+00 -0.00000000000E+00 -0.25959796500E+02  0.25959796500E+02  0.00000000000E+00 0. -1.
          5    1    1    2  502    0  0.29735845788E+02 -0.39833250738E+02  0.19201799388E+03  0.19839176082E+03  0.41800000000E+01 0. -1.
         -5    1    1    2    0  502 -0.48464646645E+02  0.41972049682E+02  0.58676980269E+03  0.59027684071E+03  0.41800000000E+01 0.  1.
        -11    1    1    2    0    0 -0.19626338658E+02  0.23294012957E+02  0.99618795047E+01  0.32047515535E+02  0.00000000000E+00 0.  1.
         11    1    1    2    0    0  0.38355139514E+02 -0.25432811900E+02  0.43096358229E+02  0.63049510235E+02  0.00000000000E+00 0. -1.
</event>
<event>
 6    1  0.6597032E-006  0.2392532E+03  0.7561462E-02  0.1120291E+00
         -2   -1    0    0    0  501 -0.00000000000E+00  0.00000000000E+00  0.16228067685E+03  0.16228067685E+03  0.00000000000E+00 0. -1.
          2   -1    0    0  501    0  0.00000000000E+00 -0.00000000000E+00 -0.42112035440E+03  0.42112035440E+03  0.00000000000E+00 0.  1.
          5    1    1    2  502    0 -0.73759025513E+02  0.17594195598E+02  0.34451147553E+02  0.83392466873E+02  0.41800000000E+01 0. -1.
         -5    1    1    2    0  502 -0.15561715127E+03 -0.25699744833E+02 -0.97594827244E+02  0.18552465431E+03  0.41800000000E+01 0. -1.
        -11    1    1    2    0    0  0.17318816081E+03  0.43252299863E+02 -0.12732829124E+03  0.21926557924E+03  0.00000000000E+00 0.  1.
         11    1    1    2    0    0  0.56188015973E+02 -0.35146750628E+02 -0.68367706614E+02  0.95218330832E+02  0.00000000000E+00 0. -1.
</event>
<event>
 6    1  0.8073969E-006  0.1797199E+03  0.7561462E-02  0.1168074E+00
          2   -1    0    0  501    0  0.00000000000E+00  0.00000000000E+00  0.38904012600E+03  0.38904012600E+03  0.00000000000E+00 0. -1.
         -2   -1    0    0    0  501 -0.00000000000E+00 -0.00000000000E+00 -0.95879203630E+02  0.95879203630E+02  0.00000000000E+00 0.  1.
          5    1    1    2  502    0 -0.64006971332E+02 -0.24146375550E+02  0.12070613050E+02  0.69592470359E+02  0.41800000000E+01 0.  1.
         -5    1    1    2    0  502 -0.76233624827E+02  0.96692250915E+02  0.11530415004E+03  0.16874085563E+03  0.41800000000E+01 0.  1.
        -11    1    1    2    0    0  0.93639383203E+02 -0.16955586914E+02  0.44019537710E+02  0.10485011070E+03  0.00000000000E+00 0.  1.
         11    1    1    2    0    0  0.46601212956E+02 -0.55590288451E+02  0.12176662157E+03  0.14173589294E+03  0.00000000000E+00 0. -1.
</event>
<event>
 6    1  0.6597032E-006  0.7793636E+02  0.7561462E-02  0.1335012E+00
          1   -1    0    0  501    0  0.00000000000E+00  0.00000000000E+00  0.19330660707E+03  0.19330660707E+03  0.00000000000E+00 0. -1.
         -1   -1    0    0    0  501 -0.00000000000E+00 -0.00000000000E+00 -0.82997797138E+02  0.82997797138E+02  0.00000000000E+00 0.  1.
          5    1    1    2  502    0 -0.13114374759E+02 -0.14015051980E+02 -0.41009149943E+02  0.45471213821E+02  0.41800000000E+01 0.  1.
         -5    1    1    2    0  502 -0.47090181322E+02 -0.84239562749E+01  0.92606126342E+02  0.10431593959E+03  0.41800000000E+01 0.  1.
        -11    1    1    2    0    0  0.66120492578E+02  0.11683119631E+01  0.74317594546E+02  0.99480597861E+02  0.00000000000E+00 0. -1.
         11    1    1    2    0    0 -0.59159364972E+01  0.21270696292E+02 -0.15605761011E+02  0.27036652938E+02  0.00000000000E+00 0.  1.
</event>
<event>
 6    1  0.6597032E-006  0.8837880E+02  0.7561462E-02  0.1306826E+00
         -2   -1    0    0    0  501 -0.00000000000E+00  0.00000000000E+00  0.71519119460E+02  0.71519119460E+02  0.00000000000E+00 0.  1.
          2   -1    0    0  501    0  0.00000000000E+00 -0.00000000000E+00 -0.20930740007E+03  0.20930740007E+03  0.00000000000E+00 0. -1.
          5    1    1    2  502    0 -0.14279171904E+02  0.46443635629E+02 -0.49901112662E+02  0.69774633540E+02  0.41800000000E+01 0.  1.
         -5    1    1    2    0  502  0.33748064430E+02 -0.36169509717E+02  0.31166860832E+02  0.58617496535E+02  0.41800000000E+01 0.  1.
        -11    1    1    2    0    0 -0.47975569925E+02  0.19387567511E+00 -0.26037501710E+02  0.54586119048E+02  0.00000000000E+00 0.  1.
         11    1    1    2    0    0  0.28506677399E+02 -0.10468001587E+02 -0.93016527071E+02  0.97848270409E+02  0.00000000000E+00 0. -1.
</event>
<event>
 6    1  0.6597032E-006  0.1898523E+03  0.7561462E-02  0.1158595E+00
          2   -1    0    0  501    0  0.00000000000E+00  0.00000000000E+00  0.73965528787E+03  0.73965528787E+03  0.00000000000E+00 0. -1.
         -2   -1    0    0    0  501 -0.00000000000E+00 -0.00000000000E+00 -0.58186526695E+02  0.58186526695E+02  0.00000000000E+00 0.  1.
          5    1    1    2  502    0 -0.87000330991E+01 -0.59205804910E+02  0.23354616832E+02  0.64373351927E+02  0.41800000000E+01 0. -1.
         -5    1    1    2    0  502  0.49665873299E+02 -0.11400441595E+03  0.30617488489E+03  0.33049090512E+03  0.41800000000E+01 0. -1.
        -11    1    1    2    0    0  0.21676493697E+02  0.18921115593E+02  0.38665840386E+02  0.48196744777E+02  0.00000000000E+00 0.  1.
         11    1    1    2    0    0 -0.62642333897E+02  0.15428910526E+03  0.31327341906E+03  0.35478081274E+03  0.00000000000E+00 0. -1.
</event>
<event>
 6    1  0.6597032E-006  0.1048023E+03  0.7561462E-02  0.1270510E+00
          3   -1    0    0  501    0  0.00000000000E+00  0.00000000000E+00  0.58295364446E+03  0.58295364446E+03  0.00000000000E+00 0. -1.
         -3   -1    0    0    0  501 -0.00000000000E+00 -0.00000000000E+00 -0.32376418696E+02  0.32376418696E+02  0.00000000000E+00 0.  1.
          5    1    1    2  502    0 -0.90699292912E+01 -0.17908196769E+02  0.14277077707E+03  0.14423569015E+03  0.41800000000E+01 0.  1.
         -5    1    1    2    0  502  0.74876793588E+02  0.19702221204E+02  0.41273062772E+02  0.87838771900E+02  0.41800000000E+01 0.  1.
        -11    1    1    2    0    0  0.87088311197E+01  0.29487296028E+02  0.11631231281E+03  0.12030751630E+03  0.00000000000E+00 0. -1.
         11    1    1    2    0    0 -0.74515695417E+02 -0.31281320463E+02  0.25022107312E+03  0.26294808481E+03  0.00000000000E+00 0.  1.
</event>
<event>
 6    1  0.6597032E-006  0.1858712E+03  0.7561462E-02  0.1162239E+00
          2   -1    0    0  501    0  0.00000000000E+00  0.00000000000E+00  0.85076747921E+03  0.85076747921E+03  0.00000000000E+00 0. -1.
         -2   -1    0    0    0  501 -0.00000000000E+00 -0.00000000000E+00 -0.73037091749E+02  0.73037091749E+02  0.00000000000E+00 0.  1.
          5    1    1    2  502    0  0.47826260190E+02  0.25023393778E+02  0.72489818326E+02  0.90475231753E+02  0.41800000000E+01 0. -1.
         -5    1    1    2    0  502 -0.65564750388E+02  0.13638598494E+03  0.61649658993E+02  0.16345649646E+03  0.41800000000E+01 0.  1.
        -11    1    1    2    0    0  0.87343932290E+01 -0.61111929692E+01  0.36057039998E+01  0.11253328659E+02  0.00000000000E+00 0.  1.
         11    1    1    2    0    0  0.90040969689E+01 -0.15529818574E+03  0.63998520614E+03  0.65861951409E+03  0.00000000000E+00 0. -1.
</event>
<event>
 6    1  0.6597032E-006  0.9426163E+02  0.7561462E-02  0.1292848E+00
          1   -1    0    0  501    0  0.00000000000E+00  0.00000000000E+00  0.84267928360E+03  0.84267928360E+03  0.00000000000E+00 0. -1.
         -1   -1    0    0    0  501 -0.00000000000E+00 -0.00000000000E+00 -0.13866586831E+02  0.13866586831E+02  0.00000000000E+00 0.  1.
          5    1    1    2  502    0  0.20591898414E+02  0.46463395362E+02  0.95566304071E+02  0.10832019324E+03  0.41800000000E+01 0. -1.
         -5    1    1    2    0  502 -0.77335756071E+01 -0.47240257806E+02  0.40334153717E+03  0.40619369536E+03  0.41800000000E+01 0. -1.
        -11    1    1    2    0    0 -0.17914095919E+02 -0.42388251548E+02  0.14699767843E+03  0.15403245166E+03  0.00000000000E+00 0.  1.
         11    1    1    2    0    0  0.50557731122E+01  0.43165113992E+02  0.18290717711E+03  0.18799953017E+03  0.00000000000E+00 0. -1.
</event>
<event>
 6    1  0.6597032E-006  0.1152210E+03  0.7561462E-02  0.1251196E+00
         -2   -1    0    0    0  501 -0.00000000000E+00  0.00000000000E+00  0.16182349590E+03  0.16182349590E+03  0.00000000000E+00 0.  1.
          2   -1    0    0  501    0  0.00000000000E+00 -0.00000000000E+00 -0.19420151141E+03  0.19420151141E+03  0.00000000000E+00 0. -1.
          5    1    1    2  502    0  0.81813784763E+01  0.64054378826E+02  0.33440810571E+02  0.72839952033E+02  0.41800000000E+01 0.  1.
         -5    1    1    2    0  502  0.49079588823E+02 -0.49766577614E+02  0.77701782666E+02  0.10459712097E+03  0.41800000000E+01 0.  1.
        -11    1    1    2    0    0 -0.71167472134E+02  0.56620261738E+01 -0.65578729613E+02  0.96940380688E+02  0.00000000000E+00 0.  1.
         11    1    1    2    0    0  0.13906504834E+02 -0.19949827386E+02 -0.77941879133E+02  0.81647553621E+02  0.00000000000E+00 0. -1.
</event>
<event>
 6    1  0.6597032E-006  0.1711595E+03  0.7561462E-02  0.1176644E+00
          2   -1    0    0  501    0  0.00000000000E+00  0.00000000000E+00  0.92242658475E+03  0.92242658475E+03  0.00000000000E+00 0. -1.
         -2   -1    0    0    0  501 -0.00000000000E+00 -0.00000000000E+00 -0.40220657312E+02  0.40220657312E+02  0.00000000000E+00 0.  1.
          5    1    1    2  502    0 -0.10458551632E+03  0.63479444391E+02  0.33209503457E+03  0.35393834841E+03  0.41800000000E+01 0. -1.
         -5    1    1    2    0  502 -0.17163325334E+01  0.46194698613E+02  0.21758620998E+02  0.51262129931E+02  0.41800000000E+01 0. -1.
        -11    1    1    2    0    0  0.16725093131E+02 -0.75958071148E+02  0.29842397534E+03  0.30839297393E+03  0.00000000000E+00 0. -1.
         11    1    1    2    0    0  0.89576755720E+02 -0.33716071857E+02  0.22992829653E+03  0.24905378979E+03  0.00000000000E+00 0.  1.
</event>
<event>
 6    1  0.6597032E-006  0.1658691E+03  0.7561462E-02  0.1182225E+00
          1   -1    0    0  501    0  0.00000000000E+00  0.00000000000E+00  0.28354887052E+03  0.28354887052E+03  0.00000000000E+00 0. -1.
         -1   -1    0    0    0  501 -0.00000000000E+00 -0.00000000000E+00 -0.11515846385E+03  0.11515846385E+03  0.00000000000E+00 0.  1.
          5    1    1    2  502    0  0.19347268934E+02  0.22177245513E+01 -0.13334487636E+02  0.23969065019E+02  0.41800000000E+01 0.  1.
         -5    1    1    2    0  502 -0.12474944288E+03 -0.97303288235E+02  0.74086762200E+02  0.17474745816E+03  0.41800000000E+01 0.  1.
        -11    1    1    2    0    0  0.25483407547E+02  0.62048181453E+02  0.89136144996E+02  0.11155551634E+03  0.00000000000E+00 0. -1.
         11    1    1    2    0    0  0.79918766399E+02  0.33037382232E+02  0.18501987116E+02  0.88435294847E+02  0.00000000000E+00 0.  1.
</event>
<event>
 6    1  0.6597032E-006  0.2142245E+03  0.7561462E-02  0.1138264E+00
          3   -1    0    0  501    0  0.00000000000E+00  0.00000000000E+00  0.16001178695E+04  0.16001178695E+04  0.00000000000E+00 0. -1.
         -3   -1    0    0    0  501 -0.00000000000E+00 -0.00000000000E+00 -0.31094775080E+02  0.31094775080E+02  0.00000000000E+00 0.  1.
          5    1    1    2  502    0  0.10895977160E+02 -0.73600368436E+01  0.17453084919E+03  0.17507536143E+03  0.41800000000E+01 0.  1.
         -5    1    1    2    0  502  0.63495504268E+01  0.20322771167E+03  0.57968211662E+03  0.61432129078E+03  0.41800000000E+01 0.  1.
        -11    1    1    2    0    0 -0.34457024336E+02 -0.33679365599E+02  0.16971641382E+03  0.17642348855E+03  0.00000000000E+00 0. -1.
         11    1    1    2    0    0  0.17211496749E+02 -0.16218830923E+03  0.64509371483E+03  0.66539250385E+03  0.00000000000E+00 0.  1.
</event>
<event>
 6    1  0.6597032E-006  0.1738030E+03  0.7561462E-02  0.1173939E+00
         -1   -1    0    0    0  501 -0.00000000000E+00  0.00000000000E+00  0.77818092531E+03  0.77818092531E+03  0.00000000000E+00 0.  1.
          1   -1    0    0  501    0  0.00000000000E+00 -0.00000000000E+00 -0.41448091369E+02  0.41448091369E+02  0.00000000000E+00 0. -1.
          5    1    1    2  502    0 -0.13522240903E+03  0.82877929477E+02  0.31072268297E+03  0.34888380474E+03  0.41800000000E+01 0. -1.
         -5    1    1    2    0  502  0.49781555995E+01 -0.25229235595E+02  0.10226613685E+03  0.10553260874E+03  0.41800000000E+01 0. -1.
        -11    1    1    2    0    0  0.10695978928E+03 -0.70416278824E+01  0.16297840843E+03  0.19506907151E+03  0.00000000000E+00 0. -1.
         11    1    1    2    0    0  0.23284464150E+02 -0.50607066000E+02  0.16076560569E+03  0.17014353168E+03  0.00000000000E+00 0.  1.
</event>
<event>
 6    1  0.6597032E-006  0.1608562E+03  0.7561462E-02  0.1187733E+00
         -1   -1    0    0    0  501 -0.00000000000E+00  0.00000000000E+00  0.28186981801E+02  0.28186981801E+02  0.00000000000E+00 0.  1.
          1   -1    0    0  501    0  0.00000000000E+00 -0.00000000000E+00 -0.10261764417E+04  0.10261764417E+04  0.00000000000E+00 0. -1.
          5    1    1    2  502    0  0.28709495164E+02 -0.60521919652E+01 -0.10073343855E+03  0.10500267702E+03  0.41800000000E+01 0.  1.
         -5    1    1    2    0  502 -0.82509951112E+02  0.12094283218E+03 -0.32219523252E+03  0.35392414575E+03  0.41800000000E+01 0.  1.
        -11    1    1    2    0    0  0.67382300159E+01 -0.93791887338E+02 -0.45744086300E+03  0.46700585116E+03  0.00000000000E+00 0.  1.
         11    1    1    2    0    0  0.47062225932E+02 -0.21098752881E+02 -0.11761992589E+03  0.12843074962E+03  0.00000000000E+00 0. -1.
</event>
<event>
 6    1  0.6597032E-006  0.1437505E+03  0.7561462E-02  0.1208370E+00
         -1   -1    0    0    0  501 -0.00000000000E+00  0.00000000000E+00  0.37220520406E+03  0.37220520406E+03  0.00000000000E+00 0.  1.
          1   -1    0    0  501    0  0.00000000000E+00 -0.00000000000E+00 -0.67006349327E+02  0.67006349327E+02  0.00000000000E+00 0. -1.
          5    1    1    2  502    0  0.59745350508E+02  0.62584685872E+02  0.12654923458E+03  0.15335752667E+03  0.41800000000E+01 0.  1.
         -5    1    1    2    0  502  0.55337028577E+02 -0.53825743864E+02  0.51132813838E+02  0.92689991289E+02  0.41800000000E+01 0.  1.
        -11    1    1    2    0    0 -0.10566019123E+03  0.62499710556E+01  0.13695266002E+03  0.17308717236E+03  0.00000000000E+00 0.  1.
         11    1    1    2    0    0 -0.94221878570E+01 -0.15008913063E+02 -0.94358537100E+01  0.20076863067E+02  0.00000000000E+00 0. -1.
</event>
<event>
 6    1  0.6597032E-006  0.8817292E+02  0.7561462E-02  0.1307338E+00
          1   -1    0    0  501    0  0.00000000000E+00  0.00000000000E+00  0.33615057586E+02  0.33615057586E+02  0.00000000000E+00 0. -1.
         -1   -1    0    0    0  501 -0.00000000000E+00 -0.00000000000E+00 -0.47758035309E+03  0.47758035309E+03  0.00000000000E+00 0.  1.
          5    1    1    2  502    0  0.10159388551E+01 -0.80688490056E+02 -0.30961954070E+03  0.31998968256E+03  0.41800000000E+01 0.  1.
         -5    1    1    2    0  502 -0.48656105603E+01  0.25225006850E+02 -0.10309615853E+02  0.27995280241E+02  0.41800000000E+01 0.  1.
        -11    1    1    2    0    0  0.22497340875E+02  0.36799702104E+02 -0.12930267905E+03  0.13630675416E+03  0.00000000000E+00 0.  1.
         11    1    1    2    0    0 -0.18647669169E+02  0.18663781101E+02  0.52665401047E+01  0.26903693708E+02  0.00000000000E+00 0. -1.
</event>
<event>
 6    1  0.6597032E-006  0.9311081E+02  0.7561462E-02  0.1295489E+00
          3   -1    0    0  501    0  0.00000000000E+00  0.00000000000E+00  0.13835639926E+03  0.13835639926E+03  0.00000000000E+00 0. -1.
         -3   -1    0    0    0  501 -0.00000000000E+00 -0.00000000000E+00 -0.95831885894E+02  0.95831885894E+02  0.00000000000E+00 0.  1.
          5    1    1    2  502    0  0.55024880489E+02  0.24305414307E+02  0.20566632274E+02  0.63709884637E+02  0.41800000000E+01 0. -1.
         -5    1    1    2    0  502 -0.41477982509E+02 -0.37509240157E+02 -0.28872939686E+02  0.63075234255E+02  0.41800000000E+01 0. -1.
        -11    1    1    2    0    0  0.16582307062E+02 -0.19352566673E+02 -0.13825032432E+02  0.28993555596E+02  0.00000000000E+00 0.  1.
         11    1    1    2    0    0 -0.30129205042E+02  0.32556392524E+02  0.64655853212E+02  0.78409610668E+02  0.00000000000E+00 0. -1.
</event>
<event>
 6    1  0.6597032E-006  0.1496044E+03  0.7561462E-02  0.1200960E+00
         -1   -1    0    0    0  501 -0.00000000000E+00  0.00000000000E+00  0.55417020619E+03  0.55417020619E+03  0.00000000000E+00 0.  1.
          1   -1    0    0  501    0  0.00000000000E+00 -0.00000000000E+00 -0.48035438793E+02  0.48035438793E+02  0.00000000000E+00 0. -1.
          5    1    1    2  502    0  0.21089915078E+02  0.13045891286E+03  0.11167698774E+03  0.17307089430E+03  0.41800000000E+01 0. -1.
         -5    1    1    2    0  502  0.66788329540E+01 -0.21757602795E+02  0.73133078326E+02  0.76706711795E+02  0.41800000000E+01 0. -1.
        -11    1    1    2    0    0 -0.60521543837E+02 -0.79905461080E+02  0.20493824277E+03  0.22813904385E+03  0.00000000000E+00 0. -1.
         11    1    1    2    0    0  0.32752795805E+02 -0.28795848983E+02  0.11638645856E+03  0.12428899504E+03  0.00000000000E+00 0.  1.
</event>
<event>
 6    1  0.6597032E-006  0.1185976E+03  0.7561462E-02  0.1245429E+00
          2   -1    0    0  501    0  0.00000000000E+00  0.00000000000E+00  0.20348889232E+03  0.20348889232E+03  0.00000000000E+00 0. -1.
         -2   -1    0    0    0  501 -0.00000000000E+00 -0.00000000000E+00 -0.10648852283E+03  0.10648852283E+03  0.00000000000E+00 0.  1.
          5    1    1    2  502    0  0.38463201205E+02 -0.58208379060E+01  0.59990598290E+01  0.39582333429E+02  0.41800000000E+01 0.  1.
         -5    1    1    2    0  502 -0.92807467438E+02 -0.13602045500E+01 -0.40029553722E+02  0.10116775049E+03  0.41800000000E+01 0.  1.
        -11    1    1    2    0    0  0.76601515576E+02  0.20400608164E+02  0.11146108185E+03  0.13677554521E+03  0.00000000000E+00 0.  1.
         11    1    1    2    0    0 -0.22257249342E+02 -0.13219565708E+02  0.19569781538E+02  0.32451786010E+02  0.00000000000E+00 0. -1.
</event>
<event>
 6    1  0.6597032E-006  0.9214789E+02  0.7561462E-02  0.1297732E+00
         -2   -1    0    0    0  501 -0.00000000000E+00  0.00000000000E+00  0.23063240207E+03  0.23063240207E+03  0.00000000000E+00 0.  1.
          2   -1    0    0  501    0  0.00000000000E+00 -0.00000000000E+00 -0.62040276608E+02  0.62040276608E+02  0.00000000000E+00 0. -1.
          5    1    1    2  502    0 -0.68770761834E+02  0.21185871245E+02  0.59956484762E+02  0.93757726555E+02  0.41800000000E+01 0.  1.
         -5    1    1    2    0  502  0.56281557655E+02  0.26776142610E+02  0.49991053661E+02  0.80007208371E+02  0.41800000000E+01 0.  1.
        -11    1    1    2    0    0  0.29508769837E+01 -0.19700469681E+02 -0.23915309282E+02  0.31124880702E+02  0.00000000000E+00 0. -1.
         11    1    1    2    0    0  0.95383271957E+01 -0.28261544174E+02  0.82559896321E+02  0.87782863050E+02  0.00000000000E+00 0.  1.
</event>
<event>
 6    1  0.6597032E-006  0.9974960E+02  0.7561462E-02  0.1280823E+00
          4   -1    0    0  501    0  0.00000000000E+00  0.00000000000E+00  0.20810432841E+03  0.20810432841E+03  0.00000000000E+00 0. -1.
         -4   -1    0    0    0  501 -0.00000000000E+00 -0.00000000000E+00 -0.63387325927E+02  0.63387325927E+02  0.00000000000E+00 0.  1.
          5    1    1    2  502    0  0.39761654962E+02  0.35048415002E+02  0.15250424423E+02  0.55312100345E+02  0.41800000000E+01 0. -1.
         -5    1    1    2    0  502 -0.57395212437E+02 -0.40808885465E+02  0.54378563923E+02  0.89073431268E+02  0.41800000000E+01 0. -1.
        -11    1    1    2    0    0 -0.12479968725E+02 -0.27932619851E+02 -0.87885567494E+01  0.31831110582E+02  0.00000000000E+00 0.  1.
         11    1    1    2    0    0  0.30113526200E+02  0.33693090314E+02  0.83876570884E+02  0.95275012140E+02  0.00000000000E+00 0. -1.
</event>
<event>
 6    1  0.6597032E-006  0.9787169E+02  0.7561462E-02  0.1284836E+00
         -2   -1    0    0    0  501 -0.00000000000E+00  0.00000000000E+00  0.66836435365E+02  0.66836435365E+02  0.00000000000E+00 0.  1.
          2   -1    0    0  501    0  0.00000000000E+00 -0.00000000000E+00 -0.19938538488E+03  0.19938538488E+03  0.00000000000E+00 0. -1.
          5    1    1    2  502    0 -0.31012812664E+02  0.28014415150E+02 -0.59032836749E+02  0.72449639200E+02  0.41800000000E+01 0. -1.
         -5    1    1    2    0  502  0.21860243941E+02 -0.61762136777E+02  0.99521470661E+01  0.66399920449E+02  0.41800000000E+01 0. -1.
        -11    1    1    2    0    0 -0.32825193349E+02 -0.20985545655E+01 -0.79657437445E+01  0.33843024733E+02  0.00000000000E+00 0.  1.
         11    1    1    2    0    0  0.41977762072E+02  0.35846276193E+02 -0.75502516086E+02  0.93529235861E+02  0.00000000000E+00 0. -1.
</event>
<event>
 6    1  0.6597032E-006  0.1122032E+03  0.7561462E-02  0.1256544E+00
         -2   -1    0    0    0  501 -0.00000000000E+00  0.00000000000E+00  0.22467116797E+03  0.22467116797E+03  0.00000000000E+00 0.  1.
          2   -1    0    0  501    0  0.00000000000E+00 -0.00000000000E+00 -0.65381922957E+02  0.65381922957E+02  0.00000000000E+00 0. -1.
          5    1    1    2  502    0  0.35855441984E+02 -0.29947435229E+02  0.29912570164E+02  0.55629990567E+02  0.41800000000E+01 0. -1.
         -5    1    1    2    0  502 -0.34425945224E+02  0.79951166930E+02  0.78776444894E+02  0.11747568033E+03  0.41800000000E+01 0. -1.
        -11    1    1    2    0    0 -0.24766803520E+02 -0.60042414430E+02  0.61366814091E+02  0.89355312986E+02  0.00000000000E+00 0.  1.
         11    1    1    2    0    0  0.23337306760E+02  0.10038682728E+02 -0.10766584130E+02  0.27592107052E+02  0.00000000000E+00 0. -1.
</event>
<event>
 6    1  0.6597032E-006  0.1093666E+03  0.7561462E-02  0.1261747E+00
          2   -1    0    0  501    0  0.00000000000E+00  0.00000000000E+00  0.26835597176E+03  0.26835597176E+03  0.00000000000E+00 0. -1.
         -2   -1    0    0    0  501 -0.00000000000E+00 -0.00000000000E+00 -0.13425488378E+03  0.13425488378E+03  0.00000000000E+00 0.  1.
          5    1    1    2  502    0 -0.28180404747E+02  0.15333644357E+02  0.10589832272E+02  0.34042220970E+02  0.41800000000E+01 0. -1.
         -5    1    1    2    0  502  0.92990970507E+02  0.76120052319E+01 -0.88058869194E+02  0.12836315695E+03  0.41800000000E+01 0. -1.
        -11    1    1    2    0    0 -0.90329022214E+01  0.20422321725E+02  0.64284771682E+01  0.23237682024E+02  0.00000000000E+00 0.  1.
         11    1    1    2    0    0 -0.55777663538E+02 -0.43367971313E+02  0.20514164774E+03  0.21696779559E+03  0.00000000000E+00 0. -1.
</event>
<event>
 6    1  0.6597032E-006  0.1550957E+03  0.7561462E-02  0.1194348E+00
          1   -1    0    0  501    0  0.00000000000E+00  0.00000000000E+00  0.22986388914E+03  0.22986388914E+03  0.00000000000E+00 0. -1.
         -1   -1    0    0    0  501 -0.00000000000E+00 -0.00000000000E+00 -0.13552301483E+03  0.13552301483E+03  0.00000000000E+00 0.  1.
          5    1    1    2  502    0 -0.15006593057E+03  0.90257199287E+01 -0.15572061707E+02  0.15119923493E+03  0.41800000000E+01 0. -1.
         -5    1    1    2    0  502  0.21679454679E+02  0.87965740511E+01  0.16511905503E+02  0.28939486754E+02  0.41800000000E+01 0. -1.
        -11    1    1    2    0    0  0.52954652439E+02 -0.28021031630E+02  0.91175034658E+02  0.10909748106E+03  0.00000000000E+00 0.  1.
         11    1    1    2    0    0  0.75431823455E+02  0.10198737650E+02  0.22259958535E+01  0.76150701224E+02  0.00000000000E+00 0. -1.
</event>
<event>
 6    1  0.6597032E-006  0.1071859E+03  0.7561462E-02  0.1265872E+00
         -3   -1    0    0    0  501 -0.00000000000E+00  0.00000000000E+00  0.27969391864E+03  0.27969391864E+03  0.00000000000E+00 0.  1.
          3   -1    0    0  501    0  0.00000000000E+00 -0.00000000000E+00 -0.79182805894E+02  0.79182805894E+02  0.00000000000E+00 0. -1.
          5    1    1    2  502    0 -0.66310158535E+02  0.68001795771E+02  0.18251876973E+03  0.20579566336E+03  0.41800000000E+01 0. -1.
         -5    1    1    2    0  502  0.34118094498E+02 -0.12358206053E+02  0.22740549517E+02  0.43027603016E+02  0.41800000000E+01 0. -1.
        -11    1    1    2    0    0  0.24660183587E+02 -0.65718597755E+02  0.27539308729E+02  0.75402070732E+02  0.00000000000E+00 0.  1.
         11    1    1    2    0    0  0.75318804512E+01  0.10075008037E+02 -0.32287515237E+02  0.34651387422E+02  0.00000000000E+00 0. -1.
</event>
<event>
 6    1  0.6597032E-006  0.1643341E+03  0.7561462E-02  0.1183889E+00
          1   -1    0    0  501    0  0.00000000000E+00  0.00000000000E+00  0.47182283175E+03  0.47182283175E+03  0.00000000000E+00 0. -1.
         -1   -1    0    0    0  501 -0.00000000000E+00 -0.00000000000E+00 -0.81684356138E+02  0.81684356138E+02  0.00000000000E+00 0.  1.
          5    1    1    2  502    0 -0.18355438382E+02 -0.55565424748E+02  0.45315265087E+02  0.74130858592E+02  0.41800000000E+01 0.  1.
         -5    1    1    2    0  502 -0.12196894180E+03  0.34540523736E+02  0.36669212046E+02  0.13202868649E+03  0.41800000000E+01 0.  1.
        -11    1    1    2    0    0  0.26463037261E+02  0.11667168361E+02  0.14706200976E+02  0.32445146105E+02  0.00000000000E+00 0.  1.
         11    1    1    2    0    0  0.11386134292E+03  0.93577326510E+01  0.29344779750E+03  0.31490249670E+03  0.00000000000E+00 0. -1.
</event>
<event>
 6    1  0.6597032E-006  0.1248997E+03  0.7561462E-02  0.1235226E+00
         -2   -1    0    0    0  501 -0.00000000000E+00  0.00000000000E+00  0.55767851569E+03  0.55767851569E+03  0.00000000000E+00 0.  1.
          2   -1    0    0  501    0  0.00000000000E+00 -0.00000000000E+00 -0.31070997453E+02  0.31070997453E+02  0.00000000000E+00 0. -1.
          5    1    1    2  502    0  0.97696682770E+02 -0.59727306096E+01  0.26136164186E+03  0.27911950052E+03  0.41800000000E+01 0. -1.
         -5    1    1    2    0  502 -0.33484676842E+02 -0.27131920462E+02  0.69260833438E+02  0.81681700152E+02  0.41800000000E+01 0. -1.
        -11    1    1    2    0    0  0.25110384562E+01 -0.21909678980E+02  0.81746341599E+02  0.84668788299E+02  0.00000000000E+00 0.  1.
         11    1    1    2    0    0 -0.66723044384E+02  0.55014330051E+02  0.11423870134E+03  0.14327952417E+03  0.00000000000E+00 0. -1.
</event>
<event>
 6    1  0.6597032E-006  0.1454839E+03  0.7561462E-02  0.1206135E+00
          1   -1    0    0  501    0  0.00000000000E+00  0.00000000000E+00  0.69507885227E+03  0.69507885227E+03  0.00000000000E+00 0. -1.
         -1   -1    0    0    0  501 -0.00000000000E+00 -0.00000000000E+00 -0.61946796450E+02  0.61946796450E+02  0.00000000000E+00 0.  1.
          5    1    1    2  502    0  0.33041672679E+02  0.80803775267E+02  0.12453983495E+03  0.15214678807E+03  0.41800000000E+01 0.  1.
         -5    1    1    2    0  502  0.62367146002E+02  0.10509792482E+02 -0.80048306795E+01  0.63887920240E+02  0.41800000000E+01 0.  1.
        -11    1    1    2    0    0 -0.19043303184E+02 -0.49686330672E+02  0.81825339947E+02  0.97605148989E+02  0.00000000000E+00 0.  1.
         11    1    1    2    0    0 -0.76365515498E+02 -0.41627237076E+02  0.43477171160E+03  0.44338579142E+03  0.00000000000E+00 0. -1.
</event>
<event>
 6    1  0.6597032E-006  0.7953389E+02  0.7561462E-02  0.1330379E+00
         -1   -1    0    0    0  501 -0.00000000000E+00  0.00000000000E+00  0.21998243571E+03  0.21998243571E+03  0.00000000000E+00 0.  1.
          1   -1    0    0  501    0  0.00000000000E+00 -0.00000000000E+00 -0.14672245653E+03  0.14672245653E+03  0.00000000000E+00 0. -1.
          5    1    1    2  502    0  0.46208035319E+01  0.38802777299E+02  0.13902366041E+03  0.14447165087E+03  0.41800000000E+01 0.  1.
         -5    1    1    2    0  502 -0.21042763635E+02 -0.61374415155E+02  0.42216521526E+02  0.77519828603E+02  0.41800000000E+01 0.  1.
        -11    1    1    2    0    0  0.11246408240E+02 -0.13919738931E+02  0.10420972391E+02  0.20708391917E+02  0.00000000000E+00 0.  1.
         11    1    1    2    0    0  0.51755518634E+01  0.36491376787E+02 -0.11840117515E+03  0.12400502084E+03  0.00000000000E+00 0. -1.
</event>
<event>
 6    1  0.6597032E-006  0.9099813E+02  0.7561462E-02  0.1300452E+00
          2   -1    0    0  501    0  0.00000000000E+00  0.00000000000E+00  0.26282983425E+02  0.26282983425E+02  0.00000000000E+00 0. -1.
         -2   -1    0    0    0  501 -0.00000000000E+00 -0.00000000000E+00 -0.74915537262E+03  0.74915537262E+03  0.00000000000E+00 0.  1.
          5    1    1    2  502    0  0.41646447579E+02  0.35870458322E+02 -0.67793891310E+02  0.87376200851E+02  0.41800000000E+01 0.  1.
         -5    1    1    2    0  502  0.30365111958E+02 -0.11381673586E+02 -0.43694254390E+03  0.43816417195E+03  0.41800000000E+01 0.  1.
        -11    1    1    2    0    0 -0.20095417310E+02 -0.35788902484E+02 -0.21749578575E+02  0.46451216411E+02  0.00000000000E+00 0. -1.
         11    1    1    2    0    0 -0.51916142227E+02  0.11300117748E+02 -0.19638637542E+03  0.20344676683E+03  0.00000000000E+00 0.  1.
</event>
<event>
 6    1  0.6597032E-006  0.1303549E+03  0.7561462E-02  0.1226930E+00
          1   -1    0    0  501    0  0.00000000000E+00  0.00000000000E+00  0.10089756749E+03  0.10089756749E+03  0.00000000000E+00 0. -1.
         -1   -1    0    0    0  501 -0.00000000000E+00 -0.00000000000E+00 -0.27359987236E+03  0.27359987236E+03  0.00000000000E+00 0.  1.
          5    1    1    2  502    0 -0.99311098974E+02  0.53143930081E+02 -0.13903747365E+03  0.17898565072E+03  0.41800000000E+01 0.  1.
         -5    1    1    2    0  502  0.38843217180E+02  0.20836291210E+02 -0.43921799127E+02  0.62366203916E+02  0.41800000000E+01 0.  1.
        -11    1    1    2    0    0  0.41671271580E+02 -0.19347976541E+02  0.46156696938E+02  0.65125108396E+02  0.00000000000E+00 0. -1.
         11    1    1    2    0    0  0.18796610214E+02 -0.54632244750E+02 -0.35899729035E+02  0.68020476819E+02  0.00000000000E+00 0.  1.
</event>
<event>
 6    1  0.6597032E-006  0.1069610E+03  0.7561462E-02  0.1266303E+00
         -2   -1    0    0    0  501 -0.00000000000E+00  0.00000000000E+00  0.47705325848E+02  0.47705325848E+02  0.00000000000E+00 0.  1.
          2   -1    0    0  501    0  0.00000000000E+00 -0.00000000000E+00 -0.37144354415E+03  0.37144354415E+03  0.00000000000E+00 0. -1.
          5    1    1    2  502    0 -0.82117237784E+02 -0.14712481147E+02 -0.14248307613E+03  0.16516233598E+03  0.41800000000E+01 0. -1.
         -5    1    1    2    0  502  0.23474192123E+02 -0.40721676386E+01  0.14502865717E+02  0.28203293409E+02  0.41800000000E+01 0.  1.
        -11    1    1    2    0    0  0.34086264057E+02  0.53647562107E+02 -0.15165338138E+03  0.16443443192E+03  0.00000000000E+00 0.  1.
         11    1    1    2    0    0  0.24556781604E+02 -0.34862913322E+02 -0.44104626512E+02  0.61348808691E+02  0.00000000000E+00 0. -1.
</event>
<event>
 6    1  0.6597032E-006  0.1150585E+03  0.7561462E-02  0.1251479E+00
         -2   -1    0    0    0  501 -0.00000000000E+00  0.00000000000E+00  0.27545190113E+02  0.27545190113E+02  0.00000000000E+00 0.  1.
          2   -1    0    0  501    0  0.00000000000E+00 -0.00000000000E+00 -0.64086607577E+03  0.64086607577E+03  0.00000000000E+00 0. -1.
          5    1    1    2  502    0 -0.85120068320E+02 -0.21070165627E+02 -0.28129071221E+03  0.29467153762E+03  0.41800000000E+01 0.  1.
         -5    1    1    2    0  502  0.18977688610E+02 -0.23272451143E+02 -0.95030610118E+01  0.31773262593E+02  0.41800000000E+01 0.  1.
        -11    1    1    2    0    0 -0.13109786156E+02 -0.95065277088E+01 -0.29240329379E+02  0.33425101710E+02  0.00000000000E+00 0. -1.
         11    1    1    2    0    0  0.79252165866E+02  0.53849144479E+02 -0.29328678306E+03  0.30854136396E+03  0.00000000000E+00 0.  1.
</event>
<event>
 6    1  0.6597032E-006  0.1064058E+03  0.7561462E-02  0.1267374E+00
          1   -1    0    0  501    0  0.00000000000E+00  0.00000000000E+00  0.44170979515E+03  0.44170979515E+03  0.00000000000E+00 0. -1.
         -1   -1    0    0    0  501 -0.00000000000E+00 -0.00000000000E+00 -0.41554934201E+02  0.41554934201E+02  0.00000000000E+00 0.  1.
          5    1    1    2  502    0 -0.38299008166E+02  0.18105951963E+00  0.19533742196E+03  0.19910054653E+03  0.41800000000E+01 0.  1.
         -5    1    1    2    0  502 -0.19219880073E+02 -0.55937829069E+02  0.20152552819E+02  0.62626210935E+02  0.41800000000E+01 0.  1.
        -11    1    1    2    0    0  0.53747543917E+02 -0.51247523008E+01  0.12522392468E+03  0.13636749201E+03  0.00000000000E+00 0.  1.
         11    1    1    2    0    0  0.37713443224E+01  0.60881521850E+02  0.59440961483E+02  0.85170479879E+02  0.00000000000E+00 0. -1.
</event>
<event>
 6    1  0.6597032E-006  0.3303368E+03  0.7561462E-02  0.1070988E+00
         -1   -1    0    0    0  501 -0.00000000000E+00  0.00000000000E+00  0.98460560800E+02  0.98460560800E+02  0.00000000000E+00 0.  1.
          1   -1    0    0  501    0  0.00000000000E+00 -0.00000000000E+00 -0.14195093313E+04  0.14195093313E+04  0.00000000000E+00 0. -1.
          5    1    1    2  502    0  0.22009977185E+02 -0.20764257687E+02  0.39613858181E+01  0.30801923164E+02  0.41800000000E+01 0.  1.
         -5    1    1    2    0  502  0.12033329331E+03 -0.27134049175E+03 -0.37036563424E+03  0.47465138720E+03  0.41800000000E+01 0.  1.
        -11    1    1    2    0    0 -0.93845960795E+02  0.25644050032E+03 -0.71347186670E+03  0.76394430369E+03  0.00000000000E+00 0.  1.
         11    1    1    2    0    0 -0.48497309703E+02  0.35664249115E+02 -0.24117265534E+03  0.24857227802E+03  0.00000000000E+00 0. -1.
</event>
<event>
 6    1  0.6597032E-006  0.1012782E+03  0.7561462E-02  0.1277631E+00
          2   -1    0    0  501    0  0.00000000000E+00  0.00000000000E+00  0.20472013104E+03  0.20472013104E+03  0.00000000000E+00 0. -1.
         -2   -1    0    0    0  501 -0.00000000000E+00 -0.00000000000E+00 -0.12260911334E+03  0.12260911334E+03  0.00000000000E+00 0.  1.
          5    1    1    2  502    0 -0.41273215247E+01 -0.56537585838E+02 -0.43608442334E+02  0.71642878489E+02  0.41800000000E+01 0. -1.
         -5    1    1    2    0  502 -0.37373956441E+02  0.62059762225E+02 -0.22936690883E+02  0.76103816568E+02  0.41800000000E+01 0. -1.
        -11    1    1    2    0    0  0.28376119082E+02 -0.32502133912E+02  0.20148406180E+02  0.47618810512E+02  0.00000000000E+00 0.  1.
         11    1    1    2    0    0  0.13125158884E+02  0.26979957525E+02  0.12850774474E+03  0.13196373881E+03  0.00000000000E+00 0. -1.
</event>
<event>
 6    1  0.6597032E-006  0.1531247E+03  0.7561462E-02  0.1196685E+00
          1   -1    0    0  501    0  0.00000000000E+00  0.00000000000E+00  0.10304004274E+03  0.10304004274E+03  0.00000000000E+00 0. -1.
         -1   -1    0    0    0  501 -0.00000000000E+00 -0.00000000000E+00 -0.23932612278E+03  0.23932612278E+03  0.00000000000E+00 0.  1.
          5    1    1    2  502    0  0.42441609208E+02 -0.10601425666E+03 -0.74068234156E+02  0.13617594692E+03  0.41800000000E+01 0.  1.
         -5    1    1    2    0  502 -0.51780850296E+02 -0.38746694958E+01 -0.25119690272E+02  0.57833733759E+02  0.41800000000E+01 0.  1.
        -11    1    1    2    0    0 -0.25672460997E+02  0.10037176949E+03 -0.12124096822E+02  0.10430992804E+03  0.00000000000E+00 0. -1.
         11    1    1    2    0    0  0.35011702085E+02  0.95171566700E+01 -0.24974058791E+02  0.44046556806E+02  0.00000000000E+00 0.  1.
</event>
<event>
 6    1  0.6597032E-006  0.9635631E+02  0.7561462E-02  0.1288150E+00
          1   -1    0    0  501    0  0.00000000000E+00  0.00000000000E+00  0.20716519517E+03  0.20716519517E+03  0.00000000000E+00 0. -1.
         -1   -1    0    0    0  501 -0.00000000000E+00 -0.00000000000E+00 -0.61714746825E+02  0.61714746825E+02  0.00000000000E+00 0.  1.
          5    1    1    2  502    0  0.46208365217E+02  0.98837054946E+01  0.57023500687E+02  0.74175822752E+02  0.41800000000E+01 0. -1.
         -5    1    1    2    0  502 -0.57087175529E+02 -0.22166245927E+02 -0.64946972873E+01  0.61724724068E+02  0.41800000000E+01 0. -1.
        -11    1    1    2    0    0 -0.15080764873E+02 -0.30400228704E+02  0.11664127164E+02  0.35883913345E+02  0.00000000000E+00 0. -1.
         11    1    1    2    0    0  0.25959575185E+02  0.42682769136E+02  0.83257517777E+02  0.97095481828E+02  0.00000000000E+00 0.  1.
</event>
<event>
 6    1  0.6597032E-006  0.3402966E+02  0.7561462E-02  0.1557390E+00
         -2   -1    0    0    0  501 -0.00000000000E+00  0.00000000000E+00  0.38757709882E+03  0.38757709882E+03  0.00000000000E+00 0.  1.
          2   -1    0    0  501    0  0.00000000000E+00 -0.00000000000E+00 -0.47201896889E+02  0.47201896889E+02  0.00000000000E+00 0. -1.
          5    1    1    2  502    0  0.10856202204E+02  0.20620541178E+01 -0.89960178367E+01  0.14849576775E+02  0.41800000000E+01 0. -1.
         -5    1    1    2    0  502 -0.48680251522E+01  0.42025388805E+01  0.32545431735E+03  0.32554468830E+03  0.41800000000E+01 0. -1.
        -11    1    1    2    0    0 -0.23712877356E+02  0.88199611568E+01  0.52049342379E+02  0.57872500460E+02  0.00000000000E+00 0.  1.
         11    1    1    2    0    0  0.17724700304E+02 -0.15084554155E+02 -0.28132439953E+02  0.36512230179E+02  0.00000000000E+00 0. -1.
</event>
<event>
 6    1  0.6597032E-006  0.1161843E+03  0.7561462E-02  0.1249528E+00
          1   -1    0    0  501    0  0.00000000000E+00  0.00000000000E+00  0.38805146961E+03  0.38805146961E+03  0.00000000000E+00 0. -1.
         -1   -1    0    0    0  501 -0.00000000000E+00 -0.00000000000E+00 -0.49591218971E+02  0.49591218971E+02  0.00000000000E+00 0.  1.
          5    1    1    2  502    0  0.59598688541E+02 -0.73386499519E+02  0.75183539303E+02  0.12086198314E+03  0.41800000000E+01 0.  1.
         -5    1    1    2    0  502  0.16479902862E+02  0.50255862093E+02  0.54958896261E+02  0.76388425506E+02  0.41800000000E+01 0.  1.
        -11    1    1    2    0    0 -0.55861256598E+01  0.12108117461E+02 -0.59172295668E+01  0.14588519941E+02  0.00000000000E+00 0.  1.
         11    1    1    2    0    0 -0.70492465743E+02  0.11022519965E+02  0.21423504464E+03  0.22580375999E+03  0.00000000000E+00 0. -1.
</event>
<event>
 6    1  0.6597032E-006  0.6340412E+02  0.7561462E-02  0.1384077E+00
          2   -1    0    0  501    0  0.00000000000E+00  0.00000000000E+00  0.67894739449E+02  0.67894739449E+02  0.00000000000E+00 0.  1.
         -2   -1    0    0    0  501 -0.00000000000E+00 -0.00000000000E+00 -0.27761266135E+03  0.27761266135E+03  0.00000000000E+00 0. -1.
          5    1    1    2  502    0 -0.33324623775E+02 -0.12022194204E+01 -0.21455691626E+03  0.21717301535E+03  0.41800000000E+01 0. -1.
         -5    1    1    2    0  502  0.16706288035E+02  0.25218362235E+02  0.26216885870E+01  0.30649820632E+02  0.41800000000E+01 0. -1.
        -11    1    1    2    0    0  0.37090902469E+02 -0.12309323404E+02  0.38208662775E+02  0.54654884500E+02  0.00000000000E+00 0.  1.
         11    1    1    2    0    0 -0.20472566729E+02 -0.11706819410E+02 -0.35991357001E+02  0.43029680315E+02  0.00000000000E+00 0. -1.
</event>
<event>
 6    1  0.6597032E-006  0.1122920E+03  0.7561462E-02  0.1256383E+00
          2   -1    0    0  501    0  0.00000000000E+00  0.00000000000E+00  0.46574812039E+03  0.46574812039E+03  0.00000000000E+00 0. -1.
         -2   -1    0    0    0  501 -0.00000000000E+00 -0.00000000000E+00 -0.40334392689E+02  0.40334392689E+02  0.00000000000E+00 0.  1.
          5    1    1    2  502    0 -0.18302235006E+02  0.78988527556E+02  0.40949004280E+02  0.90931032345E+02  0.41800000000E+01 0. -1.
         -5    1    1    2    0  502  0.32136384339E+02 -0.34589919475E+01  0.13171021582E+03  0.13568258980E+03  0.41800000000E+01 0. -1.
        -11    1    1    2    0    0 -0.15335346651E+02 -0.92502306204E+02  0.24145952942E+03  0.25902616442E+03  0.00000000000E+00 0. -1.
         11    1    1    2    0    0  0.15011973178E+01  0.16972770595E+02  0.11294978185E+02  0.20442726512E+02  0.00000000000E+00 0.  1.
</event>
<event>
 6    1  0.6597032E-006  0.9299417E+02  0.7561462E-02  0.1295759E+00
          1   -1    0    0  501    0  0.00000000000E+00  0.00000000000E+00  0.32051198588E+02  0.32051198588E+02  0.00000000000E+00 0. -1.
         -1   -1    0    0    0  501 -0.00000000000E+00 -0.00000000000E+00 -0.74334795364E+03  0.74334795364E+03  0.00000000000E+00 0.  1.
          5    1    1    2  502    0  0.24557593429E+01  0.97295295867E+01 -0.43710394565E+03  0.43723909501E+03  0.41800000000E+01 0.  1.
         -5    1    1    2    0  502 -0.73233232962E+02  0.39273784128E-02 -0.14592936473E+03  0.16332776346E+03  0.41800000000E+01 0.  1.
        -11    1    1    2    0    0  0.19833241227E+02 -0.38465387458E+02 -0.10183699655E+03  0.11065133237E+03  0.00000000000E+00 0.  1.
         11    1    1    2    0    0  0.50944232392E+02  0.28731930493E+02 -0.26426448112E+02  0.64180961380E+02  0.00000000000E+00 0. -1.
</event>
<event>
 6    1  0.6597032E-006  0.9737264E+02  0.7561462E-02  0.1285920E+00
         -1   -1    0    0    0  501 -0.00000000000E+00  0.00000000000E+00  0.16576599321E+03  0.16576599321E+03  0.00000000000E+00 0.  1.
          1   -1    0    0  501    0  0.00000000000E+00 -0.00000000000E+00 -0.73126966990E+02  0.73126966990E+02  0.00000000000E+00 0. -1.
          5    1    1    2  502    0  0.11638841225E+01  0.51116176179E+02 -0.32565382666E+01  0.51403263854E+02  0.41800000000E+01 0. -1.
         -5    1    1    2    0  502 -0.14636689307E+02 -0.57642865036E+02  0.67350380340E+02  0.89947088309E+02  0.41800000000E+01 0. -1.
        -11    1    1    2    0    0  0.46471962027E+02 -0.90349346698E+01  0.37006960079E+02  0.60089836024E+02  0.00000000000E+00 0.  1.
         11    1    1    2    0    0 -0.32999156842E+02  0.15561623527E+02 -0.84617759354E+01  0.37452772008E+02  0.00000000000E+00 0. -1.
</event>
<event>
 6    1  0.6597032E-006  0.1135664E+03  0.7561462E-02  0.1254105E+00
         -2   -1    0    0    0  501 -0.00000000000E+00  0.00000000000E+00  0.86633801438E+02  0.86633801438E+02  0.00000000000E+00 0.  1.
          2   -1    0    0  501    0  0.00000000000E+00 -0.00000000000E+00 -0.15400560270E+03  0.15400560270E+03  0.00000000000E+00 0. -1.
          5    1    1    2  502    0  0.12132402326E+01 -0.59577802777E+02 -0.34740492133E+02  0.69103984901E+02  0.41800000000E+01 0.  1.
         -5    1    1    2    0  502 -0.40494733095E+02  0.54010912653E+02 -0.40854249679E+01  0.67758137454E+02  0.41800000000E+01 0.  1.
        -11    1    1    2    0    0 -0.48323621007E+01  0.42165858225E+02 -0.12964961195E+02  0.44377939814E+02  0.00000000000E+00 0.  1.
         11    1    1    2    0    0  0.44113854963E+02 -0.36598968101E+02 -0.15580922964E+02  0.59399341967E+02  0.00000000000E+00 0. -1.
</event>
<event>
 6    1  0.6597032E-006  0.6995559E+02  0.7561462E-02  0.1360244E+00
         -2   -1    0    0    0  501 -0.00000000000E+00  0.00000000000E+00  0.22264916273E+02  0.22264916273E+02  0.00000000000E+00 0. -1.
          2   -1    0    0  501    0  0.00000000000E+00 -0.00000000000E+00 -0.67568571719E+03  0.67568571719E+03  0.00000000000E+00 0.  1.
          5    1    1    2  502    0 -0.17045180389E+02 -0.14815541702E+02 -0.28005351977E+01  0.23137714836E+02  0.41800000000E+01 0.  1.
         -5    1    1    2    0  502 -0.39066619236E+02  0.27846614384E+02 -0.39294786205E+03  0.39588777370E+03  0.41800000000E+01 0.  1.
        -11    1    1    2    0    0  0.56960469699E+02 -0.12493045276E+01 -0.26060009540E+03  0.26675544155E+03  0.00000000000E+00 0.  1.
         11    1    1    2    0    0 -0.84867007396E+00 -0.11781768154E+02  0.29276917315E+01  0.12169703390E+02  0.00000000000E+00 0. -1.
</event>
<event>
 6    1  0.6597032E-006  0.1866778E+03  0.7561462E-02  0.1161492E+00
         -2   -1    0    0    0  501 -0.00000000000E+00  0.00000000000E+00  0.19527183147E+03  0.19527183147E+03  0.00000000000E+00 0. -1.
          2   -1    0    0  501    0  0.00000000000E+00 -0.00000000000E+00 -0.20601077441E+03  0.20601077441E+03  0.00000000000E+00 0.  1.
          5    1    1    2  502    0  0.28068564535E+01  0.12615700225E+02 -0.21180089212E+02  0.25161536407E+02  0.41800000000E+01 0. -1.
         -5    1    1    2    0  502 -0.11329094158E+03 -0.13203509623E+03  0.57281568471E+02  0.18321232100E+03  0.41800000000E+01 0. -1.
        -11    1    1    2    0    0  0.32989132953E+02  0.10077682120E+03 -0.15069723534E+02  0.10710437504E+03  0.00000000000E+00 0.  1.
         11    1    1    2    0    0  0.77494952169E+02  0.18642574802E+02 -0.31770698671E+02  0.85804373437E+02  0.00000000000E+00 0. -1.
</event>
<event>
 6    1  0.6597032E-006  0.1177635E+03  0.7561462E-02  0.1246833E+00
         -2   -1    0    0    0  501 -0.00000000000E+00  0.00000000000E+00  0.16716414534E+03  0.16716414534E+03  0.00000000000E+00 0.  1.
          2   -1    0    0  501    0  0.00000000000E+00 -0.00000000000E+00 -0.92404664293E+02  0.92404664293E+02  0.00000000000E+00 0. -1.
          5    1    1    2  502    0 -0.64376099184E+02 -0.19765008963E+02  0.26375139423E+02  0.72443482143E+02  0.41800000000E+01 0. -1.
         -5    1    1    2    0  502  0.56904210639E+02 -0.27776719286E+02  0.52091413738E+02  0.82101297845E+02  0.41800000000E+01 0.  1.
        -11    1    1    2    0    0 -0.27523845774E+02  0.61141044946E+02  0.18132327530E+01  0.67075161396E+02  0.00000000000E+00 0. -1.
         11    1    1    2    0    0  0.34995734319E+02 -0.13599316696E+02 -0.55203048719E+01  0.37948868244E+02  0.00000000000E+00 0.  1.
</event>
<event>
 6    1  0.6597032E-006  0.1290777E+03  0.7561462E-02  0.1228831E+00
         -2   -1    0    0    0  501 -0.00000000000E+00  0.00000000000E+00  0.95699226223E+02  0.95699226223E+02  0.00000000000E+00 0.  1.
          2   -1    0    0  501    0  0.00000000000E+00 -0.00000000000E+00 -0.17717579028E+03  0.17717579028E+03  0.00000000000E+00 0. -1.
          5    1    1    2  502    0 -0.67414080058E+02 -0.46285093404E+02 -0.13445523851E+02  0.82977241296E+02  0.41800000000E+01 0.  1.
         -5    1    1    2    0  502  0.57138393335E+02 -0.34350071468E+02 -0.22283712862E+02  0.70418461086E+02  0.41800000000E+01 0.  1.
        -11    1    1    2    0    0  0.38309675251E+02  0.21257442353E+02 -0.10922949998E+02  0.45153304529E+02  0.00000000000E+00 0. -1.
         11    1    1    2    0    0 -0.28033988528E+02  0.59377722518E+02 -0.34824377343E+02  0.74326009590E+02  0.00000000000E+00 0.  1.
</event>
<event>
 6    1  0.6597032E-006  0.1122615E+03  0.7561462E-02  0.1256438E+00
         -1   -1    0    0    0  501 -0.00000000000E+00  0.00000000000E+00  0.14734345721E+02  0.14734345721E+02  0.00000000000E+00 0.  1.
          1   -1    0    0  501    0  0.00000000000E+00 -0.00000000000E+00 -0.10151218624E+04  0.10151218624E+04  0.00000000000E+00 0. -1.
          5    1    1    2  502    0  0.71969851322E+01 -0.39329127029E+02 -0.89849249529E+02  0.98432397456E+02  0.41800000000E+01 0.  1.
         -5    1    1    2    0  502 -0.58335360713E+02  0.64147232709E+02 -0.47674727297E+03  0.48458571631E+03  0.41800000000E+01 0.  1.
        -11    1    1    2    0    0  0.66984237133E+02  0.12663196782E+01 -0.37125850092E+03  0.37725504118E+03  0.00000000000E+00 0. -1.
         11    1    1    2    0    0 -0.15845861552E+02 -0.26084425358E+02 -0.62532493223E+02  0.69583053132E+02  0.00000000000E+00 0.  1.
</event>
<event>
 6    1  0.6597032E-006  0.1398289E+03  0.7561462E-02  0.1213559E+00
         -2   -1    0    0    0  501 -0.00000000000E+00  0.00000000000E+00  0.40170562496E+02  0.40170562496E+02  0.00000000000E+00 0.  1.
          2   -1    0    0  501    0  0.00000000000E+00 -0.00000000000E+00 -0.62825736095E+03  0.62825736095E+03  0.00000000000E+00 0. -1.
          5    1    1    2  502    0 -0.64228611690E+02  0.22644276583E+02 -0.10685150016E+03  0.12677852069E+03  0.41800000000E+01 0.  1.
         -5    1    1    2    0  502 -0.19949517373E+02 -0.96922491629E+02 -0.12123826347E+03  0.15655076351E+03  0.41800000000E+01 0.  1.
        -11    1    1    2    0    0  0.34419495024E+02  0.33792895299E+02 -0.27176292249E+03  0.27601041185E+03  0.00000000000E+00 0. -1.
         11    1    1    2    0    0  0.49758634039E+02  0.40485319747E+02 -0.88234112338E+02  0.10908822740E+03  0.00000000000E+00 0.  1.
</event>
<event>
 6    1  0.6597032E-006  0.2305105E+03  0.7561462E-02  0.1126281E+00
          2   -1    0    0  501    0  0.00000000000E+00  0.00000000000E+00  0.92870877809E+03  0.92870877809E+03  0.00000000000E+00 0. -1.
         -2   -1    0    0    0  501 -0.00000000000E+00 -0.00000000000E+00 -0.63177261268E+02  0.63177261268E+02  0.00000000000E+00 0.  1.
          5    1    1    2  502    0 -0.53006495284E+02 -0.21681555229E+03  0.37658286721E+03  0.43777939711E+03  0.41800000000E+01 0. -1.
         -5    1    1    2    0  502 -0.98374019684E+01  0.10142241925E+02  0.91700663481E+02  0.92876927338E+02  0.41800000000E+01 0. -1.
        -11    1    1    2    0    0  0.24878324767E+02  0.16421705819E+03  0.22399242789E+03  0.27885261519E+03  0.00000000000E+00 0.  1.
         11    1    1    2    0    0  0.37965572486E+02  0.42456252170E+02  0.17325555824E+03  0.18237709972E+03  0.00000000000E+00 0. -1.
</event>
<event>
 6    1  0.6597032E-006  0.8877707E+02  0.7561462E-02  0.1305841E+00
         -1   -1    0    0    0  501 -0.00000000000E+00  0.00000000000E+00  0.70686241530E+02  0.70686241530E+02  0.00000000000E+00 0.  1.
          1   -1    0    0  501    0  0.00000000000E+00 -0.00000000000E+00 -0.17303411805E+03  0.17303411805E+03  0.00000000000E+00 0. -1.
          5    1    1    2  502    0 -0.27731266919E+02 -0.34396246848E+02  0.14811926115E+02  0.46786648923E+02  0.41800000000E+01 0. -1.
         -5    1    1    2    0  502  0.12735942449E+02  0.55325890401E+02 -0.75649773971E+02  0.94675863243E+02  0.41800000000E+01 0. -1.
        -11    1    1    2    0    0  0.19851952018E+02  0.23948798638E+02  0.11016067351E+02  0.32999980227E+02  0.00000000000E+00 0.  1.
         11    1    1    2    0    0 -0.48566275478E+01 -0.44878442192E+02 -0.52526096011E+02  0.69257867183E+02  0.00000000000E+00 0. -1.
</event>
<event>
 6    1  0.6597032E-006  0.7816552E+02  0.7561462E-02  0.1334340E+00
          1   -1    0    0  501    0  0.00000000000E+00  0.00000000000E+00  0.25176574965E+03  0.25176574965E+03  0.00000000000E+00 0. -1.
         -1   -1    0    0    0  501 -0.00000000000E+00 -0.00000000000E+00 -0.62582754107E+02  0.62582754107E+02  0.00000000000E+00 0.  1.
          5    1    1    2  502    0 -0.31709751361E+02 -0.19617404814E+02  0.11116169408E+03  0.11732325232E+03  0.41800000000E+01 0. -1.
         -5    1    1    2    0  502 -0.27308371643E+02 -0.48860810837E+01 -0.33089591635E+02  0.43382190179E+02  0.41800000000E+01 0. -1.
        -11    1    1    2    0    0  0.14169256107E+02  0.40680635848E+02  0.93269420237E+02  0.10273688093E+03  0.00000000000E+00 0. -1.
         11    1    1    2    0    0  0.44848866897E+02 -0.16177149950E+02  0.17841472863E+02  0.50906180336E+02  0.00000000000E+00 0.  1.
</event>
<event>
 6    1  0.6597032E-006  0.1060633E+03  0.7561462E-02  0.1268039E+00
          2   -1    0    0  501    0  0.00000000000E+00  0.00000000000E+00  0.27760139397E+03  0.27760139397E+03  0.00000000000E+00 0. -1.
         -2   -1    0    0    0  501 -0.00000000000E+00 -0.00000000000E+00 -0.53796930062E+02  0.53796930062E+02  0.00000000000E+00 0.  1.
          5    1    1    2  502    0 -0.76864675989E+02  0.23090440382E+02  0.21760636313E+02  0.83260702283E+02  0.41800000000E+01 0.  1.
         -5    1    1    2    0  502  0.23500088922E+02 -0.81671778579E+01  0.89773177290E+02  0.93250483829E+02  0.41800000000E+01 0.  1.
        -11    1    1    2    0    0  0.37345811071E+02 -0.53222445190E+02  0.72741650540E+02  0.97563753515E+02  0.00000000000E+00 0.  1.
         11    1    1    2    0    0  0.16018775996E+02  0.38299182666E+02  0.39528999763E+02  0.57323384404E+02  0.00000000000E+00 0. -1.
</event>
<event>
 6    1  0.6597032E-006  0.9958773E+02  0.7561462E-02  0.1281165E+00
         -1   -1    0    0    0  501 -0.00000000000E+00  0.00000000000E+00  0.26102815389E+02  0.26102815389E+02  0.00000000000E+00 0.  1.
          1   -1    0    0  501    0  0.00000000000E+00 -0.00000000000E+00 -0.45152664439E+03  0.45152664439E+03  0.00000000000E+00 0. -1.
          5    1    1    2  502    0  0.23243709359E+02 -0.50122474927E+02 -0.54103580502E+02  0.77441606006E+02  0.41800000000E+01 0.  1.
         -5    1    1    2    0  502 -0.10290533456E+02  0.54030943110E+02 -0.18109318486E+03  0.18930782312E+03  0.41800000000E+01 0.  1.
        -11    1    1    2    0    0 -0.48563829311E+02 -0.15790385304E+02 -0.13270799002E+03  0.14219420663E+03  0.00000000000E+00 0.  1.
         11    1    1    2    0    0  0.35610653409E+02  0.11881917122E+02 -0.57519073614E+02  0.68685824011E+02  0.00000000000E+00 0. -1.
</event>
<event>
 6    1  0.6597032E-006  0.1683523E+03  0.7561462E-02  0.1179577E+00
         -2   -1    0    0    0  501 -0.00000000000E+00  0.00000000000E+00  0.10342393032E+03  0.10342393032E+03  0.00000000000E+00 0.  1.
          2   -1    0    0  501    0  0.00000000000E+00 -0.00000000000E+00 -0.40557971184E+03  0.40557971184E+03  0.00000000000E+00 0. -1.
          5    1    1    2  502    0 -0.43839297126E+02 -0.12503481826E+03 -0.14105201590E+03  0.19356842030E+03  0.41800000000E+01 0. -1.
         -5    1    1    2    0  502  0.60160609506E+02  0.45622226591E+01  0.31973540130E+02  0.68409739658E+02  0.41800000000E+01 0.  1.
        -11    1    1    2    0    0 -0.46754367076E+02  0.61004596997E+02 -0.14697449792E+03  0.16585847803E+03  0.00000000000E+00 0. -1.
         11    1    1    2    0    0  0.30433054696E+02  0.59467998602E+02 -0.46102807831E+02  0.81167004169E+02  0.00000000000E+00 0.  1.
</event>
<event>
 6    1  0.6597032E-006  0.1062075E+03  0.7561462E-02  0.1267759E+00
          2   -1    0    0  501    0  0.00000000000E+00  0.00000000000E+00  0.28799494999E+02  0.28799494999E+02  0.00000000000E+00 0.  1.
         -2   -1    0    0    0  501 -0.00000000000E+00 -0.00000000000E+00 -0.52703242144E+03  0.52703242144E+03  0.00000000000E+00 0. -1.
          5    1    1    2  502    0 -0.64963186418E+02  0.37881497792E+01 -0.22663761400E+03  0.23583181750E+03  0.41800000000E+01 0.  1.
         -5    1    1    2    0  502  0.46905032562E+02 -0.38565393630E+02 -0.11550475799E+03  0.13056107070E+03  0.41800000000E+01 0.  1.
        -11    1    1    2    0    0  0.48454972055E+02  0.18562782718E+02 -0.14377653236E+03  0.15285336921E+03  0.00000000000E+00 0. -1.
         11    1    1    2    0    0 -0.30396818198E+02  0.16214461132E+02 -0.12314022095E+02  0.36585659028E+02  0.00000000000E+00 0.  1.
</event>
<event>
 6    1  0.6597032E-006  0.1390740E+03  0.7561462E-02  0.1214580E+00
         -2   -1    0    0    0  501 -0.00000000000E+00  0.00000000000E+00  0.33537545432E+02  0.33537545432E+02  0.00000000000E+00 0.  1.
          2   -1    0    0  501    0  0.00000000000E+00 -0.00000000000E+00 -0.60305461992E+03  0.60305461992E+03  0.00000000000E+00 0. -1.
          5    1    1    2  502    0  0.58963758647E+02  0.52433699512E+02 -0.13388554718E+03  0.15546327483E+03  0.41800000000E+01 0. -1.
         -5    1    1    2    0  502 -0.64949248686E+02  0.37823246575E+02 -0.11847250024E+03  0.14036455607E+03  0.41800000000E+01 0. -1.
        -11    1    1    2    0    0  0.87599964458E+01  0.15638304568E+02 -0.60625824232E+02  0.63220128688E+02  0.00000000000E+00 0.  1.
         11    1    1    2    0    0 -0.27745064068E+01 -0.10589525065E+03 -0.25653320284E+03  0.27754420577E+03  0.00000000000E+00 0. -1.
</event>
<event>
 6    1  0.6597032E-006  0.8917100E+02  0.7561462E-02  0.1304872E+00
         -1   -1    0    0    0  501 -0.00000000000E+00  0.00000000000E+00  0.11380598220E+03  0.11380598220E+03  0.00000000000E+00 0.  1.
          1   -1    0    0  501    0  0.00000000000E+00 -0.00000000000E+00 -0.13555315554E+03  0.13555315554E+03  0.00000000000E+00 0. -1.
          5    1    1    2  502    0  0.19421317434E+02  0.94439523581E+01  0.65105364446E+02  0.68720860637E+02  0.41800000000E+01 0.  1.
         -5    1    1    2    0  502 -0.22322284488E+02 -0.52322994769E+02 -0.34947283485E+02  0.66893685721E+02  0.41800000000E+01 0.  1.
        -11    1    1    2    0    0 -0.38429218912E+02 -0.17631803462E+01 -0.31034977277E+02  0.49427557958E+02  0.00000000000E+00 0.  1.
         11    1    1    2    0    0  0.41330185966E+02  0.44642222758E+02 -0.20870277028E+02  0.64317033420E+02  0.00000000000E+00 0. -1.
</event>
<event>
 6    1  0.6597032E-006  0.7645017E+02  0.7561462E-02  0.1339438E+00
          1   -1    0    0  501    0  0.00000000000E+00  0.00000000000E+00  0.26232268961E+03  0.26232268961E+03  0.00000000000E+00 0. -1.
         -1   -1    0    0    0  501 -0.00000000000E+00 -0.00000000000E+00 -0.52424982321E+02  0.52424982321E+02  0.00000000000E+00 0.  1.
          5    1    1    2  502    0 -0.38398372637E+02  0.15432526789E+02 -0.49931643254E+01  0.41892743933E+02  0.41800000000E+01 0.  1.
         -5    1    1    2    0  502  0.53735913812E+02  0.29452417066E+02  0.11884680869E+03  0.13377978039E+03  0.41800000000E+01 0.  1.
        -11    1    1    2    0    0 -0.16640434873E+02 -0.25450592046E+02  0.11063531953E+03  0.11473800868E+03  0.00000000000E+00 0. -1.
         11    1    1    2    0    0  0.13028936984E+01 -0.19434351809E+02 -0.14591256604E+02  0.24337138934E+02  0.00000000000E+00 0.  1.
</event>
<event>
 6    1  0.6597032E-006  0.1205747E+03  0.7561462E-02  0.1242152E+00
          2   -1    0    0  501    0  0.00000000000E+00  0.00000000000E+00  0.34531966933E+03  0.34531966933E+03  0.00000000000E+00 0. -1.
         -2   -1    0    0    0  501 -0.00000000000E+00 -0.00000000000E+00 -0.60849628510E+02  0.60849628510E+02  0.00000000000E+00 0.  1.
          5    1    1    2  502    0 -0.13330900771E+02 -0.80046927124E+02  0.30085704344E+02  0.86647824342E+02  0.41800000000E+01 0.  1.
         -5    1    1    2    0  502 -0.51631254334E+02  0.37959989204E+02  0.45778722829E+02  0.78866412802E+02  0.41800000000E+01 0.  1.
        -11    1    1    2    0    0  0.58603340918E+02  0.58644594854E+01  0.48251367687E+02  0.76137624966E+02  0.00000000000E+00 0.  1.
         11    1    1    2    0    0  0.63588141868E+01  0.36222478435E+02  0.16035424596E+03  0.16451743573E+03  0.00000000000E+00 0. -1.
</event>
<event>
 6    1  0.6597032E-006  0.9484540E+02  0.7561462E-02  0.1291525E+00
         -1   -1    0    0    0  501 -0.00000000000E+00  0.00000000000E+00  0.60106334665E+03  0.60106334665E+03  0.00000000000E+00 0.  1.
          1   -1    0    0  501    0  0.00000000000E+00 -0.00000000000E+00 -0.23279740398E+02  0.23279740398E+02  0.00000000000E+00 0. -1.
          5    1    1    2  502    0  0.17595871545E+02 -0.48527985395E+02  0.35737403682E+03  0.36110698505E+03  0.41800000000E+01 0.  1.
         -5    1    1    2    0  502  0.22609256660E+02  0.36734063582E+02  0.45587350430E+02  0.62898718852E+02  0.41800000000E+01 0.  1.
        -11    1    1    2    0    0  0.15795960184E+02 -0.23540659926E+02  0.78397106245E+02  0.83365348289E+02  0.00000000000E+00 0. -1.
         11    1    1    2    0    0 -0.56001088389E+02  0.35334581739E+02  0.96425112763E+02  0.11697203486E+03  0.00000000000E+00 0.  1.
</event>
<event>
 6    1  0.6597032E-006  0.1524081E+03  0.7561462E-02  0.1197545E+00
         -1   -1    0    0    0  501 -0.00000000000E+00  0.00000000000E+00  0.16900024149E+03  0.16900024149E+03  0.00000000000E+00 0.  1.
          1   -1    0    0  501    0  0.00000000000E+00 -0.00000000000E+00 -0.18071080196E+03  0.18071080196E+03  0.00000000000E+00 0. -1.
          5    1    1    2  502    0  0.73279787696E+02 -0.25927003738E+02  0.48183788954E+02  0.91549367696E+02  0.41800000000E+01 0. -1.
         -5    1    1    2    0  502  0.26584386112E+02  0.85670441781E+02  0.17474774470E+02  0.91482207684E+02  0.41800000000E+01 0. -1.
        -11    1    1    2    0    0  0.73388796566E+00 -0.33100591902E+02  0.56097614126E+01  0.33580607483E+02  0.00000000000E+00 0.  1.
         11    1    1    2    0    0 -0.10059806177E+03 -0.26642846141E+02 -0.82978885307E+02  0.13309886059E+03  0.00000000000E+00 0. -1.
</event>
<event>
 6    1  0.6597032E-006  0.2737817E+03  0.7561462E-02  0.1099135E+00
         -1   -1    0    0    0  501 -0.00000000000E+00  0.00000000000E+00  0.14110529148E+04  0.14110529148E+04  0.00000000000E+00 0. -1.
          1   -1    0    0  501    0  0.00000000000E+00 -0.00000000000E+00 -0.64042470289E+02  0.64042470289E+02  0.00000000000E+00 0.  1.
          5    1    1    2  502    0  0.13386666070E+01  0.14962141065E+02  0.12692395384E+03  0.12787814572E+03  0.41800000000E+01 0. -1.
         -5    1    1    2    0  502 -0.25955142749E+03 -0.68049670420E+02  0.78708005255E+03  0.83157091260E+03  0.41800000000E+01 0. -1.
        -11    1    1    2    0    0  0.15894268376E+03  0.32361050715E+02  0.17594433762E+03  0.23930404147E+03  0.00000000000E+00 0.  1.
         11    1    1    2    0    0  0.99270077122E+02  0.20726478641E+02  0.25706210049E+03  0.27634228528E+03  0.00000000000E+00 0. -1.
</event>
<event>
 6    1  0.6597032E-006  0.1390334E+03  0.7561462E-02  0.1214636E+00
         -2   -1    0    0    0  501 -0.00000000000E+00  0.00000000000E+00  0.59198947670E+03  0.59198947670E+03  0.00000000000E+00 0.  1.
          2   -1    0    0  501    0  0.00000000000E+00 -0.00000000000E+00 -0.45726292881E+02  0.45726292881E+02  0.00000000000E+00 0. -1.
          5    1    1    2  502    0 -0.70895620632E+02  0.65333532613E+02  0.29969795932E+03  0.31485075628E+03  0.41800000000E+01 0. -1.
         -5    1    1    2    0  502 -0.36142690111E+02 -0.51804568187E+02  0.11031895145E+03  0.12719178740E+03  0.41800000000E+01 0. -1.
        -11    1    1    2    0    0  0.77459244529E+01  0.13316344156E+02  0.73697723640E+02  0.75290629145E+02  0.00000000000E+00 0.  1.
         11    1    1    2    0    0  0.99292386290E+02 -0.26845308582E+02  0.62548549406E+02  0.12038259675E+03  0.00000000000E+00 0. -1.
</event>
<event>
 6    1  0.6597032E-006  0.1317900E+03  0.7561462E-02  0.1224824E+00
          1   -1    0    0  501    0  0.00000000000E+00  0.00000000000E+00  0.64550390614E+03  0.64550390614E+03  0.00000000000E+00 0. -1.
         -1   -1    0    0    0  501 -0.00000000000E+00 -0.00000000000E+00 -0.19359754722E+03  0.19359754722E+03  0.00000000000E+00 0.  1.
          5    1    1    2  502    0 -0.92626756619E+02  0.10138746811E+02  0.77784885748E+02  0.12145151740E+03  0.41800000000E+01 0. -1.
         -5    1    1    2    0  502  0.45417890614E+02 -0.41780898629E+02 -0.16051571959E+03  0.17202091998E+03  0.41800000000E+01 0.  1.
        -11    1    1    2    0    0 -0.28152018603E+02  0.11786626282E+02  0.12768560624E+03  0.13128242362E+03  0.00000000000E+00 0.  1.
         11    1    1    2    0    0  0.75360884608E+02  0.19855525535E+02  0.40695158652E+03  0.41434659235E+03  0.00000000000E+00 0. -1.
</event>
<event>
 6    1  0.6597032E-006  0.9599943E+02  0.7561462E-02  0.1288941E+00
          2   -1    0    0  501    0  0.00000000000E+00  0.00000000000E+00  0.27404059716E+03  0.27404059716E+03  0.00000000000E+00 0. -1.
         -2   -1    0    0    0  501 -0.00000000000E+00 -0.00000000000E+00 -0.55736500742E+02  0.55736500742E+02  0.00000000000E+00 0.  1.
          5    1    1    2  502    0  0.37278414248E+02 -0.50572482981E+02  0.14441526992E+01  0.62982649839E+02  0.41800000000E+01 0. -1.
         -5    1    1    2    0  502  0.23144602540E+02  0.43413404291E+02  0.65542129865E+02  0.82058756303E+02  0.41800000000E+01 0.  1.
        -11    1    1    2    0    0 -0.45346471812E+02  0.28477674685E+02  0.14922445454E+03  0.15854090417E+03  0.00000000000E+00 0.  1.
         11    1    1    2    0    0 -0.15076544976E+02 -0.21318595995E+02  0.20933593092E+01  0.26194787589E+02  0.00000000000E+00 0. -1.
</event>
<event>
 6    1  0.6597032E-006  0.1394648E+03  0.7561462E-02  0.1214051E+00
          1   -1    0    0  501    0  0.00000000000E+00  0.00000000000E+00  0.42563353527E+03  0.42563353527E+03  0.00000000000E+00 0. -1.
         -1   -1    0    0    0  501 -0.00000000000E+00 -0.00000000000E+00 -0.50463032654E+02  0.50463032654E+02  0.00000000000E+00 0.  1.
          5    1    1    2  502    0 -0.22872972452E+02 -0.66996833100E+02  0.40687666100E+02  0.81760058017E+02  0.41800000000E+01 0.  1.
         -5    1    1    2    0  502 -0.67452923400E+02  0.40458233755E+02  0.11202277234E+03  0.13694283288E+03  0.41800000000E+01 0.  1.
        -11    1    1    2    0    0  0.10619337291E+03  0.34281591388E+02  0.18655098333E+03  0.21737876930E+03  0.00000000000E+00 0. -1.
         11    1    1    2    0    0 -0.15867477058E+02 -0.77429920424E+01  0.35909080838E+02  0.40014907729E+02  0.00000000000E+00 0.  1.
</event>
<event>
 6    1  0.6597032E-006  0.8316933E+02  0.7561462E-02  0.1320291E+00
          1   -1    0    0  501    0  0.00000000000E+00  0.00000000000E+00  0.53880489254E+03  0.53880489254E+03  0.00000000000E+00 0. -1.
         -1   -1    0    0    0  501 -0.00000000000E+00 -0.00000000000E+00 -0.29531099835E+02  0.29531099835E+02  0.00000000000E+00 0.  1.
          5    1    1    2  502    0  0.29067118725E+02 -0.48953701415E+02  0.17970412190E+02  0.59847893759E+02  0.41800000000E+01 0.  1.
         -5    1    1    2    0  502 -0.14996671813E+02 -0.46779690308E+01  0.18044222259E+03  0.18117298820E+03  0.41800000000E+01 0.  1.
        -11    1    1    2    0    0 -0.44149436757E+02  0.41405823606E+02  0.12794840583E+03  0.14154296008E+03  0.00000000000E+00 0.  1.
         11    1    1    2    0    0  0.30078989846E+02  0.12225846840E+02  0.18291275209E+03  0.18577215033E+03  0.00000000000E+00 0. -1.
</event>
<event>
 6    1  0.1534580E-005  0.2075946E+03  0.7561462E-02  0.1143485E+00
         -1   -1    0    0    0  501 -0.00000000000E+00  0.00000000000E+00  0.65269391803E+02  0.65269391803E+02  0.00000000000E+00 0.  1.
          1   -1    0    0  501    0  0.00000000000E+00 -0.00000000000E+00 -0.76623618254E+03  0.76623618254E+03  0.00000000000E+00 0. -1.
          5    1    1    2  502    0  0.67088703033E+02 -0.12455083781E+03 -0.12534320867E+03  0.18905607008E+03  0.41800000000E+01 0.  1.
         -5    1    1    2    0  502  0.50473318655E+02 -0.30491063591E+02 -0.21118804773E+03  0.21930600712E+03  0.41800000000E+01 0.  1.
        -11    1    1    2    0    0  0.64810697490E+01  0.54456953501E+02 -0.10598806915E+03  0.11933580708E+03  0.00000000000E+00 0.  1.
         11    1    1    2    0    0 -0.12404309144E+03  0.10058494791E+03 -0.25844746519E+03  0.30380769006E+03  0.00000000000E+00 0. -1.
</event>
<event>
 6    1  0.6597032E-006  0.1266789E+03  0.7561462E-02  0.1232469E+00
         -2   -1    0    0    0  501 -0.00000000000E+00  0.00000000000E+00  0.31998741919E+03  0.31998741919E+03  0.00000000000E+00 0.  1.
          2   -1    0    0  501    0  0.00000000000E+00 -0.00000000000E+00 -0.76033516407E+02  0.76033516407E+02  0.00000000000E+00 0. -1.
          5    1    1    2  502    0  0.29634151585E+02 -0.10161708431E+03  0.14804589627E+03  0.18204195826E+03  0.41800000000E+01 0.  1.
         -5    1    1    2    0  502  0.19529058949E+02  0.37590121405E+02  0.71858961517E+02  0.83519962410E+02  0.41800000000E+01 0.  1.
        -11    1    1    2    0    0  0.14720702290E+02  0.44559531085E+00  0.36605216715E+02  0.39456805774E+02  0.00000000000E+00 0.  1.
         11    1    1    2    0    0 -0.63883912823E+02  0.63581367591E+02 -0.12556171725E+02  0.91002209153E+02  0.00000000000E+00 0. -1.
</event>
<event>
 6    1  0.6597032E-006  0.2126098E+03  0.7561462E-02  0.1139516E+00
         -2   -1    0    0    0  501 -0.00000000000E+00  0.00000000000E+00  0.12396714410E+03  0.12396714410E+03  0.00000000000E+00 0. -1.
          2   -1    0    0  501    0  0.00000000000E+00 -0.00000000000E+00 -0.46970670774E+03  0.46970670774E+03  0.00000000000E+00 0.  1.
          5    1    1    2  502    0 -0.13725135760E+02  0.26807448206E+02  0.10912586888E+00  0.30405639927E+02  0.41800000000E+01 0. -1.
         -5    1    1    2    0  502  0.11146970530E+03  0.14663835797E+03 -0.27943612582E+03  0.33470931275E+03  0.41800000000E+01 0. -1.
        -11    1    1    2    0    0 -0.71296311783E+02 -0.16942903751E+03 -0.77645182581E+02  0.19954482505E+03  0.00000000000E+00 0.  1.
         11    1    1    2    0    0 -0.26448257760E+02 -0.40167686706E+01  0.11232618893E+02  0.29014074107E+02  0.00000000000E+00 0. -1.
</event>
<event>
 6    1  0.6597032E-006  0.1149520E+03  0.7561462E-02  0.1251665E+00
          1   -1    0    0  501    0  0.00000000000E+00  0.00000000000E+00  0.40522900985E+03  0.40522900985E+03  0.00000000000E+00 0. -1.
         -1   -1    0    0    0  501 -0.00000000000E+00 -0.00000000000E+00 -0.57987366690E+02  0.57987366690E+02  0.00000000000E+00 0.  1.
          5    1    1    2  502    0 -0.41576378329E+02 -0.39688568628E+02  0.35910849966E+02  0.67903160898E+02  0.41800000000E+01 0. -1.
         -5    1    1    2    0  502  0.77104781927E+02 -0.68161949728E+01  0.12981052419E+02  0.78597633754E+02  0.41800000000E+01 0. -1.
        -11    1    1    2    0    0 -0.45259142636E+02 -0.19813377424E+01  0.21565544930E+03  0.22036240266E+03  0.00000000000E+00 0. -1.
         11    1    1    2    0    0  0.97307390389E+01  0.48486101343E+02  0.82694291475E+02  0.96353179233E+02  0.00000000000E+00 0.  1.
</event>
<event>
 6    1  0.6597032E-006  0.8498387E+02  0.7561462E-02  0.1315475E+00
          1   -1    0    0  501    0  0.00000000000E+00  0.00000000000E+00  0.72909826632E+02  0.72909826632E+02  0.00000000000E+00 0. -1.
         -1   -1    0    0    0  501 -0.00000000000E+00 -0.00000000000E+00 -0.26555071047E+03  0.26555071047E+03  0.00000000000E+00 0.  1.
          5    1    1    2  502    0 -0.77917113329E+02  0.61086869307E+01 -0.17413277535E+03  0.19091382468E+03  0.41800000000E+01 0.  1.
         -5    1    1    2    0  502  0.29346601254E+02 -0.25760620647E+02 -0.15523064431E+02  0.42228787701E+02  0.41800000000E+01 0.  1.
        -11    1    1    2    0    0  0.29328642474E+02  0.12831279345E+02  0.43812181006E+02  0.54261572070E+02  0.00000000000E+00 0. -1.
         11    1    1    2    0    0  0.19241869600E+02  0.68206543719E+01 -0.46797225067E+02  0.51056352648E+02  0.00000000000E+00 0.  1.
</event>
<event>
 6    1  0.6597032E-006  0.6150981E+02  0.7561462E-02  0.1391603E+00
         -2   -1    0    0    0  501 -0.00000000000E+00  0.00000000000E+00  0.71697782615E+02  0.71697782615E+02  0.00000000000E+00 0.  1.
          2   -1    0    0  501    0  0.00000000000E+00 -0.00000000000E+00 -0.19075438720E+03  0.19075438720E+03  0.00000000000E+00 0. -1.
          5    1    1    2  502    0 -0.25610907067E+02 -0.12413588421E+02  0.37132226775E+02  0.46971165661E+02  0.41800000000E+01 0.  1.
         -5    1    1    2    0  502 -0.48070069738E+01 -0.20536500750E+02 -0.95981061032E+02  0.98360010451E+02  0.41800000000E+01 0.  1.
        -11    1    1    2    0    0  0.46421646930E+02  0.15187368899E+02  0.36055410615E+01  0.48975763436E+02  0.00000000000E+00 0.  1.
         11    1    1    2    0    0 -0.16003732890E+02  0.17762720272E+02 -0.63813311393E+02  0.68145230272E+02  0.00000000000E+00 0. -1.
</event>
<event>
 6    1  0.6597032E-006  0.9777298E+02  0.7561462E-02  0.1285050E+00
          1   -1    0    0  501    0  0.00000000000E+00  0.00000000000E+00  0.14242315288E+02  0.14242315288E+02  0.00000000000E+00 0. -1.
         -1   -1    0    0    0  501 -0.00000000000E+00 -0.00000000000E+00 -0.11520343045E+04  0.11520343045E+04  0.00000000000E+00 0.  1.
          5    1    1    2  502    0 -0.60151112546E+02  0.20348864568E+02 -0.76145903500E+03  0.76411358253E+03  0.41800000000E+01 0.  1.
         -5    1    1    2    0  502  0.21668268513E+02  0.18605503818E+02 -0.42605600840E+02  0.51462493679E+02  0.41800000000E+01 0.  1.
        -11    1    1    2    0    0 -0.25667177837E+02 -0.27967388572E+02 -0.76955993281E+02  0.85809112240E+02  0.00000000000E+00 0.  1.
         11    1    1    2    0    0  0.64150021870E+02 -0.10986979814E+02 -0.25677136007E+03  0.26489143131E+03  0.00000000000E+00 0. -1.
</event>
<event>
 6    1  0.6597032E-006  0.1264672E+03  0.7561462E-02  0.1232794E+00
          1   -1    0    0  501    0  0.00000000000E+00  0.00000000000E+00  0.26135535677E+03  0.26135535677E+03  0.00000000000E+00 0. -1.
         -1   -1    0    0    0  501 -0.00000000000E+00 -0.00000000000E+00 -0.83959415163E+02  0.83959415163E+02  0.00000000000E+00 0.  1.
          5    1    1    2  502    0 -0.11858081561E+02  0.71386845889E+02  0.12891348263E+02  0.73623061090E+02  0.41800000000E+01 0. -1.
         -5    1    1    2    0  502 -0.76449859725E+02 -0.31606905482E+02  0.49103728612E+02  0.96292398920E+02  0.41800000000E+01 0. -1.
        -11    1    1    2    0    0  0.39716192780E+02 -0.11291647534E+02  0.11154333132E+03  0.11894028768E+03  0.00000000000E+00 0. -1.
         11    1    1    2    0    0  0.48591748506E+02 -0.28488292873E+02  0.38575334123E+01  0.56459024237E+02  0.00000000000E+00 0.  1.
</event>
<event>
 6    1  0.6597032E-006  0.1059412E+03  0.7561462E-02  0.1268276E+00
         -4   -1    0    0    0  501 -0.00000000000E+00  0.00000000000E+00  0.74674359116E+02  0.74674359116E+02  0.00000000000E+00 0.  1.
          4   -1    0    0  501    0  0.00000000000E+00 -0.00000000000E+00 -0.17826082261E+03  0.17826082261E+03  0.00000000000E+00 0. -1.
          5    1    1    2  502    0 -0.58038792325E+02 -0.55310872053E+02 -0.46826273613E+02  0.92940660005E+02  0.41800000000E+01 0.  1.
         -5    1    1    2    0  502  0.24158253231E+02  0.40561151764E+02 -0.59528103200E+01  0.47767526441E+02  0.41800000000E+01 0.  1.
        -11    1    1    2    0    0 -0.24510237608E+02  0.40940703045E+01  0.10425424306E+02  0.26948147083E+02  0.00000000000E+00 0.  1.
         11    1    1    2    0    0  0.58390776701E+02  0.10655649984E+02 -0.61232803863E+02  0.85278848194E+02  0.00000000000E+00 0. -1.
</event>
<event>
 6    1  0.6597032E-006  0.1769017E+03  0.7561462E-02  0.1170836E+00
          2   -1    0    0  501    0  0.00000000000E+00  0.00000000000E+00  0.87111360002E+03  0.87111360002E+03  0.00000000000E+00 0. -1.
         -2   -1    0    0    0  501 -0.00000000000E+00 -0.00000000000E+00 -0.44358564609E+02  0.44358564609E+02  0.00000000000E+00 0.  1.
          5    1    1    2  502    0 -0.39902824010E+02 -0.12954103350E+03  0.23558457748E+03  0.27182840225E+03  0.41800000000E+01 0.  1.
         -5    1    1    2    0  502  0.43501586463E+02 -0.16606447480E+02  0.27952571976E+02  0.54469999108E+02  0.41800000000E+01 0.  1.
        -11    1    1    2    0    0  0.13010702484E+02 -0.87345784794E+01  0.32716425584E+02  0.36275828637E+02  0.00000000000E+00 0.  1.
         11    1    1    2    0    0 -0.16609464937E+02  0.15488205946E+03  0.53050146037E+03  0.55289793463E+03  0.00000000000E+00 0. -1.
</event>
<event>
 6    1  0.6597032E-006  0.1060922E+03  0.7561462E-02  0.1267982E+00
         -2   -1    0    0    0  501 -0.00000000000E+00  0.00000000000E+00  0.26710563599E+03  0.26710563599E+03  0.00000000000E+00 0.  1.
          2   -1    0    0  501    0  0.00000000000E+00 -0.00000000000E+00 -0.74363844603E+02  0.74363844603E+02  0.00000000000E+00 0. -1.
          5    1    1    2  502    0 -0.31305489505E+02  0.71282982200E+02  0.56498487633E+02  0.96285246685E+02  0.41800000000E+01 0. -1.
         -5    1    1    2    0  502  0.22350378350E+02 -0.18941438423E+02  0.13721802230E+03  0.14037298724E+03  0.41800000000E+01 0.  1.
        -11    1    1    2    0    0  0.49306842034E+02 -0.36177767736E+02  0.24774049378E+01  0.61205662197E+02  0.00000000000E+00 0.  1.
         11    1    1    2    0    0 -0.40351730880E+02 -0.16163776040E+02 -0.34521234824E+01  0.43605584475E+02  0.00000000000E+00 0. -1.
</event>
<event>
 6    1  0.7236043E-006  0.2279809E+03  0.7561462E-02  0.1128069E+00
          3   -1    0    0  501    0  0.00000000000E+00  0.00000000000E+00  0.16618315502E+04  0.16618315502E+04  0.00000000000E+00 0. -1.
         -3   -1    0    0    0  501 -0.00000000000E+00 -0.00000000000E+00 -0.33791563804E+02  0.33791563804E+02  0.00000000000E+00 0.  1.
          5    1    1    2  502    0  0.14237256569E+03 -0.17280712124E+03  0.65191486785E+03  0.68930596685E+03  0.41800000000E+01 0. -1.
         -5    1    1    2    0  502 -0.89294333212E+01  0.14775817867E+02  0.49387651654E+02  0.52484970315E+02  0.41800000000E+01 0. -1.
        -11    1    1    2    0    0 -0.64534146388E+02  0.35436733832E+02  0.18946802812E+03  0.20326965301E+03  0.00000000000E+00 0.  1.
         11    1    1    2    0    0 -0.68908985985E+02  0.12259456954E+03  0.73726943877E+03  0.75056252383E+03  0.00000000000E+00 0. -1.
</event>
<event>
 6    1  0.6597032E-006  0.1115747E+03  0.7561462E-02  0.1257681E+00
         -4   -1    0    0    0  501 -0.00000000000E+00  0.00000000000E+00  0.56649468873E+02  0.56649468873E+02  0.00000000000E+00 0.  1.
          4   -1    0    0  501    0  0.00000000000E+00 -0.00000000000E+00 -0.23363192435E+03  0.23363192435E+03  0.00000000000E+00 0. -1.
          5    1    1    2  502    0 -0.44009372483E+02  0.20940008405E+02 -0.38435903454E+02  0.62210126930E+02  0.41800000000E+01 0. -1.
         -5    1    1    2    0  502  0.64296996467E+02 -0.46745820379E+02 -0.40579676709E+02  0.89350198877E+02  0.41800000000E+01 0. -1.
        -11    1    1    2    0    0 -0.37542097321E+02 -0.22201617955E+02 -0.63943198134E+02  0.77401895963E+02  0.00000000000E+00 0.  1.
         11    1    1    2    0    0  0.17254473337E+02  0.48007429929E+02 -0.34023677176E+02  0.61319171449E+02  0.00000000000E+00 0. -1.
</event>
<event>
 6    1  0.6597032E-006  0.1910358E+03  0.7561462E-02  0.1157530E+00
         -1   -1    0    0    0  501 -0.00000000000E+00  0.00000000000E+00  0.40917634367E+02  0.40917634367E+02  0.00000000000E+00 0.  1.
          1   -1    0    0  501    0  0.00000000000E+00 -0.00000000000E+00 -0.10932642754E+04  0.10932642754E+04  0.00000000000E+00 0. -1.
          5    1    1    2  502    0 -0.10762928735E+02 -0.17535947226E+02 -0.21264292533E+02  0.29882982063E+02  0.41800000000E+01 0. -1.
         -5    1    1    2    0  502  0.37841014923E+02  0.17932402089E+03 -0.32807951209E+03  0.37582267830E+03  0.41800000000E+01 0. -1.
        -11    1    1    2    0    0  0.23100854482E+02 -0.43229346898E+02 -0.93965988430E+02  0.10598128558E+03  0.00000000000E+00 0.  1.
         11    1    1    2    0    0 -0.50178940670E+02 -0.11855872676E+03 -0.60903684795E+03  0.62249496378E+03  0.00000000000E+00 0. -1.
</event>
<event>
 6    1  0.6597032E-006  0.1303473E+03  0.7561462E-02  0.1226941E+00
         -3   -1    0    0    0  501 -0.00000000000E+00  0.00000000000E+00  0.47447061135E+03  0.47447061135E+03  0.00000000000E+00 0.  1.
          3   -1    0    0  501    0  0.00000000000E+00 -0.00000000000E+00 -0.38642421541E+02  0.38642421541E+02  0.00000000000E+00 0. -1.
          5    1    1    2  502    0 -0.37114784568E+02  0.77291920687E+02  0.99478487615E+02  0.13139630944E+03  0.41800000000E+01 0.  1.
         -5    1    1    2    0  502 -0.35673618536E+02 -0.46748428737E+02  0.11365258252E+03  0.12803282611E+03  0.41800000000E+01 0.  1.
        -11    1    1    2    0    0 -0.15721351130E+02  0.99077130959E+01  0.71505534830E+02  0.73880749668E+02  0.00000000000E+00 0.  1.
         11    1    1    2    0    0  0.88509754234E+02 -0.40451205045E+02  0.15119158485E+03  0.17980314768E+03  0.00000000000E+00 0. -1.
</event>
<event>
 6    1  0.6597032E-006  0.1535386E+03  0.7561462E-02  0.1196191E+00
          2   -1    0    0  501    0  0.00000000000E+00  0.00000000000E+00  0.94327064164E+03  0.94327064164E+03  0.00000000000E+00 0. -1.
         -2   -1    0    0    0  501 -0.00000000000E+00 -0.00000000000E+00 -0.36465117389E+02  0.36465117389E+02  0.00000000000E+00 0.  1.
          5    1    1    2  502    0  0.23909583114E+02  0.15059002905E+03  0.23724891707E+03  0.28205238177E+03  0.41800000000E+01 0.  1.
         -5    1    1    2    0  502 -0.50865053036E+01 -0.68330404811E+01  0.14662570721E+03  0.14693241097E+03  0.41800000000E+01 0.  1.
        -11    1    1    2    0    0 -0.11382827279E+02 -0.69481128363E+02  0.10641224673E+03  0.12759609010E+03  0.00000000000E+00 0.  1.
         11    1    1    2    0    0 -0.74402505316E+01 -0.74275860208E+02  0.41651865324E+03  0.42315487618E+03  0.00000000000E+00 0. -1.
</event>
<event>
 6    1  0.6597032E-006  0.9262501E+02  0.7561462E-02  0.1296617E+00
          4   -1    0    0  501    0  0.00000000000E+00  0.00000000000E+00  0.12244062425E+03  0.12244062425E+03  0.00000000000E+00 0. -1.
         -4   -1    0    0    0  501 -0.00000000000E+00 -0.00000000000E+00 -0.99307728953E+02  0.99307728953E+02  0.00000000000E+00 0.  1.
          5    1    1    2  502    0  0.30123960001E+02  0.47150659957E+02  0.48132880038E+02  0.73924855369E+02  0.41800000000E+01 0. -1.
         -5    1    1    2    0  502 -0.30123363604E+02 -0.30279296512E+02 -0.31711546586E+02  0.53360541779E+02  0.41800000000E+01 0. -1.
        -11    1    1    2    0    0 -0.38131846984E+02 -0.27059998355E+02  0.22578916045E+02  0.51923874231E+02  0.00000000000E+00 0. -1.
         11    1    1    2    0    0  0.38131250587E+02  0.10188634910E+02 -0.15867354204E+02  0.42539081820E+02  0.00000000000E+00 0.  1.
</event>
<event>
 6    1  0.6597032E-006  0.1243963E+03  0.7561462E-02  0.1236016E+00
          1   -1    0    0  501    0  0.00000000000E+00  0.00000000000E+00  0.13132391853E+03  0.13132391853E+03  0.00000000000E+00 0. -1.
         -1   -1    0    0    0  501 -0.00000000000E+00 -0.00000000000E+00 -0.13954625190E+03  0.13954625190E+03  0.00000000000E+00 0.  1.
          5    1    1    2  502    0 -0.98119243287E+02  0.14212460119E+02 -0.28414927081E+02  0.10321947688E+03  0.41800000000E+01 0. -1.
         -5    1    1    2    0  502  0.27835085131E+02 -0.35045624385E+02 -0.23956614469E+01  0.45013324100E+02  0.41800000000E+01 0. -1.
        -11    1    1    2    0    0 -0.23920599281E+01 -0.20745057779E+02  0.32178629053E+02  0.38360703079E+02  0.00000000000E+00 0. -1.
         11    1    1    2    0    0  0.72676218084E+02  0.41578222045E+02 -0.95903738947E+01  0.84276666373E+02  0.00000000000E+00 0.  1.
</event>
<event>
 6    1  0.6597032E-006  0.1778294E+03  0.7561462E-02  0.1169920E+00
         -1   -1    0    0    0  501 -0.00000000000E+00  0.00000000000E+00  0.55319524994E+02  0.55319524994E+02  0.00000000000E+00 0.  1.
          1   -1    0    0  501    0  0.00000000000E+00 -0.00000000000E+00 -0.65171359204E+03  0.65171359204E+03  0.00000000000E+00 0. -1.
          5    1    1    2  502    0 -0.80635127033E+02  0.11394189790E+03 -0.28261484790E+03  0.31523547463E+03  0.41800000000E+01 0. -1.
         -5    1    1    2    0  502  0.63625889625E+02 -0.10672605901E+03 -0.10422655835E+03  0.16223240542E+03  0.41800000000E+01 0.  1.
        -11    1    1    2    0    0 -0.35766777563E+02 -0.14133679667E+02 -0.65009879660E+02  0.75533487484E+02  0.00000000000E+00 0.  1.
         11    1    1    2    0    0  0.52776014971E+02  0.69178407828E+01 -0.14454278113E+03  0.15403174950E+03  0.00000000000E+00 0. -1.
</event>
<event>
 6    1  0.6597032E-006  0.1385844E+03  0.7561462E-02  0.1215247E+00
          1   -1    0    0  501    0  0.00000000000E+00  0.00000000000E+00  0.94505720828E+03  0.94505720828E+03  0.00000000000E+00 0. -1.
         -1   -1    0    0    0  501 -0.00000000000E+00 -0.00000000000E+00 -0.21492437720E+02  0.21492437720E+02  0.00000000000E+00 0.  1.
          5    1    1    2  502    0  0.68374751408E+02  0.18153182617E+02  0.20177195041E+03  0.21385517773E+03  0.41800000000E+01 0.  1.
         -5    1    1    2    0  502 -0.46471502573E+02  0.68434088862E+02  0.24197802149E+03  0.25576094376E+03  0.41800000000E+01 0.  1.
        -11    1    1    2    0    0 -0.54953725599E+02 -0.55419544646E+02  0.22629256365E+03  0.23937326970E+03  0.00000000000E+00 0.  1.
         11    1    1    2    0    0  0.33050476763E+02 -0.31167726833E+02  0.25352223501E+03  0.25756025481E+03  0.00000000000E+00 0. -1.
</event>
<event>
 6    1  0.6597032E-006  0.8561108E+02  0.7561462E-02  0.1313842E+00
          2   -1    0    0  501    0  0.00000000000E+00  0.00000000000E+00  0.26903621663E+03  0.26903621663E+03  0.00000000000E+00 0. -1.
         -2   -1    0    0    0  501 -0.00000000000E+00 -0.00000000000E+00 -0.52240444119E+02  0.52240444119E+02  0.00000000000E+00 0.  1.
          5    1    1    2  502    0 -0.19745297871E+02 -0.15600503599E+02 -0.26958323500E+02  0.37114365231E+02  0.41800000000E+01 0.  1.
         -5    1    1    2    0  502  0.36604632210E+02  0.35971155045E+02  0.94159523487E+02  0.10731873722E+03  0.41800000000E+01 0.  1.
        -11    1    1    2    0    0 -0.43787445288E+02 -0.41242546666E+02  0.91714834298E+02  0.10968089556E+03  0.00000000000E+00 0.  1.
         11    1    1    2    0    0  0.26928110950E+02  0.20871895220E+02  0.57879738226E+02  0.67162662742E+02  0.00000000000E+00 0. -1.
</event>
<event>
 6    1  0.6597032E-006  0.1122394E+03  0.7561462E-02  0.1256478E+00
         -2   -1    0    0    0  501 -0.00000000000E+00  0.00000000000E+00  0.46940350161E+02  0.46940350161E+02  0.00000000000E+00 0.  1.
          2   -1    0    0  501    0  0.00000000000E+00 -0.00000000000E+00 -0.27571490775E+03  0.27571490775E+03  0.00000000000E+00 0. -1.
          5    1    1    2  502    0 -0.64056178291E+02 -0.21915878742E+02 -0.76332766170E+02  0.10211593073E+03  0.41800000000E+01 0. -1.
         -5    1    1    2    0  502  0.60098781519E+02 -0.93602544864E+01 -0.59265430197E+02  0.85025534520E+02  0.41800000000E+01 0. -1.
        -11    1    1    2    0    0 -0.39413785321E+02 -0.42167317013E+01 -0.23446329120E+02  0.46053855960E+02  0.00000000000E+00 0.  1.
         11    1    1    2    0    0  0.43371182093E+02  0.35492864930E+02 -0.69730032104E+02  0.89459936700E+02  0.00000000000E+00 0. -1.
</event>
<event>
 6    1  0.6597032E-006  0.1062676E+03  0.7561462E-02  0.1267642E+00
         -1   -1    0    0    0  501 -0.00000000000E+00  0.00000000000E+00  0.43709778606E+03  0.43709778606E+03  0.00000000000E+00 0.  1.
          1   -1    0    0  501    0  0.00000000000E+00 -0.00000000000E+00 -0.37959948165E+02  0.37959948165E+02  0.00000000000E+00 0. -1.
          5    1    1    2  502    0 -0.56218365033E+02 -0.54010943121E+02  0.20546452821E+03  0.21979725042E+03  0.41800000000E+01 0. -1.
         -5    1    1    2    0  502  0.55017096463E+02  0.25815554121E+01  0.99176913023E+02  0.11352126589E+03  0.41800000000E+01 0. -1.
        -11    1    1    2    0    0 -0.29343405588E+02  0.29636856677E+02  0.18090917853E+01  0.41745078013E+02  0.00000000000E+00 0. -1.
         11    1    1    2    0    0  0.30544674158E+02  0.21792531033E+02  0.92687304883E+02  0.99994139902E+02  0.00000000000E+00 0.  1.
</event>
<event>
 6    1  0.6597032E-006  0.2684061E+03  0.7561462E-02  0.1102195E+00
          2   -1    0    0  501    0  0.00000000000E+00  0.00000000000E+00  0.31265426147E+03  0.31265426147E+03  0.00000000000E+00 0. -1.
         -2   -1    0    0    0  501 -0.00000000000E+00 -0.00000000000E+00 -0.25598027578E+03  0.25598027578E+03  0.00000000000E+00 0.  1.
          5    1    1    2  502    0 -0.24084353967E+03 -0.17994722394E+02  0.50973050790E+02  0.24687070491E+03  0.41800000000E+01 0. -1.
         -5    1    1    2    0  502 -0.18714740144E+02 -0.27051518055E+01 -0.37616736292E+02  0.42308989520E+02  0.41800000000E+01 0. -1.
        -11    1    1    2    0    0  0.18345932903E+03  0.56268493717E+02  0.25452644091E+02  0.19357506525E+03  0.00000000000E+00 0. -1.
         11    1    1    2    0    0  0.76098950779E+02 -0.35568619518E+02  0.17865027104E+02  0.85879777581E+02  0.00000000000E+00 0.  1.
</event>
<event>
 6    1  0.6597032E-006  0.9100158E+02  0.7561462E-02  0.1300444E+00
         -3   -1    0    0    0  501 -0.00000000000E+00  0.00000000000E+00  0.89119605985E+02  0.89119605985E+02  0.00000000000E+00 0.  1.
          3   -1    0    0  501    0  0.00000000000E+00 -0.00000000000E+00 -0.17214823581E+03  0.17214823581E+03  0.00000000000E+00 0. -1.
          5    1    1    2  502    0  0.46768586692E+02 -0.13745738425E+01  0.27444363210E+02  0.54404555199E+02  0.41800000000E+01 0. -1.
         -5    1    1    2    0  502 -0.38884112764E+02 -0.55608741821E+02 -0.51692179711E+02  0.85404099642E+02  0.41800000000E+01 0. -1.
        -11    1    1    2    0    0 -0.19289148526E+02  0.50191729003E+02  0.71153993449E+01  0.54239375172E+02  0.00000000000E+00 0.  1.
         11    1    1    2    0    0  0.11404674598E+02  0.67915866605E+01 -0.65896212669E+02  0.67219811783E+02  0.00000000000E+00 0. -1.
</event>
<event>
 6    1  0.6597032E-006  0.1371169E+03  0.7561462E-02  0.1217262E+00
         -1   -1    0    0    0  501 -0.00000000000E+00  0.00000000000E+00  0.27255364812E+02  0.27255364812E+02  0.00000000000E+00 0.  1.
          1   -1    0    0  501    0  0.00000000000E+00 -0.00000000000E+00 -0.10310801491E+04  0.10310801491E+04  0.00000000000E+00 0. -1.
          5    1    1    2  502    0  0.10956741927E+03 -0.87353062670E+01 -0.13558839375E+03  0.17459384257E+03  0.41800000000E+01 0.  1.
         -5    1    1    2    0  502 -0.18015568740E+02 -0.24780515708E+02 -0.13998965921E+03  0.14336391374E+03  0.41800000000E+01 0.  1.
        -11    1    1    2    0    0 -0.64927508089E+02 -0.24570285559E+02 -0.36117934004E+03  0.36779042390E+03  0.00000000000E+00 0. -1.
         11    1    1    2    0    0 -0.26624342442E+02  0.58086107534E+02 -0.36706739124E+03  0.37258733367E+03  0.00000000000E+00 0.  1.
</event>
<event>
 6    1  0.6597032E-006  0.9847080E+02  0.7561462E-02  0.1283545E+00
         -1   -1    0    0    0  501 -0.00000000000E+00  0.00000000000E+00  0.55994317323E+02  0.55994317323E+02  0.00000000000E+00 0.  1.
          1   -1    0    0  501    0  0.00000000000E+00 -0.00000000000E+00 -0.26425321140E+03  0.26425321140E+03  0.00000000000E+00 0. -1.
          5    1    1    2  502    0  0.36322293716E+02  0.14094155617E+02 -0.71599279457E+02  0.81620361811E+02  0.41800000000E+01 0. -1.
         -5    1    1    2    0  502 -0.38342099293E+02 -0.45077348551E+02  0.11809391987E+02  0.60489817901E+02  0.41800000000E+01 0. -1.
        -11    1    1    2    0    0  0.32760921034E+02 -0.20371906673E+02 -0.59143768175E+02  0.70613581147E+02  0.00000000000E+00 0.  1.
         11    1    1    2    0    0 -0.30741115456E+02  0.51355099606E+02 -0.89325238428E+02  0.10752376786E+03  0.00000000000E+00 0. -1.
</event>
<event>
 6    1  0.6597032E-006  0.9852612E+02  0.7561462E-02  0.1283426E+00
         -1   -1    0    0    0  501 -0.00000000000E+00  0.00000000000E+00  0.53365195089E+02  0.53365195089E+02  0.00000000000E+00 0.  1.
          1   -1    0    0  501    0  0.00000000000E+00 -0.00000000000E+00 -0.22998135421E+03  0.22998135421E+03  0.00000000000E+00 0. -1.
          5    1    1    2  502    0 -0.30823852472E+02 -0.49873375951E+02 -0.62291934243E+02  0.85645904641E+02  0.41800000000E+01 0. -1.
         -5    1    1    2    0  502  0.11437608608E+02  0.65728728689E+02 -0.43947404130E+02  0.79999571220E+02  0.41800000000E+01 0.  1.
        -11    1    1    2    0    0  0.29876321095E+02 -0.37158960629E+02 -0.47569164252E+01  0.47916710771E+02  0.00000000000E+00 0.  1.
         11    1    1    2    0    0 -0.10490077231E+02  0.21303607892E+02 -0.65619904319E+02  0.69784362664E+02  0.00000000000E+00 0. -1.
</event>
<event>
 6    1  0.6597032E-006  0.2552477E+03  0.7561462E-02  0.1110033E+00
          1   -1    0    0  501    0  0.00000000000E+00  0.00000000000E+00  0.36053003678E+02  0.36053003678E+02  0.00000000000E+00 0. -1.
         -1   -1    0    0    0  501 -0.00000000000E+00 -0.00000000000E+00 -0.20913034984E+04  0.20913034984E+04  0.00000000000E+00 0.  1.
          5    1    1    2  502    0  0.23370431468E+03  0.18760049356E+01 -0.11474128932E+04  0.11709803781E+04  0.41800000000E+01 0. -1.
         -5    1    1    2    0  502 -0.82785008153E+00 -0.26476722056E+02 -0.24950731477E+03  0.25094436569E+03  0.41800000000E+01 0. -1.
        -11    1    1    2    0    0 -0.87376652793E+01 -0.19612484682E+02 -0.97866752995E+02  0.10019429970E+03  0.00000000000E+00 0.  1.
         11    1    1    2    0    0 -0.22413879932E+03  0.44213201802E+02 -0.56046353379E+03  0.60523745859E+03  0.00000000000E+00 0. -1.
</event>
<event>
 6    1  0.6597032E-006  0.1139101E+03  0.7561462E-02  0.1253496E+00
         -2   -1    0    0    0  501 -0.00000000000E+00  0.00000000000E+00  0.12840188478E+02  0.12840188478E+02  0.00000000000E+00 0.  1.
          2   -1    0    0  501    0  0.00000000000E+00 -0.00000000000E+00 -0.11524117944E+04  0.11524117944E+04  0.00000000000E+00 0. -1.
          5    1    1    2  502    0  0.10286403625E+02  0.42507674351E+02 -0.98025767663E+02  0.10742083599E+03  0.41800000000E+01 0. -1.
         -5    1    1    2    0  502 -0.66011599081E+02 -0.42208552548E+02 -0.49654305516E+03  0.50270425813E+03  0.41800000000E+01 0. -1.
        -11    1    1    2    0    0  0.68523537153E+02 -0.28684700360E+02 -0.37205686359E+03  0.37940031224E+03  0.00000000000E+00 0.  1.
         11    1    1    2    0    0 -0.12798341697E+02  0.28385578558E+02 -0.17294591947E+03  0.17572657648E+03  0.00000000000E+00 0. -1.
</event>
<event>
 6    1  0.6597032E-006  0.8373121E+02  0.7561462E-02  0.1318784E+00
         -2   -1    0    0    0  501 -0.00000000000E+00  0.00000000000E+00  0.84127004414E+03  0.84127004414E+03  0.00000000000E+00 0.  1.
          2   -1    0    0  501    0  0.00000000000E+00 -0.00000000000E+00 -0.25857170634E+02  0.25857170634E+02  0.00000000000E+00 0. -1.
          5    1    1    2  502    0  0.40948627821E+02 -0.39133369967E+01  0.24339134510E+03  0.24687835790E+03  0.41800000000E+01 0. -1.
         -5    1    1    2    0  502 -0.74700723126E+02  0.20019764267E+02  0.48014781579E+03  0.48635417794E+03  0.41800000000E+01 0.  1.
        -11    1    1    2    0    0  0.11994557762E+01 -0.16068281398E+02 -0.15097013774E+02  0.22080493340E+02  0.00000000000E+00 0. -1.
         11    1    1    2    0    0  0.32552639530E+02 -0.38145872179E-01  0.10697072639E+03  0.11181418560E+03  0.00000000000E+00 0.  1.
</event>
<event>
 6    1  0.6597032E-006  0.2123844E+03  0.7561462E-02  0.1139692E+00
         -1   -1    0    0    0  501 -0.00000000000E+00  0.00000000000E+00  0.15726073267E+03  0.15726073267E+03  0.00000000000E+00 0.  1.
          1   -1    0    0  501    0  0.00000000000E+00 -0.00000000000E+00 -0.35515358214E+03  0.35515358214E+03  0.00000000000E+00 0. -1.
          5    1    1    2  502    0 -0.26203804158E+00 -0.23688826643E+02  0.18518078001E+02  0.30358207860E+02  0.41800000000E+01 0.  1.
         -5    1    1    2    0  502  0.19770021588E+03  0.29421290881E+02 -0.45111548353E+02  0.20494758332E+03  0.41800000000E+01 0.  1.
        -11    1    1    2    0    0 -0.12222959982E+03 -0.21076737644E+02 -0.15521121429E+03  0.19868272442E+03  0.00000000000E+00 0.  1.
         11    1    1    2    0    0 -0.75208578018E+02  0.15344273405E+02 -0.16088164830E+02  0.78425799208E+02  0.00000000000E+00 0. -1.
</event>
<event>
 6    1  0.8809573E-006  0.4591076E+03  0.7561462E-02  0.1025040E+00
         -1   -1    0    0    0  501 -0.00000000000E+00  0.00000000000E+00  0.43344061294E+03  0.43344061294E+03  0.00000000000E+00 0.  1.
          1   -1    0    0  501    0  0.00000000000E+00 -0.00000000000E+00 -0.69403439612E+03  0.69403439612E+03  0.00000000000E+00 0. -1.
          5    1    1    2  502    0 -0.31281765513E+03  0.32059594860E+03  0.17794757778E+03  0.48199529091E+03  0.41800000000E+01 0. -1.
         -5    1    1    2    0  502  0.37414576372E+01  0.99794293380E+01 -0.11437926366E+02  0.16182894510E+02  0.41800000000E+01 0. -1.
        -11    1    1    2    0    0  0.21142971568E+03 -0.27358517689E+03 -0.35293649684E+03  0.49408050405E+03  0.00000000000E+00 0. -1.
         11    1    1    2    0    0  0.97646481812E+02 -0.56990201053E+02 -0.74166937756E+02  0.13521631959E+03  0.00000000000E+00 0.  1.
</event>
<event>
 6    1  0.6597032E-006  0.1311081E+03  0.7561462E-02  0.1225821E+00
         -2   -1    0    0    0  501 -0.00000000000E+00  0.00000000000E+00  0.39898452813E+02  0.39898452813E+02  0.00000000000E+00 0.  1.
          2   -1    0    0  501    0  0.00000000000E+00 -0.00000000000E+00 -0.60516716193E+03  0.60516716193E+03  0.00000000000E+00 0. -1.
          5    1    1    2  502    0  0.16629701186E+02  0.23411871320E+02 -0.14784077198E+02  0.32568451281E+02  0.41800000000E+01 0. -1.
         -5    1    1    2    0  502 -0.84704475750E+02 -0.89038747493E+02 -0.16936758456E+03  0.20929786876E+03  0.41800000000E+01 0. -1.
        -11    1    1    2    0    0  0.21624227426E+02 -0.81011100126E+01 -0.16672584241E+02  0.28481753114E+02  0.00000000000E+00 0.  1.
         11    1    1    2    0    0  0.46450547138E+02  0.73727986186E+02 -0.36444446312E+03  0.37471754159E+03  0.00000000000E+00 0. -1.
</event>
<event>
 6    1  0.6597032E-006  0.1095908E+03  0.7561462E-02  0.1261329E+00
          2   -1    0    0  501    0  0.00000000000E+00  0.00000000000E+00  0.63970717195E+02  0.63970717195E+02  0.00000000000E+00 0. -1.
         -2   -1    0    0    0  501 -0.00000000000E+00 -0.00000000000E+00 -0.21993216850E+03  0.21993216850E+03  0.00000000000E+00 0.  1.
          5    1    1    2  502    0  0.12270157969E+02 -0.75812653361E+02 -0.71803927488E+02  0.10522068042E+03  0.41800000000E+01 0. -1.
         -5    1    1    2    0  502 -0.82600355475E+01  0.43026329821E+02 -0.61387342219E+02  0.75533909139E+02  0.41800000000E+01 0.  1.
        -11    1    1    2    0    0 -0.83574814334E+00 -0.32691958007E+02  0.27114135187E+01  0.32814849635E+02  0.00000000000E+00 0. -1.
         11    1    1    2    0    0 -0.31743742782E+01  0.65478281547E+02 -0.25481595117E+02  0.70333446497E+02  0.00000000000E+00 0.  1.
</event>
<event>
 6    1  0.6597032E-006  0.1917087E+03  0.7561462E-02  0.1156929E+00
          2   -1    0    0  501    0  0.00000000000E+00  0.00000000000E+00  0.21316930884E+03  0.21316930884E+03  0.00000000000E+00 0.  1.
         -2   -1    0    0    0  501 -0.00000000000E+00 -0.00000000000E+00 -0.19906248469E+03  0.19906248469E+03  0.00000000000E+00 0. -1.
          5    1    1    2  502    0 -0.14062786224E+03  0.69406142753E+02 -0.31071894686E+02  0.15992605582E+03  0.41800000000E+01 0. -1.
         -5    1    1    2    0  502  0.79601967468E+01  0.41254840673E+02  0.32650314661E+02  0.53374545044E+02  0.41800000000E+01 0. -1.
        -11    1    1    2    0    0  0.42309060294E+02 -0.11307095473E+01  0.35315729042E+02  0.55122915423E+02  0.00000000000E+00 0.  1.
         11    1    1    2    0    0  0.90358605200E+02 -0.10953027388E+03 -0.22787324865E+02  0.14380827724E+03  0.00000000000E+00 0. -1.
</event>
<event>
 6    1  0.6597032E-006  0.1063299E+03  0.7561462E-02  0.1267521E+00
         -2   -1    0    0    0  501 -0.00000000000E+00  0.00000000000E+00  0.29018888552E+02  0.29018888552E+02  0.00000000000E+00 0.  1.
          2   -1    0    0  501    0  0.00000000000E+00 -0.00000000000E+00 -0.58683922521E+03  0.58683922521E+03  0.00000000000E+00 0. -1.
          5    1    1    2  502    0 -0.17598734670E+02 -0.78765734981E+02 -0.83966031509E+02  0.11653979285E+03  0.41800000000E+01 0. -1.
         -5    1    1    2    0  502 -0.22885132915E+02  0.18916047743E+02 -0.19821413284E+03  0.20046910243E+03  0.41800000000E+01 0. -1.
        -11    1    1    2    0    0  0.13601028760E+02  0.71339743691E+02 -0.24872486050E+03  0.25911079337E+03  0.00000000000E+00 0. -1.
         11    1    1    2    0    0  0.26882838825E+02 -0.11490056453E+02 -0.26915311808E+02  0.39738425111E+02  0.00000000000E+00 0.  1.
</event>
<event>
 6    1  0.6597032E-006  0.8748970E+02  0.7561462E-02  0.1309047E+00
         -2   -1    0    0    0  501 -0.00000000000E+00  0.00000000000E+00  0.90231278655E+02  0.90231278655E+02  0.00000000000E+00 0.  1.
          2   -1    0    0  501    0  0.00000000000E+00 -0.00000000000E+00 -0.20998200817E+03  0.20998200817E+03  0.00000000000E+00 0. -1.
          5    1    1    2  502    0 -0.25887921458E+02  0.46472974397E+02  0.33428789359E+02  0.62967278683E+02  0.41800000000E+01 0.  1.
         -5    1    1    2    0  502  0.47709022133E+02 -0.44690769463E+02 -0.97123113887E+01  0.66220971456E+02  0.41800000000E+01 0.  1.
        -11    1    1    2    0    0 -0.27438623950E+02  0.19784295522E+02 -0.93875848658E+01  0.35105885307E+02  0.00000000000E+00 0.  1.
         11    1    1    2    0    0  0.56175232760E+01 -0.21566500456E+02 -0.13407962262E+03  0.13591915138E+03  0.00000000000E+00 0. -1.
</event>
<event>
 6    1  0.6597032E-006  0.1234148E+03  0.7561462E-02  0.1237568E+00
          1   -1    0    0  501    0  0.00000000000E+00  0.00000000000E+00  0.53936660648E+03  0.53936660648E+03  0.00000000000E+00 0. -1.
         -1   -1    0    0    0  501 -0.00000000000E+00 -0.00000000000E+00 -0.72497517562E+02  0.72497517562E+02  0.00000000000E+00 0.  1.
          5    1    1    2  502    0  0.86900325725E+02 -0.28302986243E+02  0.53515872574E+02  0.10599125746E+03  0.41800000000E+01 0. -1.
         -5    1    1    2    0  502 -0.14841676979E+02  0.43545880294E+02 -0.25840420532E+02  0.52931264858E+02  0.41800000000E+01 0.  1.
        -11    1    1    2    0    0 -0.86724377960E+02  0.16947813722E+01  0.31408006504E+03  0.32583780823E+03  0.00000000000E+00 0. -1.
         11    1    1    2    0    0  0.14665729214E+02 -0.16937675423E+02  0.12511357183E+03  0.12710379349E+03  0.00000000000E+00 0.  1.
</event>
<event>
 6    1  0.6597032E-006  0.1097134E+03  0.7561462E-02  0.1261102E+00
          2   -1    0    0  501    0  0.00000000000E+00  0.00000000000E+00  0.62556402599E+03  0.62556402599E+03  0.00000000000E+00 0. -1.
         -2   -1    0    0    0  501 -0.00000000000E+00 -0.00000000000E+00 -0.32410741982E+02  0.32410741982E+02  0.00000000000E+00 0.  1.
          5    1    1    2  502    0 -0.53480587536E+02  0.44541854842E+01  0.19799360439E+03  0.20518029338E+03  0.41800000000E+01 0.  1.
         -5    1    1    2    0  502 -0.11553153154E+02 -0.50298416538E+02  0.14229327690E+02  0.53696854848E+02  0.41800000000E+01 0.  1.
        -11    1    1    2    0    0 -0.69159953800E+01  0.41140777112E+02  0.20049177602E+03  0.20478610008E+03  0.00000000000E+00 0.  1.
         11    1    1    2    0    0  0.71949736070E+02  0.47034539423E+01  0.18043857590E+03  0.19431151966E+03  0.00000000000E+00 0. -1.
</event>
<event>
 6    1  0.6597032E-006  0.1056406E+03  0.7561462E-02  0.1268863E+00
         -2   -1    0    0    0  501 -0.00000000000E+00  0.00000000000E+00  0.32534404733E+02  0.32534404733E+02  0.00000000000E+00 0. -1.
          2   -1    0    0  501    0  0.00000000000E+00 -0.00000000000E+00 -0.67142881598E+03  0.67142881598E+03  0.00000000000E+00 0.  1.
          5    1    1    2  502    0 -0.31340166125E+01  0.17322854175E+01 -0.16990897952E+03  0.16999810762E+03  0.41800000000E+01 0. -1.
         -5    1    1    2    0  502 -0.10887200330E+02  0.81010220884E+02 -0.47922898403E+02  0.94843363553E+02  0.41800000000E+01 0. -1.
        -11    1    1    2    0    0 -0.39121342410E+02 -0.35338845110E+02 -0.15641318604E+03  0.16505877187E+03  0.00000000000E+00 0. -1.
         11    1    1    2    0    0  0.53142559352E+02 -0.47403661192E+02 -0.26464934728E+03  0.27406297766E+03  0.00000000000E+00 0.  1.
</event>
<event>
 6    1  0.6597032E-006  0.1118003E+03  0.7561462E-02  0.1257272E+00
         -2   -1    0    0    0  501 -0.00000000000E+00  0.00000000000E+00  0.67561116773E+02  0.67561116773E+02  0.00000000000E+00 0.  1.
          2   -1    0    0  501    0  0.00000000000E+00 -0.00000000000E+00 -0.27279490943E+03  0.27279490943E+03  0.00000000000E+00 0. -1.
          5    1    1    2  502    0  0.87099938764E+01 -0.89060056481E+02 -0.15374398778E+02  0.90892255949E+02  0.41800000000E+01 0.  1.
         -5    1    1    2    0  502  0.29596276792E+02  0.17046290097E+02 -0.77942043392E+02  0.85199472617E+02  0.41800000000E+01 0.  1.
        -11    1    1    2    0    0  0.14364409669E+02  0.71261286530E+01  0.81398166402E+01  0.17982619099E+02  0.00000000000E+00 0.  1.
         11    1    1    2    0    0 -0.52670680337E+02  0.64887637730E+02 -0.12005716713E+03  0.14628167854E+03  0.00000000000E+00 0. -1.
</event>
<event>
 6    1  0.6597032E-006  0.8889069E+02  0.7561462E-02  0.1305561E+00
          2   -1    0    0  501    0  0.00000000000E+00  0.00000000000E+00  0.35917936382E+03  0.35917936382E+03  0.00000000000E+00 0. -1.
         -2   -1    0    0    0  501 -0.00000000000E+00 -0.00000000000E+00 -0.41675643733E+02  0.41675643733E+02  0.00000000000E+00 0.  1.
          5    1    1    2  502    0 -0.19124704195E+02 -0.59703864102E+02  0.11476248847E+02  0.63870825788E+02  0.41800000000E+01 0. -1.
         -5    1    1    2    0  502 -0.18543142762E+02  0.31193337532E+02  0.11320146285E+03  0.11894921622E+03  0.41800000000E+01 0. -1.
        -11    1    1    2    0    0 -0.16415134422E+02  0.15973314370E+02  0.67864831526E+01  0.23888486005E+02  0.00000000000E+00 0.  1.
         11    1    1    2    0    0  0.54082981379E+02  0.12537212200E+02  0.18603952524E+03  0.19414647954E+03  0.00000000000E+00 0. -1.
</event>
<event>
 6    1  0.6597032E-006  0.9641099E+02  0.7561462E-02  0.1288029E+00
          1   -1    0    0  501    0  0.00000000000E+00  0.00000000000E+00  0.48197336641E+03  0.48197336641E+03  0.00000000000E+00 0. -1.
         -1   -1    0    0    0  501 -0.00000000000E+00 -0.00000000000E+00 -0.29048750796E+02  0.29048750796E+02  0.00000000000E+00 0.  1.
          5    1    1    2  502    0  0.48581786366E+02 -0.22410617169E+02  0.13421450608E+03  0.14454560446E+03  0.41800000000E+01 0. -1.
         -5    1    1    2    0  502 -0.42454733212E+02 -0.26315863371E+02  0.27501189112E+02  0.57172693130E+02  0.41800000000E+01 0.  1.
        -11    1    1    2    0    0 -0.39405792343E+02  0.16540567692E+02  0.60970435012E+02  0.74456704166E+02  0.00000000000E+00 0.  1.
         11    1    1    2    0    0  0.33278739190E+02  0.32185912849E+02  0.23023848542E+03  0.23484711545E+03  0.00000000000E+00 0. -1.
</event>
<event>
 6    1  0.6597032E-006  0.1363675E+03  0.7561462E-02  0.1218302E+00
          3   -1    0    0  501    0  0.00000000000E+00  0.00000000000E+00  0.15230623274E+03  0.15230623274E+03  0.00000000000E+00 0. -1.
         -3   -1    0    0    0  501 -0.00000000000E+00 -0.00000000000E+00 -0.17441095605E+03  0.17441095605E+03  0.00000000000E+00 0.  1.
          5    1    1    2  502    0  0.11883677849E+03  0.13201344565E+02 -0.95445796580E+02  0.15304844954E+03  0.41800000000E+01 0. -1.
         -5    1    1    2    0  502 -0.10920185641E+02 -0.29462290934E+01  0.18557949101E+02  0.22131439066E+02  0.41800000000E+01 0.  1.
        -11    1    1    2    0    0 -0.56198354840E+02  0.39954836811E+02  0.31311051836E+02  0.75729954696E+02  0.00000000000E+00 0.  1.
         11    1    1    2    0    0 -0.51718238011E+02 -0.50209952282E+02  0.23472072332E+02  0.75807345493E+02  0.00000000000E+00 0. -1.
</event>
<event>
 6    1  0.6597032E-006  0.1307333E+03  0.7561462E-02  0.1226372E+00
          1   -1    0    0  501    0  0.00000000000E+00  0.00000000000E+00  0.13589698443E+03  0.13589698443E+03  0.00000000000E+00 0. -1.
         -1   -1    0    0    0  501 -0.00000000000E+00 -0.00000000000E+00 -0.13107628830E+03  0.13107628830E+03  0.00000000000E+00 0.  1.
          5    1    1    2  502    0 -0.10428997953E+02 -0.32591481668E+02 -0.87908543066E+01  0.35576961577E+02  0.41800000000E+01 0.  1.
         -5    1    1    2    0  502  0.63039021436E+02  0.91447401099E+02  0.18155438462E+02  0.11262165750E+03  0.41800000000E+01 0.  1.
        -11    1    1    2    0    0 -0.37000329387E+02 -0.80826557954E+02 -0.14451477274E+02  0.90059991344E+02  0.00000000000E+00 0. -1.
         11    1    1    2    0    0 -0.15609694097E+02  0.21970638524E+02  0.99075892528E+01  0.28714662313E+02  0.00000000000E+00 0.  1.
</event>
<event>
 6    1  0.6597032E-006  0.7929783E+02  0.7561462E-02  0.1331056E+00
         -2   -1    0    0    0  501 -0.00000000000E+00  0.00000000000E+00  0.10478837195E+03  0.10478837195E+03  0.00000000000E+00 0.  1.
          2   -1    0    0  501    0  0.00000000000E+00 -0.00000000000E+00 -0.25944338402E+03  0.25944338402E+03  0.00000000000E+00 0. -1.
          5    1    1    2  502    0  0.42052161388E+02 -0.42436700652E+02 -0.37385608118E+02  0.70600381968E+02  0.41800000000E+01 0.  1.
         -5    1    1    2    0  502 -0.20233617649E+01 -0.86912545079E+01  0.74491637203E+02  0.75140590302E+02  0.41800000000E+01 0.  1.
        -11    1    1    2    0    0 -0.24181131813E+02 -0.96548958483E+01 -0.12144037490E+03  0.12420027700E+03  0.00000000000E+00 0. -1.
         11    1    1    2    0    0 -0.15847667810E+02  0.60782851008E+02 -0.70320666251E+02  0.94290506700E+02  0.00000000000E+00 0.  1.
</event>
<event>
 6    1  0.6597032E-006  0.1199000E+03  0.7561462E-02  0.1243262E+00
         -1   -1    0    0    0  501 -0.00000000000E+00  0.00000000000E+00  0.35621714272E+02  0.35621714272E+02  0.00000000000E+00 0.  1.
          1   -1    0    0  501    0  0.00000000000E+00 -0.00000000000E+00 -0.72178052443E+03  0.72178052443E+03  0.00000000000E+00 0. -1.
          5    1    1    2  502    0 -0.29494560187E+02 -0.84462931081E+00 -0.18873281595E+03  0.19107116657E+03  0.41800000000E+01 0. -1.
         -5    1    1    2    0  502 -0.37120191707E+02 -0.84384417272E+02 -0.69293283000E+02  0.11540220960E+03  0.41800000000E+01 0. -1.
        -11    1    1    2    0    0  0.48665435328E+02  0.24686490189E+02 -0.78279309782E+02  0.95422207759E+02  0.00000000000E+00 0.  1.
         11    1    1    2    0    0  0.17949316565E+02  0.60542556394E+02 -0.34985340143E+03  0.35550665478E+03  0.00000000000E+00 0. -1.
</event>
<event>
 6    1  0.6597032E-006  0.8517857E+02  0.7561462E-02  0.1314966E+00
         -1   -1    0    0    0  501 -0.00000000000E+00  0.00000000000E+00  0.18662764357E+02  0.18662764357E+02  0.00000000000E+00 0.  1.
          1   -1    0    0  501    0  0.00000000000E+00 -0.00000000000E+00 -0.47412665540E+03  0.47412665540E+03  0.00000000000E+00 0. -1.
          5    1    1    2  502    0 -0.19487590319E+02  0.33014157124E+02 -0.66151284801E+02  0.76571310736E+02  0.41800000000E+01 0. -1.
         -5    1    1    2    0  502  0.42850524078E+02 -0.71743941376E+02 -0.14735468141E+03  0.16945275174E+03  0.41800000000E+01 0.  1.
        -11    1    1    2    0    0 -0.38023805178E+01  0.22168964037E+02 -0.98449279895E+02  0.10098604743E+03  0.00000000000E+00 0. -1.
         11    1    1    2    0    0 -0.19560553241E+02  0.16560820215E+02 -0.14350864494E+03  0.14577930985E+03  0.00000000000E+00 0.  1.
</event>
<event>
 6    1  0.6597032E-006  0.1203202E+03  0.7561462E-02  0.1242570E+00
          2   -1    0    0  501    0  0.00000000000E+00  0.00000000000E+00  0.86764312814E+03  0.86764312814E+03  0.00000000000E+00 0. -1.
         -2   -1    0    0    0  501 -0.00000000000E+00 -0.00000000000E+00 -0.19714618336E+02  0.19714618336E+02  0.00000000000E+00 0.  1.
          5    1    1    2  502    0 -0.32779693416E+02 -0.79781464961E+02  0.16823681797E+03  0.18910497025E+03  0.41800000000E+01 0.  1.
         -5    1    1    2    0  502  0.20766003025E+02  0.27227882006E+02  0.21208968029E+03  0.21487691669E+03  0.41800000000E+01 0.  1.
        -11    1    1    2    0    0  0.49471028236E+02  0.63750506547E+02  0.26410550596E+03  0.27615797652E+03  0.00000000000E+00 0. -1.
         11    1    1    2    0    0 -0.37457337846E+02 -0.11196923592E+02  0.20349650558E+03  0.20721788301E+03  0.00000000000E+00 0.  1.
</event>
<event>
 6    1  0.6597032E-006  0.1401716E+03  0.7561462E-02  0.1213098E+00
         -1   -1    0    0    0  501 -0.00000000000E+00  0.00000000000E+00  0.14998149118E+03  0.14998149118E+03  0.00000000000E+00 0.  1.
          1   -1    0    0  501    0  0.00000000000E+00 -0.00000000000E+00 -0.13910693907E+03  0.13910693907E+03  0.00000000000E+00 0. -1.
          5    1    1    2  502    0  0.42909390456E+02 -0.32380354641E+02  0.15761656448E+02  0.56174775211E+02  0.41800000000E+01 0. -1.
         -5    1    1    2    0  502 -0.87388034390E+02  0.80761955388E+02  0.10484991487E+02  0.11952643824E+03  0.41800000000E+01 0.  1.
        -11    1    1    2    0    0 -0.22131671553E+02 -0.31752840791E+02  0.10362562697E+02  0.40067898494E+02  0.00000000000E+00 0.  1.
         11    1    1    2    0    0  0.66610315487E+02 -0.16628759956E+02 -0.25734658528E+02  0.73319318304E+02  0.00000000000E+00 0. -1.
</event>
<event>
 6    1  0.6597032E-006  0.3066551E+03  0.7561462E-02  0.1081960E+00
          1   -1    0    0  501    0  0.00000000000E+00  0.00000000000E+00  0.97071943415E+02  0.97071943415E+02  0.00000000000E+00 0. -1.
         -1   -1    0    0    0  501 -0.00000000000E+00 -0.00000000000E+00 -0.11913882467E+04  0.11913882467E+04  0.00000000000E+00 0.  1.
          5    1    1    2  502    0 -0.19438310829E+02  0.21993122474E+03 -0.15741291689E+03  0.27118976815E+03  0.41800000000E+01 0. -1.
         -5    1    1    2    0  502 -0.96788316130E+02 -0.22572658806E+03 -0.64568830915E+03  0.69083379743E+03  0.41800000000E+01 0.  1.
        -11    1    1    2    0    0 -0.95621900039E+01 -0.16523362415E+02 -0.49160780556E+02  0.52737456594E+02  0.00000000000E+00 0.  1.
         11    1    1    2    0    0  0.12578881696E+03  0.22318725739E+02 -0.24205429672E+03  0.27369916798E+03  0.00000000000E+00 0. -1.
</event>
<event>
 6    1  0.6597032E-006  0.1586861E+03  0.7561462E-02  0.1190188E+00
          2   -1    0    0  501    0  0.00000000000E+00  0.00000000000E+00  0.47672975664E+03  0.47672975664E+03  0.00000000000E+00 0.  1.
         -2   -1    0    0    0  501 -0.00000000000E+00 -0.00000000000E+00 -0.57905362511E+02  0.57905362511E+02  0.00000000000E+00 0. -1.
          5    1    1    2  502    0  0.93947776993E+00 -0.47957852564E+02  0.11774500291E+03  0.12720926205E+03  0.41800000000E+01 0. -1.
         -5    1    1    2    0  502 -0.11799114814E+03  0.25924492878E+02  0.17487810503E+03  0.21258836842E+03  0.41800000000E+01 0. -1.
        -11    1    1    2    0    0  0.12662516153E+03  0.25657458659E+01  0.11016645093E+03  0.16786054181E+03  0.00000000000E+00 0.  1.
         11    1    1    2    0    0 -0.95734911585E+01  0.19467613820E+02  0.16034835257E+02  0.26976946872E+02  0.00000000000E+00 0. -1.
</event>
<event>
 6    1  0.6597032E-006  0.1017865E+03  0.7561462E-02  0.1276583E+00
          1   -1    0    0  501    0  0.00000000000E+00  0.00000000000E+00  0.61202423561E+02  0.61202423561E+02  0.00000000000E+00 0. -1.
         -1   -1    0    0    0  501 -0.00000000000E+00 -0.00000000000E+00 -0.51055999166E+03  0.51055999166E+03  0.00000000000E+00 0.  1.
          5    1    1    2  502    0  0.48584171423E+02 -0.69837069193E+01 -0.26347826161E+03  0.26804376623E+03  0.41800000000E+01 0. -1.
         -5    1    1    2    0  502 -0.62008020904E+02  0.17106047478E+02 -0.20232715778E+03  0.21234726909E+03  0.41800000000E+01 0.  1.
        -11    1    1    2    0    0  0.50613931334E+02 -0.13851834470E+02  0.10709028024E+02  0.53556760959E+02  0.00000000000E+00 0. -1.
         11    1    1    2    0    0 -0.37190081853E+02  0.37294939111E+01  0.57388232616E+01  0.37814618939E+02  0.00000000000E+00 0.  1.
</event>
<event>
 6    1  0.6597032E-006  0.1424779E+03  0.7561462E-02  0.1210033E+00
         -2   -1    0    0    0  501 -0.00000000000E+00  0.00000000000E+00  0.11317915759E+03  0.11317915759E+03  0.00000000000E+00 0.  1.
          2   -1    0    0  501    0  0.00000000000E+00 -0.00000000000E+00 -0.26224167710E+03  0.26224167710E+03  0.00000000000E+00 0. -1.
          5    1    1    2  502    0  0.69529194005E+01  0.24409610492E+02 -0.25689054266E+02  0.36353432873E+02  0.41800000000E+01 0. -1.
         -5    1    1    2    0  502 -0.11159258581E+03 -0.62908607033E+02  0.28187544307E+02  0.13123417276E+03  0.41800000000E+01 0. -1.
        -11    1    1    2    0    0  0.35071486714E+02  0.49463341402E+02 -0.30734385208E+02  0.67979656936E+02  0.00000000000E+00 0.  1.
         11    1    1    2    0    0  0.69568179696E+02 -0.10964344860E+02 -0.12082662434E+03  0.13985357212E+03  0.00000000000E+00 0. -1.
</event>
<event>
 6    1  0.6597032E-006  0.1002705E+03  0.7561462E-02  0.1279728E+00
         -1   -1    0    0    0  501 -0.00000000000E+00  0.00000000000E+00  0.15203645567E+02  0.15203645567E+02  0.00000000000E+00 0.  1.
          1   -1    0    0  501    0  0.00000000000E+00 -0.00000000000E+00 -0.91009788962E+03  0.91009788962E+03  0.00000000000E+00 0. -1.
          5    1    1    2  502    0  0.21935843986E+02 -0.31867523843E+02 -0.48319992303E+02  0.62040425397E+02  0.41800000000E+01 0.  1.
         -5    1    1    2    0  502 -0.58357862004E+02  0.10525341352E+02 -0.43281486179E+03  0.43687824374E+03  0.41800000000E+01 0.  1.
        -11    1    1    2    0    0  0.59728715706E+02  0.40371852317E+02 -0.26636888504E+03  0.27595251196E+03  0.00000000000E+00 0.  1.
         11    1    1    2    0    0 -0.23306697688E+02 -0.19029669826E+02 -0.14739050492E+03  0.15043035409E+03  0.00000000000E+00 0. -1.
</event>
<event>
 6    1  0.6597032E-006  0.1065645E+03  0.7561462E-02  0.1267067E+00
          2   -1    0    0  501    0  0.00000000000E+00  0.00000000000E+00  0.49402320803E+02  0.49402320803E+02  0.00000000000E+00 0. -1.
         -2   -1    0    0    0  501 -0.00000000000E+00 -0.00000000000E+00 -0.26132211987E+03  0.26132211987E+03  0.00000000000E+00 0.  1.
          5    1    1    2  502    0  0.73916928140E+02  0.13170487651E+02 -0.58786239584E+02  0.95448773565E+02  0.41800000000E+01 0.  1.
         -5    1    1    2    0  502 -0.43838089922E+02 -0.28293761316E+02 -0.68011359220E+02  0.85821515020E+02  0.41800000000E+01 0.  1.
        -11    1    1    2    0    0  0.16061342100E+02  0.32526136134E+02 -0.68101362118E+01  0.36909269799E+02  0.00000000000E+00 0. -1.
         11    1    1    2    0    0 -0.46140180318E+02 -0.17402862470E+02 -0.78312064046E+02  0.92544882285E+02  0.00000000000E+00 0.  1.
</event>
<event>
 6    1  0.6597032E-006  0.1578533E+03  0.7561462E-02  0.1191142E+00
          1   -1    0    0  501    0  0.00000000000E+00  0.00000000000E+00  0.71027228803E+03  0.71027228803E+03  0.00000000000E+00 0. -1.
         -1   -1    0    0    0  501 -0.00000000000E+00 -0.00000000000E+00 -0.46900033193E+02  0.46900033193E+02  0.00000000000E+00 0.  1.
          5    1    1    2  502    0 -0.88585048300E+02 -0.41151775176E+02  0.88523920040E+02  0.13188910570E+03  0.41800000000E+01 0. -1.
         -5    1    1    2    0  502 -0.35923386738E+02  0.69394866023E+02  0.11339121695E+03  0.13777219468E+03  0.41800000000E+01 0. -1.
        -11    1    1    2    0    0  0.89326905120E+02  0.73650114309E+01  0.39062835275E+03  0.40077930254E+03  0.00000000000E+00 0. -1.
         11    1    1    2    0    0  0.35181529917E+02 -0.35608102279E+02  0.70828765091E+02  0.86731718301E+02  0.00000000000E+00 0.  1.
</event>
<event>
 6    1  0.6597032E-006  0.1083756E+03  0.7561462E-02  0.1263608E+00
          1   -1    0    0  501    0  0.00000000000E+00  0.00000000000E+00  0.21273266849E+03  0.21273266849E+03  0.00000000000E+00 0. -1.
         -1   -1    0    0    0  501 -0.00000000000E+00 -0.00000000000E+00 -0.11078558746E+03  0.11078558746E+03  0.00000000000E+00 0.  1.
          5    1    1    2  502    0 -0.46457497850E+01 -0.14681864979E+02 -0.33021786076E+02  0.36674935664E+02  0.41800000000E+01 0. -1.
         -5    1    1    2    0  502 -0.75860962687E+02 -0.55125696628E+02  0.11052365762E+03  0.14500579086E+03  0.41800000000E+01 0. -1.
        -11    1    1    2    0    0  0.62208624540E+02  0.48785837236E+02  0.58122792550E+02  0.98123544044E+02  0.00000000000E+00 0. -1.
         11    1    1    2    0    0  0.18298087932E+02  0.21021724371E+02 -0.33677583065E+02  0.43713985389E+02  0.00000000000E+00 0.  1.
</event>
<event>
 6    1  0.6597032E-006  0.1118542E+03  0.7561462E-02  0.1257174E+00
          2   -1    0    0  501    0  0.00000000000E+00  0.00000000000E+00  0.31391390060E+03  0.31391390060E+03  0.00000000000E+00 0. -1.
         -2   -1    0    0    0  501 -0.00000000000E+00 -0.00000000000E+00 -0.47972030413E+02  0.47972030413E+02  0.00000000000E+00 0.  1.
          5    1    1    2  502    0  0.44734782091E+02 -0.41568496019E+02  0.34245618074E+02  0.70138258799E+02  0.41800000000E+01 0. -1.
         -5    1    1    2    0  502 -0.40426656305E+00  0.71281318985E+02  0.82381824594E+02  0.10902030678E+03  0.41800000000E+01 0. -1.
        -11    1    1    2    0    0 -0.52053620433E+02 -0.48272416482E+02  0.14601206134E+03  0.16235555934E+03  0.00000000000E+00 0. -1.
         11    1    1    2    0    0  0.77231049048E+01  0.18559593516E+02  0.33023661792E+01  0.20371806087E+02  0.00000000000E+00 0.  1.
</event>
<event>
 6    1  0.6597032E-006  0.1049945E+03  0.7561462E-02  0.1270130E+00
          2   -1    0    0  501    0  0.00000000000E+00  0.00000000000E+00  0.67733509119E+02  0.67733509119E+02  0.00000000000E+00 0. -1.
         -2   -1    0    0    0  501 -0.00000000000E+00 -0.00000000000E+00 -0.25905966047E+03  0.25905966047E+03  0.00000000000E+00 0.  1.
          5    1    1    2  502    0 -0.19347798761E+01  0.90973170255E+02 -0.82613942678E+02  0.12297315562E+03  0.41800000000E+01 0. -1.
         -5    1    1    2    0  502 -0.28636601329E+02 -0.36046200839E+02 -0.72412783271E+02  0.85909645045E+02  0.41800000000E+01 0. -1.
        -11    1    1    2    0    0  0.16585074314E+02 -0.56231378768E+02 -0.64036004292E+02  0.86819597407E+02  0.00000000000E+00 0.  1.
         11    1    1    2    0    0  0.13986306891E+02  0.13044093525E+01  0.27736578895E+02  0.31090771509E+02  0.00000000000E+00 0. -1.
</event>
<event>
 6    1  0.6597032E-006  0.8826264E+02  0.7561462E-02  0.1307114E+00
         -2   -1    0    0    0  501 -0.00000000000E+00  0.00000000000E+00  0.54028918494E+02  0.54028918494E+02  0.00000000000E+00 0.  1.
          2   -1    0    0  501    0  0.00000000000E+00 -0.00000000000E+00 -0.24514861823E+03  0.24514861823E+03  0.00000000000E+00 0. -1.
          5    1    1    2  502    0  0.32535600261E+02 -0.90280434885E+01  0.17542690312E+02  0.38279096606E+02  0.41800000000E+01 0. -1.
         -5    1    1    2    0  502 -0.30845142840E+02  0.44516852075E+02 -0.10564719191E+03  0.11879383197E+03  0.41800000000E+01 0. -1.
        -11    1    1    2    0    0 -0.41208325449E+02 -0.18199609188E+02 -0.83251157251E+02  0.94657841960E+02  0.00000000000E+00 0.  1.
         11    1    1    2    0    0  0.39517868028E+02 -0.17289199399E+02 -0.19764040883E+02  0.47446766185E+02  0.00000000000E+00 0. -1.
</event>
<event>
 6    1  0.6597032E-006  0.1430214E+03  0.7561462E-02  0.1209320E+00
          1   -1    0    0  501    0  0.00000000000E+00  0.00000000000E+00  0.39122446965E+03  0.39122446965E+03  0.00000000000E+00 0. -1.
         -1   -1    0    0    0  501 -0.00000000000E+00 -0.00000000000E+00 -0.79728762154E+02  0.79728762154E+02  0.00000000000E+00 0.  1.
          5    1    1    2  502    0  0.15064646100E+02  0.33027274452E+02  0.61501954491E+02  0.71538152241E+02  0.41800000000E+01 0. -1.
         -5    1    1    2    0  502  0.99794587263E+02 -0.48728280712E+02  0.41616181850E+01  0.11121239344E+03  0.41800000000E+01 0. -1.
        -11    1    1    2    0    0 -0.97384049967E+02 -0.19271089897E+02  0.21995358858E+03  0.24131848090E+03  0.00000000000E+00 0. -1.
         11    1    1    2    0    0 -0.17475183396E+02  0.34972096156E+02  0.25878546241E+02  0.46884205227E+02  0.00000000000E+00 0.  1.
</event>
<event>
 6    1  0.6597032E-006  0.1226150E+03  0.7561462E-02  0.1238844E+00
         -2   -1    0    0    0  501 -0.00000000000E+00  0.00000000000E+00  0.17751701498E+02  0.17751701498E+02  0.00000000000E+00 0.  1.
          2   -1    0    0  501    0  0.00000000000E+00 -0.00000000000E+00 -0.10634216414E+04  0.10634216414E+04  0.00000000000E+00 0. -1.
          5    1    1    2  502    0  0.48013639270E+02 -0.13627886198E+01 -0.14411387865E+03  0.15196528935E+03  0.41800000000E+01 0.  1.
         -5    1    1    2    0  502 -0.53650877482E+02  0.84309951529E+02 -0.42868464189E+03  0.44019834073E+03  0.41800000000E+01 0.  1.
        -11    1    1    2    0    0 -0.12547334224E+02 -0.76772294732E+02 -0.45842488437E+03  0.46497827416E+03  0.00000000000E+00 0. -1.
         11    1    1    2    0    0  0.18184572436E+02 -0.61748681763E+01 -0.14446535041E+02  0.24031438708E+02  0.00000000000E+00 0.  1.
</event>
<event>
 6    1  0.6597032E-006  0.1222649E+03  0.7561462E-02  0.1239407E+00
          1   -1    0    0  501    0  0.00000000000E+00  0.00000000000E+00  0.57836536361E+02  0.57836536361E+02  0.00000000000E+00 0. -1.
         -1   -1    0    0    0  501 -0.00000000000E+00 -0.00000000000E+00 -0.29069555855E+03  0.29069555855E+03  0.00000000000E+00 0.  1.
          5    1    1    2  502    0 -0.63086219721E+01  0.45199911602E+02 -0.81140146102E+02  0.93188123865E+02  0.41800000000E+01 0.  1.
         -5    1    1    2    0  502 -0.43993810462E+02 -0.78853691790E+02 -0.94428393284E+02  0.13071937089E+03  0.41800000000E+01 0.  1.
        -11    1    1    2    0    0 -0.22094650078E+01  0.52477749091E+02 -0.40633595448E+02  0.66406964727E+02  0.00000000000E+00 0.  1.
         11    1    1    2    0    0  0.52511897442E+02 -0.18823968903E+02 -0.16656887351E+02  0.58217635425E+02  0.00000000000E+00 0. -1.
</event>
<event>
 6    1  0.6597032E-006  0.1928388E+03  0.7561462E-02  0.1155926E+00
         -1   -1    0    0    0  501 -0.00000000000E+00  0.00000000000E+00  0.47496875211E+03  0.47496875211E+03  0.00000000000E+00 0.  1.
          1   -1    0    0  501    0  0.00000000000E+00 -0.00000000000E+00 -0.88613333716E+02  0.88613333716E+02  0.00000000000E+00 0. -1.
          5    1    1    2  502    0 -0.64916985100E+02 -0.14276869610E+03  0.18481670401E+03  0.24242896284E+03  0.41800000000E+01 0. -1.
         -5    1    1    2    0  502 -0.48590327920E+02  0.14633883048E+02  0.10464907406E+03  0.11637899984E+03  0.41800000000E+01 0. -1.
        -11    1    1    2    0    0  0.47642505985E+02  0.89813506572E+02  0.38262135642E+02  0.10862902634E+03  0.00000000000E+00 0.  1.
         11    1    1    2    0    0  0.65864807034E+02  0.38321306484E+02  0.58627504678E+02  0.96145096812E+02  0.00000000000E+00 0. -1.
</event>
<event>
 6    1  0.6597032E-006  0.1805406E+03  0.7561462E-02  0.1167281E+00
          4   -1    0    0  501    0  0.00000000000E+00  0.00000000000E+00  0.24333784435E+03  0.24333784435E+03  0.00000000000E+00 0. -1.
         -4   -1    0    0    0  501 -0.00000000000E+00 -0.00000000000E+00 -0.14985997119E+03  0.14985997119E+03  0.00000000000E+00 0.  1.
          5    1    1    2  502    0 -0.10450160827E+03  0.97955746899E+02  0.17094630120E+02  0.14431082171E+03  0.41800000000E+01 0.  1.
         -5    1    1    2    0  502 -0.38961211630E+02 -0.39680348957E+02  0.59189305094E+01  0.56080408730E+02  0.41800000000E+01 0.  1.
        -11    1    1    2    0    0  0.74493521295E+02 -0.46195927973E+01 -0.83875494237E+01  0.75106433399E+02  0.00000000000E+00 0.  1.
         11    1    1    2    0    0  0.68969298609E+02 -0.53655805145E+02  0.78851861957E+02  0.11770015170E+03  0.00000000000E+00 0. -1.
</event>
<event>
 6    1  0.6597032E-006  0.1028781E+03  0.7561462E-02  0.1274358E+00
          2   -1    0    0  501    0  0.00000000000E+00  0.00000000000E+00  0.11379399327E+03  0.11379399327E+03  0.00000000000E+00 0.  1.
         -2   -1    0    0    0  501 -0.00000000000E+00 -0.00000000000E+00 -0.11345321904E+03  0.11345321904E+03  0.00000000000E+00 0. -1.
          5    1    1    2  502    0 -0.26208955039E+02  0.68690407501E+02 -0.24776167212E+02  0.77695638671E+02  0.41800000000E+01 0. -1.
         -5    1    1    2    0  502  0.23619721191E+02 -0.47006598938E+02 -0.72427371654E+01  0.53267637591E+02  0.41800000000E+01 0. -1.
        -11    1    1    2    0    0  0.10919142269E+02  0.27432759385E+02  0.35731345276E+02  0.46352054869E+02  0.00000000000E+00 0.  1.
         11    1    1    2    0    0 -0.83299084216E+01 -0.49116567948E+02 -0.33716666670E+01  0.49931881172E+02  0.00000000000E+00 0. -1.
</event>
<event>
 6    1  0.6597032E-006  0.1216014E+03  0.7561462E-02  0.1240478E+00
          2   -1    0    0  501    0  0.00000000000E+00  0.00000000000E+00  0.32009611731E+03  0.32009611731E+03  0.00000000000E+00 0. -1.
         -2   -1    0    0    0  501 -0.00000000000E+00 -0.00000000000E+00 -0.47728418270E+02  0.47728418270E+02  0.00000000000E+00 0.  1.
          5    1    1    2  502    0 -0.28116467104E+01 -0.51896316032E+02  0.50462286732E+02  0.72560648820E+02  0.41800000000E+01 0. -1.
         -5    1    1    2    0  502 -0.55548853180E+02  0.66269278006E+02  0.91622163073E+02  0.12605310573E+03  0.41800000000E+01 0. -1.
        -11    1    1    2    0    0 -0.32758621711E+01  0.28960658235E+02  0.57439183663E+02  0.64410486866E+02  0.00000000000E+00 0. -1.
         11    1    1    2    0    0  0.61636362061E+02 -0.43333620209E+02  0.72844065570E+02  0.10480029417E+03  0.00000000000E+00 0.  1.
</event>
<event>
 6    1  0.6597032E-006  0.3294213E+03  0.7561462E-02  0.1071393E+00
          2   -1    0    0  501    0  0.00000000000E+00  0.00000000000E+00  0.99136972747E+02  0.99136972747E+02  0.00000000000E+00 0. -1.
         -2   -1    0    0    0  501 -0.00000000000E+00 -0.00000000000E+00 -0.15251440895E+04  0.15251440895E+04  0.00000000000E+00 0.  1.
          5    1    1    2  502    0 -0.10219839881E+03  0.18190981090E+03 -0.55646673497E+03  0.59431337824E+03  0.41800000000E+01 0. -1.
         -5    1    1    2    0  502 -0.11146911405E+03  0.56548390232E+02 -0.56390202174E+03  0.57760371047E+03  0.41800000000E+01 0. -1.
        -11    1    1    2    0    0  0.19562297427E+03 -0.23652240125E+03 -0.30705725395E+03  0.43416051358E+03  0.00000000000E+00 0.  1.
         11    1    1    2    0    0  0.18044538588E+02 -0.19357998862E+01  0.14188939159E+01  0.18203459946E+02  0.00000000000E+00 0. -1.
</event>
<event>
 6    1  0.6597032E-006  0.9945141E+02  0.7561462E-02  0.1281454E+00
          1   -1    0    0  501    0  0.00000000000E+00  0.00000000000E+00  0.75563684784E+02  0.75563684784E+02  0.00000000000E+00 0. -1.
         -1   -1    0    0    0  501 -0.00000000000E+00 -0.00000000000E+00 -0.28918827156E+03  0.28918827156E+03  0.00000000000E+00 0.  1.
          5    1    1    2  502    0  0.21709898936E+02  0.40272934349E+02 -0.13689275965E+03  0.14439643000E+03  0.41800000000E+01 0. -1.
         -5    1    1    2    0  502  0.30943418364E+01  0.54575197755E+02  0.13910149055E+02  0.56559630552E+02  0.41800000000E+01 0. -1.
        -11    1    1    2    0    0 -0.42564630767E+01 -0.23826224526E+02 -0.86415079676E+02  0.89740584177E+02  0.00000000000E+00 0.  1.
         11    1    1    2    0    0 -0.20547777695E+02 -0.71021907578E+02 -0.42268965080E+01  0.74055311615E+02  0.00000000000E+00 0. -1.
</event>
<event>
 6    1  0.6597032E-006  0.1889735E+03  0.7561462E-02  0.1159390E+00
         -1   -1    0    0    0  501 -0.00000000000E+00  0.00000000000E+00  0.49346307419E+02  0.49346307419E+02  0.00000000000E+00 0.  1.
          1   -1    0    0  501    0  0.00000000000E+00 -0.00000000000E+00 -0.10677007137E+04  0.10677007137E+04  0.00000000000E+00 0. -1.
          5    1    1    2  502    0  0.20498744627E+02 -0.47316291382E+02 -0.20387395083E+03  0.21033566076E+03  0.41800000000E+01 0.  1.
         -5    1    1    2    0  502 -0.11595897394E+03 -0.33151690707E+02 -0.28457265689E+03  0.30910287557E+03  0.41800000000E+01 0.  1.
        -11    1    1    2    0    0  0.10187987658E+02  0.11359718121E+03 -0.82043252477E+02  0.14049629870E+03  0.00000000000E+00 0.  1.
         11    1    1    2    0    0  0.85272241660E+02 -0.33129199119E+02 -0.44786454609E+03  0.45711218609E+03  0.00000000000E+00 0. -1.
</event>
<event>
 6    1  0.6597032E-006  0.1227630E+03  0.7561462E-02  0.1238607E+00
         -1   -1    0    0    0  501 -0.00000000000E+00  0.00000000000E+00  0.39306277979E+02  0.39306277979E+02  0.00000000000E+00 0.  1.
          1   -1    0    0  501    0  0.00000000000E+00 -0.00000000000E+00 -0.55310112088E+03  0.55310112088E+03  0.00000000000E+00 0. -1.
          5    1    1    2  502    0 -0.10392103680E+03 -0.23374176282E+02 -0.90857784201E+02  0.14006621062E+03  0.41800000000E+01 0.  1.
         -5    1    1    2    0  502  0.25751282704E+02  0.20805864744E+02 -0.73922141726E+02  0.81104673145E+02  0.41800000000E+01 0.  1.
        -11    1    1    2    0    0 -0.23360398543E+01 -0.21425609352E+02 -0.13652421735E+02  0.25512789686E+02  0.00000000000E+00 0.  1.
         11    1    1    2    0    0  0.80505793951E+02  0.23993920890E+02 -0.33536249524E+03  0.34572372541E+03  0.00000000000E+00 0. -1.
</event>
<event>
 6    1  0.6597032E-006  0.1156561E+03  0.7561462E-02  0.1250440E+00
         -1   -1    0    0    0  501 -0.00000000000E+00  0.00000000000E+00  0.91810367038E+03  0.91810367038E+03  0.00000000000E+00 0.  1.
          1   -1    0    0  501    0  0.00000000000E+00 -0.00000000000E+00 -0.18789604948E+02  0.18789604948E+02  0.00000000000E+00 0. -1.
          5    1    1    2  502    0 -0.21223685931E+02  0.86447965777E+02  0.58441556846E+03  0.59117063923E+03  0.41800000000E+01 0. -1.
         -5    1    1    2    0  502 -0.86568768438E+01 -0.31938830394E+02  0.64556085385E+02  0.72663546320E+02  0.41800000000E+01 0. -1.
        -11    1    1    2    0    0 -0.30714640060E+02 -0.31588823357E+02  0.10946188102E+03  0.11799638245E+03  0.00000000000E+00 0.  1.
         11    1    1    2    0    0  0.60595202835E+02 -0.22920312026E+02  0.14088053057E+03  0.15506270732E+03  0.00000000000E+00 0. -1.
</event>
<event>
 6    1  0.6597032E-006  0.1309387E+03  0.7561462E-02  0.1226069E+00
         -1   -1    0    0    0  501 -0.00000000000E+00  0.00000000000E+00  0.11222157777E+03  0.11222157777E+03  0.00000000000E+00 0.  1.
          1   -1    0    0  501    0  0.00000000000E+00 -0.00000000000E+00 -0.15455116731E+03  0.15455116731E+03  0.00000000000E+00 0. -1.
          5    1    1    2  502    0 -0.85139136811E+02  0.12516150837E+02 -0.16082906630E+02  0.87643932673E+02  0.41800000000E+01 0. -1.
         -5    1    1    2    0  502  0.38541695389E+02  0.44433074667E+02 -0.10047761768E+02  0.59817976599E+02  0.41800000000E+01 0. -1.
        -11    1    1    2    0    0  0.68439918934E+02 -0.15911589350E+02 -0.18840707724E+02  0.72747326046E+02  0.00000000000E+00 0.  1.
         11    1    1    2    0    0 -0.21842477512E+02 -0.41037636153E+02  0.26417865811E+01  0.46563509761E+02  0.00000000000E+00 0. -1.
</event>
<event>
 6    1  0.6597032E-006  0.1332440E+03  0.7561462E-02  0.1222720E+00
          1   -1    0    0  501    0  0.00000000000E+00  0.00000000000E+00  0.16246795353E+03  0.16246795353E+03  0.00000000000E+00 0. -1.
         -1   -1    0    0    0  501 -0.00000000000E+00 -0.00000000000E+00 -0.14776618620E+03  0.14776618620E+03  0.00000000000E+00 0.  1.
          5    1    1    2  502    0 -0.12421284673E+02  0.56946772991E+02  0.18115702663E+02  0.61179035216E+02  0.41800000000E+01 0.  1.
         -5    1    1    2    0  502  0.90019302618E+02  0.11021752403E+02 -0.51446837652E+02  0.10435134582E+03  0.41800000000E+01 0.  1.
        -11    1    1    2    0    0  0.34364354666E+01 -0.25586646038E+02  0.46566049102E+02  0.53243614389E+02  0.00000000000E+00 0. -1.
         11    1    1    2    0    0 -0.81034453412E+02 -0.42381879356E+02  0.14668532156E+01  0.91460144303E+02  0.00000000000E+00 0.  1.
</event>
<event>
 6    1  0.6597032E-006  0.1450719E+03  0.7561462E-02  0.1206663E+00
          1   -1    0    0  501    0  0.00000000000E+00  0.00000000000E+00  0.20571367241E+03  0.20571367241E+03  0.00000000000E+00 0. -1.
         -1   -1    0    0    0  501 -0.00000000000E+00 -0.00000000000E+00 -0.10387665935E+03  0.10387665935E+03  0.00000000000E+00 0.  1.
          5    1    1    2  502    0  0.88600037396E+02  0.63886232514E+02  0.33812407276E+02  0.11442101475E+03  0.41800000000E+01 0. -1.
         -5    1    1    2    0  502  0.86231088359E+01 -0.48378710047E+02  0.60753924778E+01  0.49691451836E+02  0.41800000000E+01 0. -1.
        -11    1    1    2    0    0 -0.10584585870E+03 -0.33948450928E+02  0.50126386686E+02  0.12193644971E+03  0.00000000000E+00 0.  1.
         11    1    1    2    0    0  0.86227124685E+01  0.18440928461E+02  0.11822826625E+02  0.23541415467E+02  0.00000000000E+00 0. -1.
</event>
<event>
 6    1  0.6597032E-006  0.1044916E+03  0.7561462E-02  0.1271125E+00
         -2   -1    0    0    0  501 -0.00000000000E+00  0.00000000000E+00  0.42877944922E+02  0.42877944922E+02  0.00000000000E+00 0.  1.
          2   -1    0    0  501    0  0.00000000000E+00 -0.00000000000E+00 -0.32800322043E+03  0.32800322043E+03  0.00000000000E+00 0. -1.
          5    1    1    2  502    0 -0.58421384000E+02 -0.43948768071E+02 -0.51565341961E+02  0.89560087176E+02  0.41800000000E+01 0. -1.
         -5    1    1    2    0  502  0.53841477616E+02  0.89875572533E+01 -0.65248876875E+02  0.85173759050E+02  0.41800000000E+01 0. -1.
        -11    1    1    2    0    0 -0.33378229009E+02  0.76359994291E+01 -0.13356102420E+03  0.13788024457E+03  0.00000000000E+00 0. -1.
         11    1    1    2    0    0  0.37958135392E+02  0.27325211389E+02 -0.34750032477E+02  0.58267074554E+02  0.00000000000E+00 0.  1.
</event>
<event>
 6    1  0.6597032E-006  0.1202699E+03  0.7561462E-02  0.1242652E+00
         -2   -1    0    0    0  501 -0.00000000000E+00  0.00000000000E+00  0.78654526618E+02  0.78654526618E+02  0.00000000000E+00 0.  1.
          2   -1    0    0  501    0  0.00000000000E+00 -0.00000000000E+00 -0.22248589047E+03  0.22248589047E+03  0.00000000000E+00 0. -1.
          5    1    1    2  502    0  0.14725835464E+02  0.34803787065E+02 -0.37011082020E+02  0.53060780398E+02  0.41800000000E+01 0. -1.
         -5    1    1    2    0  502 -0.88109678290E+02 -0.10222893455E+02 -0.30444484783E+01  0.88851359165E+02  0.41800000000E+01 0.  1.
        -11    1    1    2    0    0  0.91276787803E+02 -0.12497508600E+02 -0.10217703779E+03  0.13757829321E+03  0.00000000000E+00 0. -1.
         11    1    1    2    0    0 -0.17892944978E+02 -0.12083385010E+02 -0.15987955634E+01  0.21649984308E+02  0.00000000000E+00 0.  1.
</event>
<event>
 6    1  0.6597032E-006  0.9996429E+02  0.7561462E-02  0.1280371E+00
          1   -1    0    0  501    0  0.00000000000E+00  0.00000000000E+00  0.21996279740E+03  0.21996279740E+03  0.00000000000E+00 0. -1.
         -1   -1    0    0    0  501 -0.00000000000E+00 -0.00000000000E+00 -0.53852455369E+02  0.53852455369E+02  0.00000000000E+00 0.  1.
          5    1    1    2  502    0 -0.59303235600E+02 -0.33299767213E+02  0.43400626084E+02  0.80788829633E+02  0.41800000000E+01 0. -1.
         -5    1    1    2    0  502  0.38077175735E+02  0.44303810201E+02  0.23994585547E+02  0.63292270032E+02  0.41800000000E+01 0. -1.
        -11    1    1    2    0    0  0.43969835337E+02 -0.20573226381E+02  0.92223176368E+02  0.10421956785E+03  0.00000000000E+00 0. -1.
         11    1    1    2    0    0 -0.22743775472E+02  0.95691833931E+01  0.64919540322E+01  0.25514585254E+02  0.00000000000E+00 0.  1.
</event>
<event>
 6    1  0.6597032E-006  0.7908698E+02  0.7561462E-02  0.1331663E+00
         -2   -1    0    0    0  501 -0.00000000000E+00  0.00000000000E+00  0.88365770847E+02  0.88365770847E+02  0.00000000000E+00 0.  1.
          2   -1    0    0  501    0  0.00000000000E+00 -0.00000000000E+00 -0.12712983218E+03  0.12712983218E+03  0.00000000000E+00 0. -1.
          5    1    1    2  502    0  0.25117223916E+02  0.46622861282E+02  0.12153744460E+02  0.54495431329E+02  0.41800000000E+01 0.  1.
         -5    1    1    2    0  502 -0.41070630252E+02 -0.47004862521E+02 -0.41214353972E+02  0.74915613481E+02  0.41800000000E+01 0.  1.
        -11    1    1    2    0    0 -0.12567604377E+02 -0.48931448838E+01  0.32321357148E+02  0.35022245424E+02  0.00000000000E+00 0.  1.
         11    1    1    2    0    0  0.28521010714E+02  0.52751461227E+01 -0.42024808971E+02  0.51062312793E+02  0.00000000000E+00 0. -1.
</event>
<event>
 6    1  0.6597032E-006  0.1407940E+03  0.7561462E-02  0.1212265E+00
         -1   -1    0    0    0  501 -0.00000000000E+00  0.00000000000E+00  0.25285661513E+03  0.25285661513E+03  0.00000000000E+00 0.  1.
          1   -1    0    0  501    0  0.00000000000E+00 -0.00000000000E+00 -0.14077045151E+03  0.14077045151E+03  0.00000000000E+00 0. -1.
          5    1    1    2  502    0 -0.10359685708E+03  0.66592479038E+02  0.15168468277E+03  0.19542922619E+03  0.41800000000E+01 0.  1.
         -5    1    1    2    0  502 -0.16451613678E+02  0.49273237509E+01 -0.25203052083E+02  0.30783117877E+02  0.41800000000E+01 0.  1.
        -11    1    1    2    0    0  0.84456695473E+02 -0.41379231642E+02  0.34186166755E+02  0.10006931707E+03  0.00000000000E+00 0.  1.
         11    1    1    2    0    0  0.35591775289E+02 -0.30140571147E+02 -0.48581633827E+02  0.67345405505E+02  0.00000000000E+00 0. -1.
</event>
<event>
 6    1  0.6597032E-006  0.1347664E+03  0.7561462E-02  0.1220550E+00
          2   -1    0    0  501    0  0.00000000000E+00  0.00000000000E+00  0.25969671975E+03  0.25969671975E+03  0.00000000000E+00 0. -1.
         -2   -1    0    0    0  501 -0.00000000000E+00 -0.00000000000E+00 -0.74052369266E+02  0.74052369266E+02  0.00000000000E+00 0.  1.
          5    1    1    2  502    0 -0.61321519751E+02 -0.89008762037E+02  0.89644077952E+02  0.14048637520E+03  0.41800000000E+01 0. -1.
         -5    1    1    2    0  502  0.43227512916E+02  0.22776523133E+02  0.11871477526E+02  0.50455844632E+02  0.41800000000E+01 0.  1.
        -11    1    1    2    0    0  0.52120992077E+02  0.22136073518E+02  0.58754963346E+02  0.81601159818E+02  0.00000000000E+00 0.  1.
         11    1    1    2    0    0 -0.34026985242E+02  0.44096165385E+02  0.25373831663E+02  0.61205709371E+02  0.00000000000E+00 0. -1.
</event>
<event>
 6    1  0.6597032E-006  0.8345502E+02  0.7561462E-02  0.1319523E+00
          3   -1    0    0  501    0  0.00000000000E+00  0.00000000000E+00  0.11669437231E+03  0.11669437231E+03  0.00000000000E+00 0. -1.
         -3   -1    0    0    0  501 -0.00000000000E+00 -0.00000000000E+00 -0.10901047325E+03  0.10901047325E+03  0.00000000000E+00 0.  1.
          5    1    1    2  502    0  0.26639693718E+02 -0.15099218177E+02  0.50142036501E+02  0.58901238489E+02  0.41800000000E+01 0. -1.
         -5    1    1    2    0  502 -0.17271655804E+02  0.34223977076E+02 -0.56142953854E+02  0.68110897576E+02  0.41800000000E+01 0. -1.
        -11    1    1    2    0    0  0.39585438923E+02 -0.26920690622E+02  0.10567032124E+02  0.49024409494E+02  0.00000000000E+00 0. -1.
         11    1    1    2    0    0 -0.48953476838E+02  0.77959317229E+01  0.31177842900E+01  0.49668299999E+02  0.00000000000E+00 0.  1.
</event>
<event>
 6    1  0.6597032E-006  0.1087352E+03  0.7561462E-02  0.1262930E+00
         -2   -1    0    0    0  501 -0.00000000000E+00  0.00000000000E+00  0.10718895820E+03  0.10718895820E+03  0.00000000000E+00 0.  1.
          2   -1    0    0  501    0  0.00000000000E+00 -0.00000000000E+00 -0.11558964841E+03  0.11558964841E+03  0.00000000000E+00 0. -1.
          5    1    1    2  502    0  0.14597337585E+01 -0.54737101525E+02 -0.58529911251E+01  0.55226904776E+02  0.41800000000E+01 0.  1.
         -5    1    1    2    0  502  0.11715835372E+02  0.68317661773E+02  0.18825541044E+02  0.71947460721E+02  0.41800000000E+01 0.  1.
        -11    1    1    2    0    0 -0.49891127088E+00 -0.52335674650E+02 -0.13860077658E+02  0.54142160155E+02  0.00000000000E+00 0.  1.
         11    1    1    2    0    0 -0.12676657859E+02  0.38755114402E+02 -0.75131624668E+01  0.41462080954E+02  0.00000000000E+00 0. -1.
</event>
<event>
 6    1  0.6597032E-006  0.9546342E+02  0.7561462E-02  0.1290136E+00
         -2   -1    0    0    0  501 -0.00000000000E+00  0.00000000000E+00  0.23260383181E+02  0.23260383181E+02  0.00000000000E+00 0.  1.
          2   -1    0    0  501    0  0.00000000000E+00 -0.00000000000E+00 -0.56579988938E+03  0.56579988938E+03  0.00000000000E+00 0. -1.
          5    1    1    2  502    0 -0.26448489629E+02  0.58346224985E+02 -0.60300530344E+02  0.88076279062E+02  0.41800000000E+01 0.  1.
         -5    1    1    2    0  502  0.24874358240E+02 -0.34657972116E+02 -0.16743308329E+03  0.17283292079E+03  0.41800000000E+01 0.  1.
        -11    1    1    2    0    0  0.36078981856E+01 -0.53681628575E+02 -0.26126912752E+03  0.26675136583E+03  0.00000000000E+00 0. -1.
         11    1    1    2    0    0 -0.20337667961E+01  0.29993375706E+02 -0.53536765047E+02  0.61399706883E+02  0.00000000000E+00 0.  1.
</event>
<event>
 6    1  0.6597032E-006  0.1166251E+03  0.7561462E-02  0.1248771E+00
         -1   -1    0    0    0  501 -0.00000000000E+00  0.00000000000E+00  0.13182643478E+03  0.13182643478E+03  0.00000000000E+00 0.  1.
          1   -1    0    0  501    0  0.00000000000E+00 -0.00000000000E+00 -0.14832005477E+03  0.14832005477E+03  0.00000000000E+00 0. -1.
          5    1    1    2  502    0  0.29696887164E+02  0.38426554257E+02  0.36398588277E+01  0.48879711043E+02  0.41800000000E+01 0. -1.
         -5    1    1    2    0  502  0.27788367450E+02 -0.96547537227E+02  0.16444224211E+02  0.10188967180E+03  0.41800000000E+01 0. -1.
        -11    1    1    2    0    0 -0.40000212884E+02  0.51605399822E+02 -0.67086282733E+02  0.93614655116E+02  0.00000000000E+00 0. -1.
         11    1    1    2    0    0 -0.17485041730E+02  0.65155831470E+01  0.30508579702E+02  0.35762451587E+02  0.00000000000E+00 0.  1.
</event>
<event>
 6    1  0.6597032E-006  0.1137945E+03  0.7561462E-02  0.1253700E+00
         -1   -1    0    0    0  501 -0.00000000000E+00  0.00000000000E+00  0.30683939085E+03  0.30683939085E+03  0.00000000000E+00 0.  1.
          1   -1    0    0  501    0  0.00000000000E+00 -0.00000000000E+00 -0.62564802465E+02  0.62564802465E+02  0.00000000000E+00 0. -1.
          5    1    1    2  502    0 -0.89482599354E+02  0.32737700931E+02  0.12906450503E+03  0.16048056427E+03  0.41800000000E+01 0. -1.
         -5    1    1    2    0  502  0.23098822393E+02 -0.16362842603E+02  0.86947712332E+02  0.91535104161E+02  0.41800000000E+01 0.  1.
        -11    1    1    2    0    0  0.83365258778E+02 -0.57387830808E+01  0.10175442543E+01  0.83568746543E+02  0.00000000000E+00 0.  1.
         11    1    1    2    0    0 -0.16981481818E+02 -0.10636075248E+02  0.27244826768E+02  0.33819778341E+02  0.00000000000E+00 0. -1.
</event>
<event>
 6    1  0.6597032E-006  0.1052447E+03  0.7561462E-02  0.1269638E+00
          1   -1    0    0  501    0  0.00000000000E+00  0.00000000000E+00  0.70928160299E+03  0.70928160299E+03  0.00000000000E+00 0. -1.
         -1   -1    0    0    0  501 -0.00000000000E+00 -0.00000000000E+00 -0.21705803781E+02  0.21705803781E+02  0.00000000000E+00 0.  1.
          5    1    1    2  502    0  0.30600971076E+02 -0.24674237638E+02  0.13332708087E+03  0.13906408712E+03  0.41800000000E+01 0.  1.
         -5    1    1    2    0  502 -0.52625912299E+02  0.86219951226E+02  0.27937225369E+03  0.29710216285E+03  0.41800000000E+01 0.  1.
        -11    1    1    2    0    0 -0.51856579740E+01 -0.15846076400E+02  0.19802512494E+01  0.16790192998E+02  0.00000000000E+00 0.  1.
         11    1    1    2    0    0  0.27210599196E+02 -0.45699637189E+02  0.27289621340E+03  0.27803096381E+03  0.00000000000E+00 0. -1.
</event>
<event>
 6    1  0.6597032E-006  0.9266850E+02  0.7561462E-02  0.1296515E+00
          1   -1    0    0  501    0  0.00000000000E+00  0.00000000000E+00  0.30582727944E+03  0.30582727944E+03  0.00000000000E+00 0. -1.
         -1   -1    0    0    0  501 -0.00000000000E+00 -0.00000000000E+00 -0.50901532076E+02  0.50901532076E+02  0.00000000000E+00 0.  1.
          5    1    1    2  502    0  0.82636722203E+01 -0.28842787061E+02  0.75226518554E+02  0.81096831860E+02  0.41800000000E+01 0. -1.
         -5    1    1    2    0  502 -0.22306822671E+02  0.72377161141E+02  0.87502669060E+01  0.76355008764E+02  0.41800000000E+01 0. -1.
        -11    1    1    2    0    0  0.33774738444E+02 -0.48257864847E+02  0.16890982741E+03  0.17888567375E+03  0.00000000000E+00 0. -1.
         11    1    1    2    0    0 -0.19731587993E+02  0.47234907665E+01  0.20391344959E+01  0.20391297145E+02  0.00000000000E+00 0.  1.
</event>
<event>
 6    1  0.6597032E-006  0.1255009E+03  0.7561462E-02  0.1234289E+00
         -2   -1    0    0    0  501 -0.00000000000E+00  0.00000000000E+00  0.91473008263E+02  0.91473008263E+02  0.00000000000E+00 0.  1.
          2   -1    0    0  501    0  0.00000000000E+00 -0.00000000000E+00 -0.28291022534E+03  0.28291022534E+03  0.00000000000E+00 0. -1.
          5    1    1    2  502    0 -0.12739751783E+02  0.16612607278E+02 -0.11869048683E+03  0.12059512453E+03  0.41800000000E+01 0.  1.
         -5    1    1    2    0  502 -0.88646396178E+02  0.41211677567E+02 -0.20527079985E+02  0.99977094057E+02  0.41800000000E+01 0.  1.
        -11    1    1    2    0    0  0.35230273108E+02 -0.55341644767E+02 -0.57719065422E+02  0.87380548763E+02  0.00000000000E+00 0. -1.
         11    1    1    2    0    0  0.66155874853E+02 -0.24826400776E+01  0.54994151640E+01  0.66430466252E+02  0.00000000000E+00 0.  1.
</event>
<event>
 6    1  0.6597032E-006  0.9541526E+02  0.7561462E-02  0.1290244E+00
          2   -1    0    0  501    0  0.00000000000E+00  0.00000000000E+00  0.18479811300E+03  0.18479811300E+03  0.00000000000E+00 0. -1.
         -2   -1    0    0    0  501 -0.00000000000E+00 -0.00000000000E+00 -0.63645266094E+02  0.63645266094E+02  0.00000000000E+00 0.  1.
          5    1    1    2  502    0 -0.64206985111E+02  0.38496230576E+01  0.42235457139E+02  0.77062719744E+02  0.41800000000E+01 0. -1.
         -5    1    1    2    0  502  0.52353678862E+02 -0.18461606916E+02 -0.19233997587E+01  0.55703774441E+02  0.41800000000E+01 0. -1.
        -11    1    1    2    0    0 -0.20796228421E+01  0.40898451431E+02  0.15329099288E+02  0.43726301532E+02  0.00000000000E+00 0. -1.
         11    1    1    2    0    0  0.13932929090E+02 -0.26286467573E+02  0.65511690238E+02  0.71950583377E+02  0.00000000000E+00 0.  1.
</event>
<event>
 6    1  0.6597032E-006  0.1279127E+03  0.7561462E-02  0.1230586E+00
         -1   -1    0    0    0  501 -0.00000000000E+00  0.00000000000E+00  0.25815528426E+02  0.25815528426E+02  0.00000000000E+00 0.  1.
          1   -1    0    0  501    0  0.00000000000E+00 -0.00000000000E+00 -0.71761137639E+03  0.71761137639E+03  0.00000000000E+00 0. -1.
          5    1    1    2  502    0  0.82252395632E+02  0.38311478267E+02 -0.16646555086E+03  0.18963511799E+03  0.41800000000E+01 0. -1.
         -5    1    1    2    0  502 -0.69262460852E+01 -0.53922776424E+02 -0.13848854874E+03  0.14883611536E+03  0.41800000000E+01 0. -1.
        -11    1    1    2    0    0 -0.11357873331E+02  0.40321542460E+02 -0.77425319059E+02  0.88031290484E+02  0.00000000000E+00 0.  1.
         11    1    1    2    0    0 -0.63968276215E+02 -0.24710244304E+02 -0.30941642931E+03  0.31692438099E+03  0.00000000000E+00 0. -1.
</event>
<event>
 6    1  0.6597032E-006  0.2290679E+03  0.7561462E-02  0.1127298E+00
         -3   -1    0    0    0  501 -0.00000000000E+00  0.00000000000E+00  0.11769178162E+03  0.11769178162E+03  0.00000000000E+00 0.  1.
          3   -1    0    0  501    0  0.00000000000E+00 -0.00000000000E+00 -0.50984876675E+03  0.50984876675E+03  0.00000000000E+00 0. -1.
          5    1    1    2  502    0 -0.46032956578E+02 -0.15572219839E+02 -0.94217997469E+02  0.10609444174E+03  0.41800000000E+01 0. -1.
         -5    1    1    2    0  502 -0.15355613649E+03  0.10727077509E+03 -0.97909365932E+02  0.21140062105E+03  0.41800000000E+01 0. -1.
        -11    1    1    2    0    0  0.65887299374E+02 -0.47344468626E+02 -0.24036357224E+02  0.84619036847E+02  0.00000000000E+00 0.  1.
         11    1    1    2    0    0  0.13370179370E+03 -0.44354086621E+02 -0.17599326451E+03  0.22542644873E+03  0.00000000000E+00 0. -1.
</event>
<event>
 6    1  0.6597032E-006  0.1301515E+03  0.7561462E-02  0.1227231E+00
         -1   -1    0    0    0  501 -0.00000000000E+00  0.00000000000E+00  0.30167288993E+03  0.30167288993E+03  0.00000000000E+00 0.  1.
          1   -1    0    0  501    0  0.00000000000E+00 -0.00000000000E+00 -0.10391574057E+03  0.10391574057E+03  0.00000000000E+00 0. -1.
          5    1    1    2  502    0  0.10646085386E+03  0.28421970832E+02  0.82722274980E+02  0.13784835512E+03  0.41800000000E+01 0. -1.
         -5    1    1    2    0  502  0.35991410899E+00 -0.31274405432E+02  0.11560075664E+03  0.11982998501E+03  0.41800000000E+01 0. -1.
        -11    1    1    2    0    0 -0.89562708292E+02 -0.18060217690E+02 -0.40257572761E+02  0.99841486088E+02  0.00000000000E+00 0.  1.
         11    1    1    2    0    0 -0.17258059681E+02  0.20912652291E+02  0.39691690505E+02  0.48068804280E+02  0.00000000000E+00 0. -1.
</event>
<event>
 6    1  0.6597032E-006  0.1419629E+03  0.7561462E-02  0.1210712E+00
          1   -1    0    0  501    0  0.00000000000E+00  0.00000000000E+00  0.14592500767E+03  0.14592500767E+03  0.00000000000E+00 0. -1.
         -1   -1    0    0    0  501 -0.00000000000E+00 -0.00000000000E+00 -0.18075188662E+03  0.18075188662E+03  0.00000000000E+00 0.  1.
          5    1    1    2  502    0 -0.58507245060E+02  0.26470679026E+02  0.25004051309E+02  0.69039623076E+02  0.41800000000E+01 0.  1.
         -5    1    1    2    0  502  0.77670199668E+01  0.74814128198E+02 -0.82392082030E+02  0.11163963435E+03  0.41800000000E+01 0.  1.
        -11    1    1    2    0    0 -0.84761383604E+01  0.13003722756E+02  0.21300570902E+01  0.15667765324E+02  0.00000000000E+00 0.  1.
         11    1    1    2    0    0  0.59216363453E+02 -0.11428852998E+03  0.20431094684E+02  0.13032987154E+03  0.00000000000E+00 0. -1.
</event>
<event>
 6    1  0.6597032E-006  0.1437730E+03  0.7561462E-02  0.1208340E+00
         -1   -1    0    0    0  501 -0.00000000000E+00  0.00000000000E+00  0.23791856935E+03  0.23791856935E+03  0.00000000000E+00 0.  1.
          1   -1    0    0  501    0  0.00000000000E+00 -0.00000000000E+00 -0.93259448163E+02  0.93259448163E+02  0.00000000000E+00 0. -1.
          5    1    1    2  502    0  0.41133276248E+02 -0.10581159637E+03  0.92631235296E+02  0.14658123513E+03  0.41800000000E+01 0. -1.
         -5    1    1    2    0  502 -0.42933473488E+02  0.72894426151E+01  0.17938320835E+02  0.47282923701E+02  0.41800000000E+01 0. -1.
        -11    1    1    2    0    0 -0.39285187304E+02  0.69699151141E+02  0.70817574607E+01  0.80320911972E+02  0.00000000000E+00 0. -1.
         11    1    1    2    0    0  0.41085384544E+02  0.28823002614E+02  0.27007807591E+02  0.56992946701E+02  0.00000000000E+00 0.  1.
</event>
<event>
 6    1  0.6597032E-006  0.1195988E+03  0.7561462E-02  0.1243760E+00
          1   -1    0    0  501    0  0.00000000000E+00  0.00000000000E+00  0.38187895369E+03  0.38187895369E+03  0.00000000000E+00 0. -1.
         -1   -1    0    0    0  501 -0.00000000000E+00 -0.00000000000E+00 -0.52220372261E+02  0.52220372261E+02  0.00000000000E+00 0.  1.
          5    1    1    2  502    0  0.44580853518E+02  0.38639148228E+02  0.17924656085E+01  0.59170276399E+02  0.41800000000E+01 0.  1.
         -5    1    1    2    0  502 -0.47445983744E+02  0.16240844918E+02  0.97513737964E+02  0.10973280234E+03  0.41800000000E+01 0.  1.
        -11    1    1    2    0    0  0.36751622706E+02 -0.79675045023E+02  0.17453188305E+03  0.19534628937E+03  0.00000000000E+00 0. -1.
         11    1    1    2    0    0 -0.33886492480E+02  0.24795051876E+02  0.55820494809E+02  0.69849957844E+02  0.00000000000E+00 0.  1.
</event>
<event>
 6    1  0.6597032E-006  0.1033161E+03  0.7561462E-02  0.1273473E+00
          3   -1    0    0  501    0  0.00000000000E+00  0.00000000000E+00  0.11702552173E+03  0.11702552173E+03  0.00000000000E+00 0. -1.
         -3   -1    0    0    0  501 -0.00000000000E+00 -0.00000000000E+00 -0.11159526277E+03  0.11159526277E+03  0.00000000000E+00 0.  1.
          5    1    1    2  502    0 -0.30048629673E+02  0.38008894587E+02  0.30090334475E+02  0.57188257901E+02  0.41800000000E+01 0.  1.
         -5    1    1    2    0  502  0.58075504166E+02 -0.21600661238E+02 -0.36875898066E+02  0.72226428738E+02  0.41800000000E+01 0.  1.
        -11    1    1    2    0    0  0.30037500179E+02 -0.22476919152E+02 -0.61236482483E+01  0.38012660778E+02  0.00000000000E+00 0.  1.
         11    1    1    2    0    0 -0.58064374672E+02  0.60686858034E+01  0.18339470801E+02  0.61193437088E+02  0.00000000000E+00 0. -1.
</event>
<event>
 6    1  0.6597032E-006  0.1290024E+03  0.7561462E-02  0.1228944E+00
          2   -1    0    0  501    0  0.00000000000E+00  0.00000000000E+00  0.20952252505E+03  0.20952252505E+03  0.00000000000E+00 0. -1.
         -2   -1    0    0    0  501 -0.00000000000E+00 -0.00000000000E+00 -0.11716449307E+03  0.11716449307E+03  0.00000000000E+00 0.  1.
          5    1    1    2  502    0 -0.16557604352E+02  0.93359507137E+02  0.83958253778E+02  0.12671468980E+03  0.41800000000E+01 0. -1.
         -5    1    1    2    0  502  0.41642187715E+02 -0.53844806544E+02 -0.50104185043E+02  0.84624090827E+02  0.41800000000E+01 0.  1.
        -11    1    1    2    0    0 -0.51404755105E+02 -0.44643245890E+02  0.25217540625E+02  0.72604356661E+02  0.00000000000E+00 0.  1.
         11    1    1    2    0    0  0.26320171743E+02  0.51285452969E+01  0.33286422623E+02  0.42743880831E+02  0.00000000000E+00 0. -1.
</event>
<event>
 6    1  0.6597032E-006  0.8504418E+02  0.7561462E-02  0.1315317E+00
          3   -1    0    0  501    0  0.00000000000E+00  0.00000000000E+00  0.18491657108E+02  0.18491657108E+02  0.00000000000E+00 0. -1.
         -3   -1    0    0    0  501 -0.00000000000E+00 -0.00000000000E+00 -0.89011520726E+03  0.89011520726E+03  0.00000000000E+00 0.  1.
          5    1    1    2  502    0 -0.14465290470E+02  0.34526933711E+02 -0.61071159081E+03  0.61187210537E+03  0.41800000000E+01 0. -1.
         -5    1    1    2    0  502  0.39530478143E+02 -0.84623989521E+00 -0.61970437068E+02  0.73628678479E+02  0.41800000000E+01 0. -1.
        -11    1    1    2    0    0 -0.54382421924E+02 -0.32428742365E+02 -0.17194603106E+03  0.18323348150E+03  0.00000000000E+00 0.  1.
         11    1    1    2    0    0  0.29317234251E+02 -0.12519514505E+01 -0.26995491214E+02  0.39872599018E+02  0.00000000000E+00 0. -1.
</event>
<event>
 6    1  0.6597032E-006  0.1859380E+03  0.7561462E-02  0.1162177E+00
          2   -1    0    0  501    0  0.00000000000E+00  0.00000000000E+00  0.14391258970E+04  0.14391258970E+04  0.00000000000E+00 0. -1.
         -2   -1    0    0    0  501 -0.00000000000E+00 -0.00000000000E+00 -0.55479735091E+02  0.55479735091E+02  0.00000000000E+00 0.  1.
          5    1    1    2  502    0 -0.18422699236E+02 -0.16615712269E+01  0.51075691849E+03  0.51110885226E+03  0.41800000000E+01 0. -1.
         -5    1    1    2    0  502  0.19638213474E+02 -0.17424063467E+03  0.14080195996E+03  0.22491803513E+03  0.41800000000E+01 0.  1.
        -11    1    1    2    0    0 -0.73130728964E+01  0.17086096390E+02  0.14419555115E+02  0.23523165066E+02  0.00000000000E+00 0.  1.
         11    1    1    2    0    0  0.60975586585E+01  0.15881610950E+03  0.71766772835E+03  0.73505557965E+03  0.00000000000E+00 0. -1.
</event>
<event>
 6    1  0.6597032E-006  0.2364385E+03  0.7561462E-02  0.1122188E+00
         -2   -1    0    0    0  501 -0.00000000000E+00  0.00000000000E+00  0.91102235114E+02  0.91102235114E+02  0.00000000000E+00 0.  1.
          2   -1    0    0  501    0  0.00000000000E+00 -0.00000000000E+00 -0.64836777610E+03  0.64836777610E+03  0.00000000000E+00 0. -1.
          5    1    1    2  502    0 -0.95068597910E+02  0.48056045815E+02 -0.17838556881E+03  0.20781315023E+03  0.41800000000E+01 0. -1.
         -5    1    1    2    0  502 -0.86662735924E+01  0.13853833508E+03 -0.17023852442E+03  0.21969661395E+03  0.41800000000E+01 0. -1.
        -11    1    1    2    0    0  0.44662841995E+02 -0.15312114515E+03 -0.17288616770E+03  0.23522432172E+03  0.00000000000E+00 0. -1.
         11    1    1    2    0    0  0.59072029507E+02 -0.33473235745E+02 -0.35755280050E+02  0.76735925308E+02  0.00000000000E+00 0.  1.
</event>
<event>
 6    1  0.6597032E-006  0.1613789E+03  0.7561462E-02  0.1187149E+00
         -2   -1    0    0    0  501 -0.00000000000E+00  0.00000000000E+00  0.16916162464E+03  0.16916162464E+03  0.00000000000E+00 0.  1.
          2   -1    0    0  501    0  0.00000000000E+00 -0.00000000000E+00 -0.23458839212E+03  0.23458839212E+03  0.00000000000E+00 0. -1.
          5    1    1    2  502    0 -0.95623883625E+02  0.81912090704E+02  0.64839187078E+02  0.14168666241E+03  0.41800000000E+01 0. -1.
         -5    1    1    2    0  502 -0.36336630752E+02 -0.39971958634E+02 -0.46495867424E+01  0.54380136707E+02  0.41800000000E+01 0. -1.
        -11    1    1    2    0    0  0.32048302248E+02 -0.26319922429E+02 -0.92336765504E+02  0.10122208384E+03  0.00000000000E+00 0. -1.
         11    1    1    2    0    0  0.99912212128E+02 -0.15620209641E+02 -0.33279602305E+02  0.10646113381E+03  0.00000000000E+00 0.  1.
</event>
<event>
 6    1  0.6597032E-006  0.1116187E+03  0.7561462E-02  0.1257601E+00
         -2   -1    0    0    0  501 -0.00000000000E+00  0.00000000000E+00  0.55066264898E+03  0.55066264898E+03  0.00000000000E+00 0. -1.
          2   -1    0    0  501    0  0.00000000000E+00 -0.00000000000E+00 -0.30980224051E+02  0.30980224051E+02  0.00000000000E+00 0.  1.
          5    1    1    2  502    0 -0.35957417138E+02 -0.22773959315E+02  0.22326533243E+03  0.22732459201E+03  0.41800000000E+01 0. -1.
         -5    1    1    2    0  502  0.71218975192E+02  0.37837113228E+02  0.19956441224E+03  0.21528403702E+03  0.41800000000E+01 0. -1.
        -11    1    1    2    0    0  0.12202746905E+02 -0.42960428417E+02  0.41560177861E+02  0.61006178586E+02  0.00000000000E+00 0.  1.
         11    1    1    2    0    0 -0.47464304959E+02  0.27897274504E+02  0.55292502410E+02  0.78028065417E+02  0.00000000000E+00 0. -1.
</event>
<event>
 6    1  0.6597032E-006  0.2200003E+03  0.7561462E-02  0.1133883E+00
          2   -1    0    0  501    0  0.00000000000E+00  0.00000000000E+00  0.82914833753E+03  0.82914833753E+03  0.00000000000E+00 0. -1.
         -2   -1    0    0    0  501 -0.00000000000E+00 -0.00000000000E+00 -0.67189448047E+02  0.67189448047E+02  0.00000000000E+00 0.  1.
          5    1    1    2  502    0 -0.16721004647E+03 -0.12086686423E+03  0.34343622801E+03  0.40066683619E+03  0.41800000000E+01 0. -1.
         -5    1    1    2    0  502  0.95275993420E+02  0.82210066909E+02  0.12421959490E+03  0.17687280792E+03  0.41800000000E+01 0.  1.
        -11    1    1    2    0    0  0.17095779480E+01 -0.17640245721E+02  0.94934119913E+01  0.20105367370E+02  0.00000000000E+00 0. -1.
         11    1    1    2    0    0  0.70224475102E+02  0.56297043045E+02  0.28480965458E+03  0.29869277411E+03  0.00000000000E+00 0.  1.
</event>
<event>
 6    1  0.6597032E-006  0.5746218E+02  0.7561462E-02  0.1408801E+00
          3   -1    0    0  501    0  0.00000000000E+00  0.00000000000E+00  0.82093819442E+02  0.82093819442E+02  0.00000000000E+00 0. -1.
         -3   -1    0    0    0  501 -0.00000000000E+00 -0.00000000000E+00 -0.17416034915E+03  0.17416034915E+03  0.00000000000E+00 0.  1.
          5    1    1    2  502    0  0.30867685761E+02 -0.24194349282E+02 -0.93698203511E+02  0.10166123304E+03  0.41800000000E+01 0.  1.
         -5    1    1    2    0  502 -0.22544520165E+00 -0.20070547492E+02  0.39814969185E+02  0.44783723308E+02  0.41800000000E+01 0.  1.
        -11    1    1    2    0    0 -0.19336288639E+02  0.36369592570E+02 -0.66551395033E+02  0.78267026919E+02  0.00000000000E+00 0.  1.
         11    1    1    2    0    0 -0.11305951921E+02  0.78953042048E+01  0.28368099651E+02  0.31542185326E+02  0.00000000000E+00 0. -1.
</event>
<event>
 6    1  0.6597032E-006  0.1232323E+03  0.7561462E-02  0.1237858E+00
         -1   -1    0    0    0  501 -0.00000000000E+00  0.00000000000E+00  0.40433219212E+03  0.40433219212E+03  0.00000000000E+00 0.  1.
          1   -1    0    0  501    0  0.00000000000E+00 -0.00000000000E+00 -0.51730680673E+02  0.51730680673E+02  0.00000000000E+00 0. -1.
          5    1    1    2  502    0  0.91816934589E+02 -0.67472159514E+00  0.15615129580E+03  0.18119465861E+03  0.41800000000E+01 0.  1.
         -5    1    1    2    0  502 -0.20536894383E+02 -0.58105406535E+02  0.71273960010E+02  0.94315704287E+02  0.41800000000E+01 0.  1.
        -11    1    1    2    0    0 -0.58845411083E+02  0.44066586354E+02  0.13872504544E+03  0.15700090659E+03  0.00000000000E+00 0.  1.
         11    1    1    2    0    0 -0.12434629123E+02  0.14713541776E+02 -0.13548789808E+02  0.23551603306E+02  0.00000000000E+00 0. -1.
</event>
<event>
 6    1  0.6597032E-006  0.4628985E+02  0.7561462E-02  0.1466446E+00
         -2   -1    0    0    0  501 -0.00000000000E+00  0.00000000000E+00  0.68623515963E+02  0.68623515963E+02  0.00000000000E+00 0. -1.
          2   -1    0    0  501    0  0.00000000000E+00 -0.00000000000E+00 -0.19392695693E+03  0.19392695693E+03  0.00000000000E+00 0.  1.
          5    1    1    2  502    0 -0.82281959075E+01 -0.10090794330E+02  0.45995447553E+02  0.47985215782E+02  0.41800000000E+01 0.  1.
         -5    1    1    2    0  502  0.66425249969E+01 -0.94004308508E+01 -0.83032606676E+02  0.83930789404E+02  0.41800000000E+01 0.  1.
        -11    1    1    2    0    0 -0.31979811105E+01 -0.23341689175E+02 -0.84096155297E+02  0.87333984636E+02  0.00000000000E+00 0.  1.
         11    1    1    2    0    0  0.47836520212E+01  0.42832914355E+02 -0.41701265489E+01  0.43300483072E+02  0.00000000000E+00 0. -1.
</event>
<event>
 6    1  0.6597032E-006  0.1155822E+03  0.7561462E-02  0.1250568E+00
         -1   -1    0    0    0  501 -0.00000000000E+00  0.00000000000E+00  0.36727443855E+02  0.36727443855E+02  0.00000000000E+00 0.  1.
          1   -1    0    0  501    0  0.00000000000E+00 -0.00000000000E+00 -0.55577655298E+03  0.55577655298E+03  0.00000000000E+00 0. -1.
          5    1    1    2  502    0  0.23198956890E+02  0.50081407902E+02 -0.25623077682E+02  0.60994700820E+02  0.41800000000E+01 0.  1.
         -5    1    1    2    0  502  0.64198209861E+02 -0.21706349594E+02 -0.21393023849E+03  0.22444641922E+03  0.41800000000E+01 0.  1.
        -11    1    1    2    0    0 -0.40363572151E+02  0.15841575314E+02 -0.39907860503E+02  0.58930559094E+02  0.00000000000E+00 0.  1.
         11    1    1    2    0    0 -0.47033594600E+02 -0.44216633622E+02 -0.23958793245E+03  0.24813231770E+03  0.00000000000E+00 0. -1.
</event>
<event>
 6    1  0.6597032E-006  0.1218001E+03  0.7561462E-02  0.1240157E+00
          1   -1    0    0  501    0  0.00000000000E+00  0.00000000000E+00  0.25136247776E+03  0.25136247776E+03  0.00000000000E+00 0. -1.
         -1   -1    0    0    0  501 -0.00000000000E+00 -0.00000000000E+00 -0.10381930900E+03  0.10381930900E+03  0.00000000000E+00 0.  1.
          5    1    1    2  502    0  0.93936227255E+02  0.75089596964E+02 -0.22600358067E+02  0.12243655887E+03  0.41800000000E+01 0.  1.
         -5    1    1    2    0  502 -0.74833968297E+01 -0.15291947644E+02  0.37792314666E+02  0.41660248903E+02  0.41800000000E+01 0.  1.
        -11    1    1    2    0    0 -0.55007859986E+02 -0.31240557282E+02  0.13245923606E+02  0.64631970198E+02  0.00000000000E+00 0. -1.
         11    1    1    2    0    0 -0.31444970439E+02 -0.28557092038E+02  0.11910528855E+03  0.12645300879E+03  0.00000000000E+00 0.  1.
</event>
<event>
 6    1  0.6597032E-006  0.8209208E+02  0.7561462E-02  0.1323217E+00
          3   -1    0    0  501    0  0.00000000000E+00  0.00000000000E+00  0.28135197268E+03  0.28135197268E+03  0.00000000000E+00 0. -1.
         -3   -1    0    0    0  501 -0.00000000000E+00 -0.00000000000E+00 -0.50842044555E+02  0.50842044555E+02  0.00000000000E+00 0.  1.
          5    1    1    2  502    0  0.27419708216E+02 -0.72810275168E+01 -0.10190255137E+02  0.30432999525E+02  0.41800000000E+01 0.  1.
         -5    1    1    2    0  502 -0.78567872547E+02  0.12728770114E+02  0.11865060055E+03  0.14293484389E+03  0.41800000000E+01 0.  1.
        -11    1    1    2    0    0  0.21555081620E+02 -0.13120605039E+02  0.12554451234E+03  0.12805544267E+03  0.00000000000E+00 0. -1.
         11    1    1    2    0    0  0.29593082711E+02  0.76728624418E+01 -0.34949296297E+01  0.30770731150E+02  0.00000000000E+00 0.  1.
</event>
<event>
 6    1  0.6597032E-006  0.1548075E+03  0.7561462E-02  0.1194687E+00
          2   -1    0    0  501    0  0.00000000000E+00  0.00000000000E+00  0.27529218613E+03  0.27529218613E+03  0.00000000000E+00 0. -1.
         -2   -1    0    0    0  501 -0.00000000000E+00 -0.00000000000E+00 -0.19762755302E+03  0.19762755302E+03  0.00000000000E+00 0.  1.
          5    1    1    2  502    0 -0.33358661250E+02 -0.13069367795E+02 -0.21170380838E+02  0.41824228382E+02  0.41800000000E+01 0.  1.
         -5    1    1    2    0  502  0.39155748640E+02  0.12523235666E+03 -0.11479915186E+03  0.17439218295E+03  0.41800000000E+01 0.  1.
        -11    1    1    2    0    0 -0.46646891934E+02 -0.61355020128E+02  0.11944972431E+03  0.14215698245E+03  0.00000000000E+00 0.  1.
         11    1    1    2    0    0  0.40849804544E+02 -0.50807968739E+02  0.94184441498E+02  0.11454634538E+03  0.00000000000E+00 0. -1.
</event>
<event>
 6    1  0.6597032E-006  0.6927876E+02  0.7561462E-02  0.1362563E+00
         -1   -1    0    0    0  501 -0.00000000000E+00  0.00000000000E+00  0.43186366664E+02  0.43186366664E+02  0.00000000000E+00 0.  1.
          1   -1    0    0  501    0  0.00000000000E+00 -0.00000000000E+00 -0.33942462583E+03  0.33942462583E+03  0.00000000000E+00 0. -1.
          5    1    1    2  502    0 -0.29432757410E+02  0.52023610133E+01  0.14266369203E+02  0.33381933124E+02  0.41800000000E+01 0. -1.
         -5    1    1    2    0  502  0.39245056034E+02  0.39494101874E+02 -0.13619683252E+03  0.14719717420E+03  0.41800000000E+01 0. -1.
        -11    1    1    2    0    0  0.88738031170E+01 -0.12760493760E+02  0.69573885495E+01  0.17028794385E+02  0.00000000000E+00 0.  1.
         11    1    1    2    0    0 -0.18686101741E+02 -0.31935969127E+02 -0.18126518440E+03  0.18500309078E+03  0.00000000000E+00 0. -1.
</event>
<event>
 6    1  0.6597032E-006  0.6213656E+02  0.7561462E-02  0.1389078E+00
          1   -1    0    0  501    0  0.00000000000E+00  0.00000000000E+00  0.11903870099E+03  0.11903870099E+03  0.00000000000E+00 0. -1.
         -1   -1    0    0    0  501 -0.00000000000E+00 -0.00000000000E+00 -0.10325562335E+03  0.10325562335E+03  0.00000000000E+00 0.  1.
          5    1    1    2  502    0  0.16797359353E+02  0.22172933445E+02 -0.60803568709E+02  0.66995049269E+02  0.41800000000E+01 0.  1.
         -5    1    1    2    0  502 -0.83156854578E+01 -0.28063720914E+02  0.50950696806E+02  0.58908140025E+02  0.41800000000E+01 0.  1.
        -11    1    1    2    0    0 -0.32596446300E+02 -0.13845799823E+02 -0.20346958993E+02  0.40844010875E+02  0.00000000000E+00 0.  1.
         11    1    1    2    0    0  0.24114772405E+02  0.19736587292E+02  0.45982908540E+02  0.55547124173E+02  0.00000000000E+00 0. -1.
</event>
<event>
 6    1  0.6597032E-006  0.1596775E+03  0.7561462E-02  0.1189061E+00
         -1   -1    0    0    0  501 -0.00000000000E+00  0.00000000000E+00  0.60822585918E+02  0.60822585918E+02  0.00000000000E+00 0.  1.
          1   -1    0    0  501    0  0.00000000000E+00 -0.00000000000E+00 -0.89468295141E+03  0.89468295141E+03  0.00000000000E+00 0. -1.
          5    1    1    2  502    0  0.75495791430E+01 -0.12790304560E+02 -0.90382563957E+02  0.91690066547E+02  0.41800000000E+01 0. -1.
         -5    1    1    2    0  502 -0.90679975214E+02 -0.11336099899E+03 -0.58083101546E+02  0.15641193395E+03  0.41800000000E+01 0.  1.
        -11    1    1    2    0    0  0.53252342176E+02  0.37456083697E+02 -0.14475209250E+03  0.15871968510E+03  0.00000000000E+00 0.  1.
         11    1    1    2    0    0  0.29878053895E+02  0.88695219849E+02 -0.54064260748E+03  0.54868385174E+03  0.00000000000E+00 0. -1.
</event>
<event>
 6    1  0.6597032E-006  0.1104283E+03  0.7561462E-02  0.1259779E+00
         -2   -1    0    0    0  501 -0.00000000000E+00  0.00000000000E+00  0.15714616147E+03  0.15714616147E+03  0.00000000000E+00 0.  1.
          2   -1    0    0  501    0  0.00000000000E+00 -0.00000000000E+00 -0.96210625448E+02  0.96210625448E+02  0.00000000000E+00 0. -1.
          5    1    1    2  502    0  0.45226715841E+02  0.47021327430E+02  0.42706289827E+02  0.78088159473E+02  0.41800000000E+01 0. -1.
         -5    1    1    2    0  502 -0.53613186957E+02 -0.29125529394E+02  0.46373772686E+02  0.76750696878E+02  0.41800000000E+01 0. -1.
        -11    1    1    2    0    0  0.43228115247E+02 -0.34897234638E+02 -0.14483763313E+02  0.57413119868E+02  0.00000000000E+00 0.  1.
         11    1    1    2    0    0 -0.34841644131E+02  0.17001436602E+02 -0.13660763175E+02  0.41104810701E+02  0.00000000000E+00 0. -1.
</event>
<event>
 6    1  0.6597032E-006  0.1372164E+03  0.7561462E-02  0.1217124E+00
          2   -1    0    0  501    0  0.00000000000E+00  0.00000000000E+00  0.96189591888E+03  0.96189591888E+03  0.00000000000E+00 0. -1.
         -2   -1    0    0    0  501 -0.00000000000E+00 -0.00000000000E+00 -0.22955997886E+02  0.22955997886E+02  0.00000000000E+00 0.  1.
          5    1    1    2  502    0  0.53291243911E+01 -0.65424346519E+02  0.98911761282E+02  0.11878448385E+03  0.41800000000E+01 0. -1.
         -5    1    1    2    0  502  0.76707694764E+02  0.17047608228E+02  0.29573852720E+03  0.30602849582E+03  0.41800000000E+01 0. -1.
        -11    1    1    2    0    0 -0.81977705948E+02  0.38684571038E+00  0.38716729726E+03  0.39575119707E+03  0.00000000000E+00 0.  1.
         11    1    1    2    0    0 -0.59113206788E-01  0.47989892581E+02  0.15712233526E+03  0.16428774002E+03  0.00000000000E+00 0. -1.
</event>
<event>
 6    1  0.6597032E-006  0.1204290E+03  0.7561462E-02  0.1242391E+00
         -1   -1    0    0    0  501 -0.00000000000E+00  0.00000000000E+00  0.26928669860E+02  0.26928669860E+02  0.00000000000E+00 0. -1.
          1   -1    0    0  501    0  0.00000000000E+00 -0.00000000000E+00 -0.67640320795E+03  0.67640320795E+03  0.00000000000E+00 0.  1.
          5    1    1    2  502    0 -0.30476568526E+02  0.52236998628E+01 -0.25476321448E+02  0.40281802640E+02  0.41800000000E+01 0. -1.
         -5    1    1    2    0  502  0.82194934508E+02 -0.64179446111E+02 -0.28506903342E+03  0.30357344214E+03  0.41800000000E+01 0. -1.
        -11    1    1    2    0    0 -0.17083410140E+02  0.67489400041E+02 -0.12945745471E+03  0.14698943703E+03  0.00000000000E+00 0. -1.
         11    1    1    2    0    0 -0.34634955842E+02 -0.85336537931E+01 -0.20947172852E+03  0.21248719600E+03  0.00000000000E+00 0.  1.
</event>
<event>
 6    1  0.6597032E-006  0.1246257E+03  0.7561462E-02  0.1235655E+00
         -3   -1    0    0    0  501 -0.00000000000E+00  0.00000000000E+00  0.45385989361E+03  0.45385989361E+03  0.00000000000E+00 0.  1.
          3   -1    0    0  501    0  0.00000000000E+00 -0.00000000000E+00 -0.46528500786E+02  0.46528500786E+02  0.00000000000E+00 0. -1.
          5    1    1    2  502    0 -0.11807111723E+02  0.10366911898E+03  0.22060807010E+03  0.24407393779E+03  0.41800000000E+01 0. -1.
         -5    1    1    2    0  502  0.10059264161E+02 -0.42435069168E+02  0.12126582054E+03  0.12893717665E+03  0.41800000000E+01 0.  1.
        -11    1    1    2    0    0 -0.11424950224E+02 -0.78485024562E+02  0.28045454355E+02  0.84124764951E+02  0.00000000000E+00 0.  1.
         11    1    1    2    0    0  0.13172797787E+02  0.17250974749E+02  0.37412047835E+02  0.43252515009E+02  0.00000000000E+00 0. -1.
</event>
<event>
 6    1  0.6597032E-006  0.1356472E+03  0.7561462E-02  0.1219309E+00
          2   -1    0    0  501    0  0.00000000000E+00  0.00000000000E+00  0.73897085366E+03  0.73897085366E+03  0.00000000000E+00 0. -1.
         -2   -1    0    0    0  501 -0.00000000000E+00 -0.00000000000E+00 -0.27985722482E+02  0.27985722482E+02  0.00000000000E+00 0.  1.
          5    1    1    2  502    0  0.39235062938E+02  0.80853566041E+02  0.16844473770E+03  0.19096541929E+03  0.41800000000E+01 0.  1.
         -5    1    1    2    0  502 -0.61395698843E+02  0.18260626334E+01  0.10931807221E+03  0.12546186534E+03  0.41800000000E+01 0.  1.
        -11    1    1    2    0    0  0.67127874087E+01 -0.97868030355E+02  0.39043548746E+03  0.40257059350E+03  0.00000000000E+00 0. -1.
         11    1    1    2    0    0  0.15447848496E+02  0.15188401680E+02  0.42786833804E+02  0.47958698020E+02  0.00000000000E+00 0.  1.
</event>
<event>
 6    1  0.6597032E-006  0.9470803E+02  0.7561462E-02  0.1291835E+00
         -1   -1    0    0    0  501 -0.00000000000E+00  0.00000000000E+00  0.56229457773E+02  0.56229457773E+02  0.00000000000E+00 0.  1.
          1   -1    0    0  501    0  0.00000000000E+00 -0.00000000000E+00 -0.29480022880E+03  0.29480022880E+03  0.00000000000E+00 0. -1.
          5    1    1    2  502    0 -0.60334831818E+02  0.23935587454E+02  0.10984377905E+02  0.65964636247E+02  0.41800000000E+01 0. -1.
         -5    1    1    2    0  502  0.11678517733E+02  0.10744946543E+02 -0.94417648885E+02  0.95833222181E+02  0.41800000000E+01 0. -1.
        -11    1    1    2    0    0  0.13947157883E+02  0.30822297991E+02 -0.41337073561E+02  0.53416204630E+02  0.00000000000E+00 0.  1.
         11    1    1    2    0    0  0.34709156202E+02 -0.65502831988E+02 -0.11380042649E+03  0.13581562352E+03  0.00000000000E+00 0. -1.
</event>
<event>
 6    1  0.6597032E-006  0.1168211E+03  0.7561462E-02  0.1248435E+00
          2   -1    0    0  501    0  0.00000000000E+00  0.00000000000E+00  0.37555286384E+03  0.37555286384E+03  0.00000000000E+00 0. -1.
         -2   -1    0    0    0  501 -0.00000000000E+00 -0.00000000000E+00 -0.44389834413E+02  0.44389834413E+02  0.00000000000E+00 0.  1.
          5    1    1    2  502    0 -0.78349832032E+02 -0.49421147886E+02  0.15039837267E+03  0.17668698011E+03  0.41800000000E+01 0.  1.
         -5    1    1    2    0  502  0.24140732939E+01  0.43746007654E+02  0.21042708034E+02  0.48783285016E+02  0.41800000000E+01 0.  1.
        -11    1    1    2    0    0  0.26163217449E+02  0.31402426335E+02  0.11723675528E+03  0.12415749319E+03  0.00000000000E+00 0. -1.
         11    1    1    2    0    0  0.49772541288E+02 -0.25727286103E+02  0.42485193443E+02  0.70314939938E+02  0.00000000000E+00 0.  1.
</event>
<event>
 6    1  0.6597032E-006  0.9576857E+02  0.7561462E-02  0.1289454E+00
         -3   -1    0    0    0  501 -0.00000000000E+00  0.00000000000E+00  0.10837803388E+04  0.10837803388E+04  0.00000000000E+00 0.  1.
          3   -1    0    0  501    0  0.00000000000E+00 -0.00000000000E+00 -0.13326111906E+02  0.13326111906E+02  0.00000000000E+00 0. -1.
          5    1    1    2  502    0 -0.40912890089E+02 -0.22380125190E+02  0.59232874433E+03  0.59417636131E+03  0.41800000000E+01 0.  1.
         -5    1    1    2    0  502  0.79240671078E+01  0.51084002089E+02  0.12573003142E+03  0.13600690905E+03  0.41800000000E+01 0.  1.
        -11    1    1    2    0    0 -0.94841989868E+01 -0.46018594502E+02  0.25468667308E+03  0.25898448315E+03  0.00000000000E+00 0. -1.
         11    1    1    2    0    0  0.42473021968E+02  0.17314717603E+02  0.97708778081E+02  0.10793869721E+03  0.00000000000E+00 0.  1.
</event>
<event>
 6    1  0.6597032E-006  0.1362913E+03  0.7561462E-02  0.1218408E+00
         -1   -1    0    0    0  501 -0.00000000000E+00  0.00000000000E+00  0.15037704371E+03  0.15037704371E+03  0.00000000000E+00 0.  1.
          1   -1    0    0  501    0  0.00000000000E+00 -0.00000000000E+00 -0.18340543710E+03  0.18340543710E+03  0.00000000000E+00 0. -1.
          5    1    1    2  502    0 -0.93395901494E+02  0.27522838343E+02  0.10936382503E+02  0.98068230883E+02  0.41800000000E+01 0.  1.
         -5    1    1    2    0  502  0.27840141937E+02  0.59556460869E+02  0.32403437369E+02  0.73413218753E+02  0.41800000000E+01 0.  1.
        -11    1    1    2    0    0  0.50581224483E+02 -0.72076563508E+02 -0.53827578587E+01  0.88218282457E+02  0.00000000000E+00 0.  1.
         11    1    1    2    0    0  0.14974535073E+02 -0.15002735703E+02 -0.70985455406E+02  0.74082748723E+02  0.00000000000E+00 0. -1.
</event>
<event>
 6    1  0.6597032E-006  0.2928439E+03  0.7561462E-02  0.1088874E+00
          1   -1    0    0  501    0  0.00000000000E+00  0.00000000000E+00  0.86377941587E+02  0.86377941587E+02  0.00000000000E+00 0. -1.
         -1   -1    0    0    0  501 -0.00000000000E+00 -0.00000000000E+00 -0.12289870221E+04  0.12289870221E+04  0.00000000000E+00 0.  1.
          5    1    1    2  502    0  0.26970264349E+02 -0.62952681484E+01 -0.13908520093E+03  0.14187738043E+03  0.41800000000E+01 0.  1.
         -5    1    1    2    0  502  0.10053534129E+03  0.24962773640E+03 -0.71483050620E+03  0.76382032352E+03  0.41800000000E+01 0.  1.
        -11    1    1    2    0    0 -0.27148894986E+02 -0.14678984465E+03 -0.17400282232E+03  0.22926252020E+03  0.00000000000E+00 0. -1.
         11    1    1    2    0    0 -0.10035671065E+03 -0.96542623602E+02 -0.11469055106E+03  0.18040473954E+03  0.00000000000E+00 0.  1.
</event>
<event>
 6    1  0.6597032E-006  0.1169321E+03  0.7561462E-02  0.1248246E+00
          2   -1    0    0  501    0  0.00000000000E+00  0.00000000000E+00  0.11125221741E+04  0.11125221741E+04  0.00000000000E+00 0. -1.
         -2   -1    0    0    0  501 -0.00000000000E+00 -0.00000000000E+00 -0.16401580585E+02  0.16401580585E+02  0.00000000000E+00 0.  1.
          5    1    1    2  502    0  0.57459589159E+02  0.75419883108E+02  0.49631153041E+03  0.50530423585E+03  0.41800000000E+01 0.  1.
         -5    1    1    2    0  502 -0.40669069492E+02  0.44818786927E+01  0.78770873287E+02  0.88861596476E+02  0.41800000000E+01 0.  1.
        -11    1    1    2    0    0 -0.10000811424E+02 -0.87252000566E+02  0.51624662706E+03  0.52366354445E+03  0.00000000000E+00 0. -1.
         11    1    1    2    0    0 -0.67897082433E+01  0.73502387654E+01  0.47915627947E+01  0.11094377944E+02  0.00000000000E+00 0.  1.
</event>
<event>
 6    1  0.6597032E-006  0.1417399E+03  0.7561462E-02  0.1211007E+00
          1   -1    0    0  501    0  0.00000000000E+00  0.00000000000E+00  0.32263351960E+02  0.32263351960E+02  0.00000000000E+00 0. -1.
         -1   -1    0    0    0  501 -0.00000000000E+00 -0.00000000000E+00 -0.71610643378E+03  0.71610643378E+03  0.00000000000E+00 0.  1.
          5    1    1    2  502    0 -0.10536731865E+03 -0.10579599245E+01 -0.18409095053E+03  0.21215640830E+03  0.41800000000E+01 0. -1.
         -5    1    1    2    0  502  0.11723154259E+02 -0.47102043480E+02 -0.18851668752E+03  0.19471016594E+03  0.41800000000E+01 0. -1.
        -11    1    1    2    0    0 -0.11306382235E+02  0.15897684522E+02 -0.11496714182E+03  0.11661052419E+03  0.00000000000E+00 0.  1.
         11    1    1    2    0    0  0.10495054662E+03  0.32262318883E+02 -0.19626830195E+03  0.22489268732E+03  0.00000000000E+00 0. -1.
</event>
<event>
 6    1  0.6597032E-006  0.8889920E+02  0.7561462E-02  0.1305540E+00
          2   -1    0    0  501    0  0.00000000000E+00  0.00000000000E+00  0.36435346580E+02  0.36435346580E+02  0.00000000000E+00 0. -1.
         -2   -1    0    0    0  501 -0.00000000000E+00 -0.00000000000E+00 -0.50122577031E+03  0.50122577031E+03  0.00000000000E+00 0.  1.
          5    1    1    2  502    0 -0.32387745246E+00  0.54447710837E+02 -0.74444293091E+02  0.92325962145E+02  0.41800000000E+01 0.  1.
         -5    1    1    2    0  502 -0.42623859612E+01 -0.31377365470E+02 -0.33319206755E+03  0.33471948445E+03  0.41800000000E+01 0.  1.
        -11    1    1    2    0    0  0.33170884974E+02 -0.44514984903E+02 -0.19847888787E+02  0.58956171689E+02  0.00000000000E+00 0. -1.
         11    1    1    2    0    0 -0.28584621561E+02  0.21444639536E+02 -0.37306174308E+02  0.51659498605E+02  0.00000000000E+00 0.  1.
</event>
<event>
 6    1  0.6597032E-006  0.1181493E+03  0.7561462E-02  0.1246182E+00
          2   -1    0    0  501    0  0.00000000000E+00  0.00000000000E+00  0.10374131417E+04  0.10374131417E+04  0.00000000000E+00 0. -1.
         -2   -1    0    0    0  501 -0.00000000000E+00 -0.00000000000E+00 -0.13631796180E+02  0.13631796180E+02  0.00000000000E+00 0.  1.
          5    1    1    2  502    0  0.32459123868E+02 -0.43534945614E+02  0.25535826905E+03  0.26110190383E+03  0.41800000000E+01 0. -1.
         -5    1    1    2    0  502 -0.73324042024E+02 -0.16110550512E+01  0.28467958619E+03  0.29400501667E+03  0.41800000000E+01 0.  1.
        -11    1    1    2    0    0  0.67040933974E+02  0.47393426119E+02  0.33665242613E+03  0.34651908993E+03  0.00000000000E+00 0. -1.
         11    1    1    2    0    0 -0.26176015819E+02 -0.22474254542E+01  0.14709106417E+03  0.14941892747E+03  0.00000000000E+00 0.  1.
</event>
<event>
 6    1  0.6597032E-006  0.2081107E+03  0.7561462E-02  0.1143071E+00
          2   -1    0    0  501    0  0.00000000000E+00  0.00000000000E+00  0.16457202518E+04  0.16457202518E+04  0.00000000000E+00 0. -1.
         -2   -1    0    0    0  501 -0.00000000000E+00 -0.00000000000E+00 -0.31734002945E+02  0.31734002945E+02  0.00000000000E+00 0.  1.
          5    1    1    2  502    0  0.10772411883E+03  0.77919890296E+02  0.35624886761E+03  0.38027190687E+03  0.41800000000E+01 0. -1.
         -5    1    1    2    0  502  0.80910231889E+02 -0.11703059622E+02  0.55471372710E+03  0.56072115946E+03  0.41800000000E+01 0. -1.
        -11    1    1    2    0    0 -0.72324216484E+02 -0.37834223388E+02  0.15145878200E+03  0.17205226936E+03  0.00000000000E+00 0.  1.
         11    1    1    2    0    0 -0.11631013423E+03 -0.28382607285E+02  0.55156487219E+03  0.56440891910E+03  0.00000000000E+00 0. -1.
</event>
<event>
 6    1  0.6597032E-006  0.1355175E+03  0.7561462E-02  0.1219491E+00
         -2   -1    0    0    0  501 -0.00000000000E+00  0.00000000000E+00  0.33705538244E+03  0.33705538244E+03  0.00000000000E+00 0.  1.
          2   -1    0    0  501    0  0.00000000000E+00 -0.00000000000E+00 -0.85931980579E+02  0.85931980579E+02  0.00000000000E+00 0. -1.
          5    1    1    2  502    0  0.62323200332E+02  0.73374603159E+02  0.14012670061E+03  0.17006168972E+03  0.41800000000E+01 0. -1.
         -5    1    1    2    0  502 -0.55602234042E+02  0.20049513533E+02  0.10757859413E+03  0.12281782338E+03  0.41800000000E+01 0. -1.
        -11    1    1    2    0    0 -0.26670077399E+02 -0.82154688970E+01  0.27667743010E+02  0.39297467615E+02  0.00000000000E+00 0.  1.
         11    1    1    2    0    0  0.19949111109E+02 -0.85208647794E+02 -0.24249635893E+02  0.90810382302E+02  0.00000000000E+00 0. -1.
</event>
<event>
 6    1  0.6597032E-006  0.1021333E+03  0.7561462E-02  0.1275873E+00
         -3   -1    0    0    0  501 -0.00000000000E+00  0.00000000000E+00  0.14530952579E+03  0.14530952579E+03  0.00000000000E+00 0.  1.
          3   -1    0    0  501    0  0.00000000000E+00 -0.00000000000E+00 -0.24430245569E+03  0.24430245569E+03  0.00000000000E+00 0. -1.
          5    1    1    2  502    0  0.33250501158E+02 -0.21265846029E+02  0.79861342737E+01  0.40485587253E+02  0.41800000000E+01 0. -1.
         -5    1    1    2    0  502 -0.81166961906E+02 -0.20717878372E+02  0.89835621162E+02  0.12290328482E+03  0.41800000000E+01 0.  1.
        -11    1    1    2    0    0  0.15997775523E+02 -0.10599335462E+02  0.84905354375E+00  0.19209258857E+02  0.00000000000E+00 0.  1.
         11    1    1    2    0    0  0.31918685225E+02  0.52583059863E+02 -0.19766373888E+03  0.20701385055E+03  0.00000000000E+00 0. -1.
</event>
<event>
 6    1  0.6597032E-006  0.1343999E+03  0.7561462E-02  0.1221069E+00
          2   -1    0    0  501    0  0.00000000000E+00  0.00000000000E+00  0.10763905359E+04  0.10763905359E+04  0.00000000000E+00 0. -1.
         -2   -1    0    0    0  501 -0.00000000000E+00 -0.00000000000E+00 -0.18520450175E+02  0.18520450175E+02  0.00000000000E+00 0.  1.
          5    1    1    2  502    0 -0.60931154808E+02  0.10013425579E+03  0.46556473874E+03  0.48011193816E+03  0.41800000000E+01 0.  1.
         -5    1    1    2    0  502  0.24875834787E+02 -0.20365135818E+02  0.77532095277E+02  0.84037159110E+02  0.41800000000E+01 0.  1.
        -11    1    1    2    0    0 -0.19716553224E+02 -0.54317832586E+02  0.14764495207E+03  0.15855031151E+03  0.00000000000E+00 0.  1.
         11    1    1    2    0    0  0.55771873244E+02 -0.25451287389E+02  0.36712829962E+03  0.37221157728E+03  0.00000000000E+00 0. -1.
</event>
<event>
 6    1  0.6597032E-006  0.1436928E+03  0.7561462E-02  0.1208445E+00
          2   -1    0    0  501    0  0.00000000000E+00  0.00000000000E+00  0.31667008541E+03  0.31667008541E+03  0.00000000000E+00 0.  1.
         -2   -1    0    0    0  501 -0.00000000000E+00 -0.00000000000E+00 -0.69576619651E+02  0.69576619651E+02  0.00000000000E+00 0. -1.
          5    1    1    2  502    0  0.58807062407E+02 -0.22313613092E+02  0.30123855537E+02  0.69864776466E+02  0.41800000000E+01 0. -1.
         -5    1    1    2    0  502  0.47611468432E+01  0.93744220264E+02  0.61131443806E+02  0.11209448324E+03  0.41800000000E+01 0. -1.
        -11    1    1    2    0    0 -0.56095186282E+02  0.24350266423E+01  0.51203987460E+02  0.75989786225E+02  0.00000000000E+00 0. -1.
         11    1    1    2    0    0 -0.74730229690E+01 -0.73865633814E+02  0.10463417895E+03  0.12829765912E+03  0.00000000000E+00 0.  1.
</event>
<event>
 6    1  0.6597032E-006  0.1386415E+03  0.7561462E-02  0.1215169E+00
         -2   -1    0    0    0  501 -0.00000000000E+00  0.00000000000E+00  0.87863972254E+02  0.87863972254E+02  0.00000000000E+00 0.  1.
          2   -1    0    0  501    0  0.00000000000E+00 -0.00000000000E+00 -0.24131119044E+03  0.24131119044E+03  0.00000000000E+00 0. -1.
          5    1    1    2  502    0 -0.97802214413E+02 -0.58237894215E+02 -0.23853901717E+02  0.11637614229E+03  0.41800000000E+01 0. -1.
         -5    1    1    2    0  502  0.88669049590E+01  0.38044371244E+02 -0.22250558828E+02  0.45150370487E+02  0.41800000000E+01 0. -1.
        -11    1    1    2    0    0 -0.43725389182E+01 -0.21464981561E+02 -0.38951353782E+02  0.44688617023E+02  0.00000000000E+00 0. -1.
         11    1    1    2    0    0  0.93307848372E+02  0.41658504531E+02 -0.68391403856E+02  0.12296003289E+03  0.00000000000E+00 0.  1.
</event>
<event>
 6    1  0.6597032E-006  0.9438835E+02  0.7561462E-02  0.1292560E+00
         -1   -1    0    0    0  501 -0.00000000000E+00  0.00000000000E+00  0.54132931871E+03  0.54132931871E+03  0.00000000000E+00 0.  1.
          1   -1    0    0  501    0  0.00000000000E+00 -0.00000000000E+00 -0.29655532917E+02  0.29655532917E+02  0.00000000000E+00 0. -1.
          5    1    1    2  502    0 -0.43967654065E+01  0.57434680420E+01 -0.10457186675E+02  0.13384473256E+02  0.41800000000E+01 0. -1.
         -5    1    1    2    0  502  0.68613539668E+02  0.28006253706E+01  0.31126944260E+03  0.31878174293E+03  0.41800000000E+01 0. -1.
        -11    1    1    2    0    0 -0.24032497686E+02  0.41188167343E+02  0.10135231869E+03  0.11201035031E+03  0.00000000000E+00 0.  1.
         11    1    1    2    0    0 -0.40184276576E+02 -0.49732260755E+02  0.10950921118E+03  0.12680828513E+03  0.00000000000E+00 0. -1.
</event>
<event>
 6    1  0.6597032E-006  0.1030283E+03  0.7561462E-02  0.1274054E+00
         -3   -1    0    0    0  501 -0.00000000000E+00  0.00000000000E+00  0.27581887190E+03  0.27581887190E+03  0.00000000000E+00 0.  1.
          3   -1    0    0  501    0  0.00000000000E+00 -0.00000000000E+00 -0.61767611243E+02  0.61767611243E+02  0.00000000000E+00 0. -1.
          5    1    1    2  502    0  0.28522488628E+02  0.10494622189E+02  0.32917425758E+01  0.30854131354E+02  0.41800000000E+01 0. -1.
         -5    1    1    2    0  502 -0.61905152730E+02 -0.46695524184E+02  0.18376731501E+03  0.19950092326E+03  0.41800000000E+01 0. -1.
        -11    1    1    2    0    0  0.18698293774E+02 -0.26998558412E+02  0.26735722843E+02  0.42347930555E+02  0.00000000000E+00 0.  1.
         11    1    1    2    0    0  0.14684370329E+02  0.63199460407E+02  0.25648022615E+00  0.64883497977E+02  0.00000000000E+00 0. -1.
</event>
<event>
 6    1  0.6597032E-006  0.1233343E+03  0.7561462E-02  0.1237696E+00
          1   -1    0    0  501    0  0.00000000000E+00  0.00000000000E+00  0.24247682792E+03  0.24247682792E+03  0.00000000000E+00 0. -1.
         -1   -1    0    0    0  501 -0.00000000000E+00 -0.00000000000E+00 -0.16963812816E+03  0.16963812816E+03  0.00000000000E+00 0.  1.
          5    1    1    2  502    0  0.44582106719E+02 -0.23674728037E+02 -0.10587132080E+03  0.11736381876E+03  0.41800000000E+01 0.  1.
         -5    1    1    2    0  502 -0.31342062331E+02 -0.63916247213E+02 -0.43687978194E+01  0.71443476423E+02  0.41800000000E+01 0.  1.
        -11    1    1    2    0    0  0.36943414501E+02  0.25581337774E+02  0.43502588405E+02  0.62543552148E+02  0.00000000000E+00 0.  1.
         11    1    1    2    0    0 -0.50183458889E+02  0.62009637476E+02  0.13957622997E+03  0.16076410874E+03  0.00000000000E+00 0. -1.
</event>
<event>
 6    1  0.6597032E-006  0.7675248E+02  0.7561462E-02  0.1338528E+00
          1   -1    0    0  501    0  0.00000000000E+00  0.00000000000E+00  0.30713309059E+03  0.30713309059E+03  0.00000000000E+00 0. -1.
         -1   -1    0    0    0  501 -0.00000000000E+00 -0.00000000000E+00 -0.38958877442E+02  0.38958877442E+02  0.00000000000E+00 0.  1.
          5    1    1    2  502    0 -0.19046627381E+02  0.13251485761E+02  0.13529133619E+03  0.13733023680E+03  0.41800000000E+01 0. -1.
         -5    1    1    2    0  502  0.55271716368E+02  0.43976805682E+01  0.14482137290E+02  0.57458741068E+02  0.41800000000E+01 0.  1.
        -11    1    1    2    0    0  0.14681796229E+02  0.86349743852E+01 -0.27830130500E+01  0.17258710403E+02  0.00000000000E+00 0. -1.
         11    1    1    2    0    0 -0.50906885216E+02 -0.26284140715E+02  0.12118375271E+03  0.13404427976E+03  0.00000000000E+00 0.  1.
</event>
<event>
 6    1  0.6597032E-006  0.1211568E+03  0.7561462E-02  0.1241201E+00
          3   -1    0    0  501    0  0.00000000000E+00  0.00000000000E+00  0.32091702028E+03  0.32091702028E+03  0.00000000000E+00 0. -1.
         -3   -1    0    0    0  501 -0.00000000000E+00 -0.00000000000E+00 -0.75399902912E+02  0.75399902912E+02  0.00000000000E+00 0.  1.
          5    1    1    2  502    0 -0.87018387860E+02  0.44762886889E+02 -0.13028559746E+02  0.98808560547E+02  0.41800000000E+01 0.  1.
         -5    1    1    2    0  502  0.22868405719E+02 -0.19314808499E+02  0.34155316680E+02  0.45607936426E+02  0.41800000000E+01 0.  1.
        -11    1    1    2    0    0 -0.17208967979E+02 -0.27862856154E+02  0.56080472227E+02  0.64942333629E+02  0.00000000000E+00 0.  1.
         11    1    1    2    0    0  0.81358950119E+02  0.24147777643E+01  0.16830988820E+03  0.18695809259E+03  0.00000000000E+00 0. -1.
</event>
<event>
 6    1  0.6597032E-006  0.1310442E+03  0.7561462E-02  0.1225914E+00
         -1   -1    0    0    0  501 -0.00000000000E+00  0.00000000000E+00  0.50422619293E+03  0.50422619293E+03  0.00000000000E+00 0.  1.
          1   -1    0    0  501    0  0.00000000000E+00 -0.00000000000E+00 -0.37526244341E+02  0.37526244341E+02  0.00000000000E+00 0. -1.
          5    1    1    2  502    0 -0.54244603046E+00  0.51177643790E+02  0.13270140181E+03  0.14229047724E+03  0.41800000000E+01 0.  1.
         -5    1    1    2    0  502  0.76414812170E+02 -0.55585597949E+02  0.20525723433E+03  0.22600218331E+03  0.41800000000E+01 0.  1.
        -11    1    1    2    0    0 -0.50505806373E+02 -0.40390510607E+02  0.68134523212E+02  0.93939039157E+02  0.00000000000E+00 0. -1.
         11    1    1    2    0    0 -0.25366559766E+02  0.44798464767E+02  0.60606789245E+02  0.79520737563E+02  0.00000000000E+00 0.  1.
</event>
<event>
 6    1  0.6597032E-006  0.3115034E+03  0.7561462E-02  0.1079628E+00
          2   -1    0    0  501    0  0.00000000000E+00  0.00000000000E+00  0.92160852176E+03  0.92160852176E+03  0.00000000000E+00 0. -1.
         -2   -1    0    0    0  501 -0.00000000000E+00 -0.00000000000E+00 -0.11977047661E+03  0.11977047661E+03  0.00000000000E+00 0.  1.
          5    1    1    2  502    0 -0.25196843412E+01  0.10991939723E+02  0.37917012233E+02  0.39778684804E+02  0.41800000000E+01 0. -1.
         -5    1    1    2    0  502  0.30105949987E+03 -0.52448350177E+02  0.23161199608E+03  0.38347000017E+03  0.41800000000E+01 0. -1.
        -11    1    1    2    0    0 -0.20558615625E+03  0.51282829340E+02  0.29612773639E+03  0.36412529778E+03  0.00000000000E+00 0.  1.
         11    1    1    2    0    0 -0.92953659282E+02 -0.98264188857E+01  0.23618130044E+03  0.25400501562E+03  0.00000000000E+00 0. -1.
</event>
<event>
 6    1  0.6597032E-006  0.7805487E+02  0.7561462E-02  0.1334664E+00
         -2   -1    0    0    0  501 -0.00000000000E+00  0.00000000000E+00  0.76086410655E+02  0.76086410655E+02  0.00000000000E+00 0.  1.
          2   -1    0    0  501    0  0.00000000000E+00 -0.00000000000E+00 -0.29173153525E+03  0.29173153525E+03  0.00000000000E+00 0. -1.
          5    1    1    2  502    0  0.41223609433E+02  0.12465055046E+02  0.56935779556E+02  0.71511670136E+02  0.41800000000E+01 0.  1.
         -5    1    1    2    0  502 -0.13532460834E+02 -0.18361195527E+02 -0.51891798949E+02  0.56837418973E+02  0.41800000000E+01 0.  1.
        -11    1    1    2    0    0  0.21029630867E+02  0.28925335857E+02 -0.12064796865E+03  0.12583661140E+03  0.00000000000E+00 0. -1.
         11    1    1    2    0    0 -0.48720779465E+02 -0.23029195376E+02 -0.10004113655E+03  0.11363224540E+03  0.00000000000E+00 0.  1.
</event>
<event>
 6    1  0.6597032E-006  0.1167402E+03  0.7561462E-02  0.1248574E+00
          1   -1    0    0  501    0  0.00000000000E+00  0.00000000000E+00  0.48507552412E+02  0.48507552412E+02  0.00000000000E+00 0. -1.
         -1   -1    0    0    0  501 -0.00000000000E+00 -0.00000000000E+00 -0.54761779731E+03  0.54761779731E+03  0.00000000000E+00 0.  1.
          5    1    1    2  502    0  0.20116036973E+02  0.39874350925E+02 -0.27870759598E+03  0.28229419984E+03  0.41800000000E+01 0. -1.
         -5    1    1    2    0  502  0.49131011706E+02 -0.65741796674E+02 -0.16321471532E+03  0.18273575413E+03  0.41800000000E+01 0.  1.
        -11    1    1    2    0    0  0.11893396378E+02  0.22244205214E+02 -0.41210799326E+02  0.48317569517E+02  0.00000000000E+00 0.  1.
         11    1    1    2    0    0 -0.81140445057E+02  0.36232405347E+01 -0.15977134267E+02  0.82777826230E+02  0.00000000000E+00 0. -1.
</event>
<event>
 6    1  0.6597032E-006  0.1096616E+03  0.7561462E-02  0.1261198E+00
         -1   -1    0    0    0  501 -0.00000000000E+00  0.00000000000E+00  0.87297788159E+02  0.87297788159E+02  0.00000000000E+00 0.  1.
          1   -1    0    0  501    0  0.00000000000E+00 -0.00000000000E+00 -0.33230297568E+03  0.33230297568E+03  0.00000000000E+00 0. -1.
          5    1    1    2  502    0 -0.29532498228E+02 -0.46282781630E+02 -0.76745496853E+02  0.94454264140E+02  0.41800000000E+01 0.  1.
         -5    1    1    2    0  502 -0.53964189435E+02 -0.16478857871E+02  0.44116638591E+02  0.71745638883E+02  0.41800000000E+01 0.  1.
        -11    1    1    2    0    0  0.44217791817E+02  0.49148915356E+02 -0.19905643907E+03  0.20974817027E+03  0.00000000000E+00 0. -1.
         11    1    1    2    0    0  0.39278895847E+02  0.13612724145E+02 -0.13319890186E+02  0.43652690549E+02  0.00000000000E+00 0.  1.
</event>
<event>
 6    1  0.6597032E-006  0.1183601E+03  0.7561462E-02  0.1245827E+00
          2   -1    0    0  501    0  0.00000000000E+00  0.00000000000E+00  0.67502044387E+03  0.67502044387E+03  0.00000000000E+00 0. -1.
         -2   -1    0    0    0  501 -0.00000000000E+00 -0.00000000000E+00 -0.35966416154E+02  0.35966416154E+02  0.00000000000E+00 0.  1.
          5    1    1    2  502    0 -0.50168239545E+02 -0.32044022076E+02  0.24895977475E+03  0.25601194006E+03  0.41800000000E+01 0. -1.
         -5    1    1    2    0  502 -0.36228010044E+02 -0.27874962597E+02  0.52689156099E+01  0.46202988250E+02  0.41800000000E+01 0. -1.
        -11    1    1    2    0    0  0.18148874995E+02 -0.19359073406E+02  0.14066834984E+03  0.14314936267E+03  0.00000000000E+00 0.  1.
         11    1    1    2    0    0  0.68247374594E+02  0.79278058078E+02  0.24415698751E+03  0.26562256904E+03  0.00000000000E+00 0. -1.
</event>
<event>
 6    1  0.6597032E-006  0.1183524E+03  0.7561462E-02  0.1245840E+00
         -1   -1    0    0    0  501 -0.00000000000E+00  0.00000000000E+00  0.82715686706E+02  0.82715686706E+02  0.00000000000E+00 0.  1.
          1   -1    0    0  501    0  0.00000000000E+00 -0.00000000000E+00 -0.22349702556E+03  0.22349702556E+03  0.00000000000E+00 0. -1.
          5    1    1    2  502    0 -0.14159680229E+02 -0.26770462822E+02  0.11966722365E+02  0.32830307157E+02  0.41800000000E+01 0.  1.
         -5    1    1    2    0  502 -0.31374652967E+01  0.10559330292E+03 -0.70787571055E+02  0.12723262917E+03  0.41800000000E+01 0.  1.
        -11    1    1    2    0    0  0.32997254889E+02 -0.17986634775E+02  0.59974077870E+01  0.38056625716E+02  0.00000000000E+00 0.  1.
         11    1    1    2    0    0 -0.15700109363E+02 -0.60836205325E+02 -0.87957897949E+02  0.10809315022E+03  0.00000000000E+00 0. -1.
</event>
<event>
 6    1  0.7259708E-006  0.1636419E+03  0.7561462E-02  0.1184645E+00
          2   -1    0    0  501    0  0.00000000000E+00  0.00000000000E+00  0.54488900572E+03  0.54488900572E+03  0.00000000000E+00 0. -1.
         -2   -1    0    0    0  501 -0.00000000000E+00 -0.00000000000E+00 -0.56411519564E+02  0.56411519564E+02  0.00000000000E+00 0.  1.
          5    1    1    2  502    0 -0.38507932946E+02 -0.17927892733E+02  0.14584315917E+02  0.45104821344E+02  0.41800000000E+01 0.  1.
         -5    1    1    2    0  502  0.40621307323E+02 -0.11884473600E+03  0.22620856942E+03  0.25877007393E+03  0.41800000000E+01 0.  1.
        -11    1    1    2    0    0  0.33209400186E+02  0.24582704447E+02  0.10290670133E+03  0.11089167145E+03  0.00000000000E+00 0. -1.
         11    1    1    2    0    0 -0.35322774563E+02  0.11218992429E+03  0.14477789949E+03  0.18653395856E+03  0.00000000000E+00 0.  1.
</event>
<event>
 6    1  0.6597032E-006  0.1251679E+03  0.7561462E-02  0.1234807E+00
          2   -1    0    0  501    0  0.00000000000E+00  0.00000000000E+00  0.80258731068E+02  0.80258731068E+02  0.00000000000E+00 0. -1.
         -2   -1    0    0    0  501 -0.00000000000E+00 -0.00000000000E+00 -0.26947999172E+03  0.26947999172E+03  0.00000000000E+00 0.  1.
          5    1    1    2  502    0  0.83338671589E+01 -0.37027303673E+02 -0.50531440077E+02  0.63335403965E+02  0.41800000000E+01 0. -1.
         -5    1    1    2    0  502  0.52136052118E+02  0.10100431501E+03 -0.10477176792E+03  0.15464357514E+03  0.41800000000E+01 0. -1.
        -11    1    1    2    0    0  0.22257866731E+01 -0.23890664325E+02 -0.50150072864E+02  0.55594494120E+02  0.00000000000E+00 0.  1.
         11    1    1    2    0    0 -0.62695705950E+02 -0.40086347009E+02  0.16232020203E+02  0.76165249562E+02  0.00000000000E+00 0. -1.
</event>
<event>
 6    1  0.6597032E-006  0.1133184E+03  0.7561462E-02  0.1254545E+00
          2   -1    0    0  501    0  0.00000000000E+00  0.00000000000E+00  0.51268152808E+03  0.51268152808E+03  0.00000000000E+00 0. -1.
         -2   -1    0    0    0  501 -0.00000000000E+00 -0.00000000000E+00 -0.36728285137E+02  0.36728285137E+02  0.00000000000E+00 0.  1.
          5    1    1    2  502    0  0.42891810716E+02 -0.46290225776E+02  0.42009292063E+02  0.75925920795E+02  0.41800000000E+01 0.  1.
         -5    1    1    2    0  502 -0.67199032666E+02  0.80212466268E+01  0.76847806225E+02  0.10248467256E+03  0.41800000000E+01 0.  1.
        -11    1    1    2    0    0  0.55437321726E+02  0.31382609940E+02  0.17727564214E+03  0.18837414404E+03  0.00000000000E+00 0. -1.
         11    1    1    2    0    0 -0.31130099776E+02  0.68863692095E+01  0.17982050251E+03  0.18262507581E+03  0.00000000000E+00 0.  1.
</event>
<event>
 6    1  0.6597032E-006  0.1628274E+03  0.7561462E-02  0.1185541E+00
          4   -1    0    0  501    0  0.00000000000E+00  0.00000000000E+00  0.52307721728E+03  0.52307721728E+03  0.00000000000E+00 0.  1.
         -4   -1    0    0    0  501 -0.00000000000E+00 -0.00000000000E+00 -0.63979911121E+02  0.63979911121E+02  0.00000000000E+00 0. -1.
          5    1    1    2  502    0 -0.17782194099E+02  0.18951020084E+02  0.14208391909E+03  0.14450141886E+03  0.41800000000E+01 0. -1.
         -5    1    1    2    0  502 -0.12711603415E+03 -0.39489449025E+02  0.11024414030E+03  0.17288477547E+03  0.41800000000E+01 0. -1.
        -11    1    1    2    0    0  0.55034885170E+01  0.26079886042E+02  0.10004763042E+02  0.28470056644E+02  0.00000000000E+00 0.  1.
         11    1    1    2    0    0  0.13939473973E+03 -0.55414571013E+01  0.19676448373E+03  0.24120087742E+03  0.00000000000E+00 0. -1.
</event>
<event>
 6    1  0.6597032E-006  0.9331866E+02  0.7561462E-02  0.1295008E+00
         -1   -1    0    0    0  501 -0.00000000000E+00  0.00000000000E+00  0.34156068754E+02  0.34156068754E+02  0.00000000000E+00 0.  1.
          1   -1    0    0  501    0  0.00000000000E+00 -0.00000000000E+00 -0.43878065365E+03  0.43878065365E+03  0.00000000000E+00 0. -1.
          5    1    1    2  502    0 -0.35684547967E+02  0.19840512751E+02 -0.21811870765E+03  0.22194656100E+03  0.41800000000E+01 0. -1.
         -5    1    1    2    0  502  0.29991486682E+02  0.40921090559E+02 -0.21706157187E+02  0.55341255730E+02  0.41800000000E+01 0. -1.
        -11    1    1    2    0    0 -0.30411689172E+02 -0.47140807608E+02 -0.52231436011E+02  0.76650176047E+02  0.00000000000E+00 0.  1.
         11    1    1    2    0    0  0.36104750457E+02 -0.13620795702E+02 -0.11256828405E+03  0.11899872963E+03  0.00000000000E+00 0. -1.
</event>
<event>
 6    1  0.6597032E-006  0.1461767E+03  0.7561462E-02  0.1205251E+00
         -2   -1    0    0    0  501 -0.00000000000E+00  0.00000000000E+00  0.24317912239E+02  0.24317912239E+02  0.00000000000E+00 0.  1.
          2   -1    0    0  501    0  0.00000000000E+00 -0.00000000000E+00 -0.97489913863E+03  0.97489913863E+03  0.00000000000E+00 0. -1.
          5    1    1    2  502    0  0.27228738947E+02  0.11520167959E+03 -0.35257446746E+03  0.37193959014E+03  0.41800000000E+01 0.  1.
         -5    1    1    2    0  502 -0.36445438426E+02 -0.11130456878E+02 -0.55329244140E+02  0.67312366690E+02  0.41800000000E+01 0.  1.
        -11    1    1    2    0    0 -0.37371296866E+02 -0.29375102465E+02 -0.14250729980E+03  0.15022596636E+03  0.00000000000E+00 0. -1.
         11    1    1    2    0    0  0.46587996344E+02 -0.74696120249E+02 -0.40017021500E+03  0.40973912768E+03  0.00000000000E+00 0.  1.
</event>
<event>
 6    1  0.6597032E-006  0.1503556E+03  0.7561462E-02  0.1200037E+00
         -1   -1    0    0    0  501 -0.00000000000E+00  0.00000000000E+00  0.23541595253E+02  0.23541595253E+02  0.00000000000E+00 0.  1.
          1   -1    0    0  501    0  0.00000000000E+00 -0.00000000000E+00 -0.12006011535E+04  0.12006011535E+04  0.00000000000E+00 0. -1.
          5    1    1    2  502    0  0.64643307440E+02 -0.53304885434E+02 -0.52567505613E+03  0.53232687800E+03  0.41800000000E+01 0. -1.
         -5    1    1    2    0  502  0.59760774066E+02  0.26301088000E+02 -0.11057712109E+03  0.12848295395E+03  0.41800000000E+01 0. -1.
        -11    1    1    2    0    0 -0.89572157610E+02 -0.21080856067E+02 -0.24695420951E+03  0.26354118370E+03  0.00000000000E+00 0.  1.
         11    1    1    2    0    0 -0.34831923895E+02  0.48084653501E+02 -0.29385317153E+03  0.29979173311E+03  0.00000000000E+00 0. -1.
</event>
<event>
 6    1  0.6597032E-006  0.1212980E+03  0.7561462E-02  0.1240971E+00
          1   -1    0    0  501    0  0.00000000000E+00  0.00000000000E+00  0.35011795964E+03  0.35011795964E+03  0.00000000000E+00 0. -1.
         -1   -1    0    0    0  501 -0.00000000000E+00 -0.00000000000E+00 -0.60272556044E+02  0.60272556044E+02  0.00000000000E+00 0.  1.
          5    1    1    2  502    0  0.86162828554E+02 -0.30137754528E+02  0.44360919885E+02  0.10157598577E+03  0.41800000000E+01 0.  1.
         -5    1    1    2    0  502 -0.14288473476E+02 -0.30560142642E+02  0.12281735036E+03  0.12743491179E+03  0.41800000000E+01 0.  1.
        -11    1    1    2    0    0 -0.82966085490E+02  0.64930608854E+02  0.13007326754E+03  0.16738700737E+03  0.00000000000E+00 0. -1.
         11    1    1    2    0    0  0.11091730412E+02 -0.42327116841E+01 -0.74061341989E+01  0.13992610747E+02  0.00000000000E+00 0.  1.
</event>
<event>
 6    1  0.6597032E-006  0.1040658E+03  0.7561462E-02  0.1271971E+00
         -1   -1    0    0    0  501 -0.00000000000E+00  0.00000000000E+00  0.15281765671E+03  0.15281765671E+03  0.00000000000E+00 0.  1.
          1   -1    0    0  501    0  0.00000000000E+00 -0.00000000000E+00 -0.80475404394E+02  0.80475404394E+02  0.00000000000E+00 0. -1.
          5    1    1    2  502    0 -0.57918002723E+02 -0.19698725843E+02  0.58240137242E+02  0.84569029942E+02  0.41800000000E+01 0. -1.
         -5    1    1    2    0  502  0.40474205238E+02  0.36051934762E+02 -0.25622729956E+01  0.54423716638E+02  0.41800000000E+01 0. -1.
        -11    1    1    2    0    0 -0.23289380081E+02 -0.39311063276E+02  0.12424548417E+02  0.47351075213E+02  0.00000000000E+00 0.  1.
         11    1    1    2    0    0  0.40733177566E+02  0.22957854356E+02  0.42398396481E+01  0.46949239307E+02  0.00000000000E+00 0. -1.
</event>
<event>
 6    1  0.6597032E-006  0.1073236E+03  0.7561462E-02  0.1265608E+00
          1   -1    0    0  501    0  0.00000000000E+00  0.00000000000E+00  0.16303128013E+03  0.16303128013E+03  0.00000000000E+00 0. -1.
         -1   -1    0    0    0  501 -0.00000000000E+00 -0.00000000000E+00 -0.83826327581E+02  0.83826327581E+02  0.00000000000E+00 0.  1.
          5    1    1    2  502    0 -0.60047265519E+02 -0.57336797053E+02  0.34631679306E+02  0.90055582859E+02  0.41800000000E+01 0. -1.
         -5    1    1    2    0  502  0.28861553388E+02  0.34949154989E+02  0.88710059963E+00  0.45526827760E+02  0.41800000000E+01 0. -1.
        -11    1    1    2    0    0  0.25253779249E+02 -0.26585300130E+02 -0.10357304946E+02  0.38102563104E+02  0.00000000000E+00 0.  1.
         11    1    1    2    0    0  0.59319328827E+01  0.48972942194E+02  0.54043477591E+02  0.73172633990E+02  0.00000000000E+00 0. -1.
</event>
<event>
 6    1  0.6597032E-006  0.1678222E+03  0.7561462E-02  0.1180138E+00
         -1   -1    0    0    0  501 -0.00000000000E+00  0.00000000000E+00  0.37206956401E+02  0.37206956401E+02  0.00000000000E+00 0.  1.
          1   -1    0    0  501    0  0.00000000000E+00 -0.00000000000E+00 -0.94456828925E+03  0.94456828925E+03  0.00000000000E+00 0. -1.
          5    1    1    2  502    0 -0.16068389398E+03 -0.14185554425E+02 -0.35753441195E+03  0.39226122912E+03  0.41800000000E+01 0.  1.
         -5    1    1    2    0  502  0.16055413493E+02  0.52899509742E+01 -0.56917293108E+01  0.18320154647E+02  0.41800000000E+01 0.  1.
        -11    1    1    2    0    0  0.17443074363E+02  0.23040157594E+02 -0.31160484682E+02  0.42498064789E+02  0.00000000000E+00 0.  1.
         11    1    1    2    0    0  0.12718540613E+03 -0.14144554143E+02 -0.51297470690E+03  0.52869579710E+03  0.00000000000E+00 0. -1.
</event>
<event>
 6    1  0.6597032E-006  0.1125569E+03  0.7561462E-02  0.1255907E+00
         -2   -1    0    0    0  501 -0.00000000000E+00  0.00000000000E+00  0.92500835663E+02  0.92500835663E+02  0.00000000000E+00 0.  1.
          2   -1    0    0  501    0  0.00000000000E+00 -0.00000000000E+00 -0.29156772096E+03  0.29156772096E+03  0.00000000000E+00 0. -1.
          5    1    1    2  502    0 -0.56344050648E+02  0.13661448081E+02  0.36560846023E+02  0.68669171168E+02  0.41800000000E+01 0. -1.
         -5    1    1    2    0  502  0.73563244181E+02 -0.40315583681E+02 -0.34212705697E+02  0.90691117609E+02  0.41800000000E+01 0.  1.
        -11    1    1    2    0    0 -0.38022755798E+02 -0.11341665432E+02 -0.35531725074E+02  0.53262245728E+02  0.00000000000E+00 0. -1.
         11    1    1    2    0    0  0.20803562264E+02  0.37995801033E+02 -0.16588330055E+03  0.17144602212E+03  0.00000000000E+00 0.  1.
</event>
<event>
 6    1  0.6597032E-006  0.1509832E+03  0.7561462E-02  0.1199270E+00
          1   -1    0    0  501    0  0.00000000000E+00  0.00000000000E+00  0.38145820055E+03  0.38145820055E+03  0.00000000000E+00 0. -1.
         -1   -1    0    0    0  501 -0.00000000000E+00 -0.00000000000E+00 -0.86686884609E+02  0.86686884609E+02  0.00000000000E+00 0.  1.
          5    1    1    2  502    0 -0.16444768077E+02 -0.38808885984E+01  0.73658764287E+02  0.75687367834E+02  0.41800000000E+01 0. -1.
         -5    1    1    2    0  502  0.20537776696E+02 -0.13799368754E+03  0.40734217578E+02  0.14539878594E+03  0.41800000000E+01 0. -1.
        -11    1    1    2    0    0  0.10578201007E+02  0.10107563891E+03  0.57523719532E+02  0.11677825750E+03  0.00000000000E+00 0.  1.
         11    1    1    2    0    0 -0.14671209625E+02  0.40798937230E+02  0.12285461455E+03  0.13028067388E+03  0.00000000000E+00 0. -1.
</event>
<event>
 6    1  0.6597032E-006  0.2266126E+03  0.7561462E-02  0.1129047E+00
         -1   -1    0    0    0  501 -0.00000000000E+00  0.00000000000E+00  0.82965803173E+03  0.82965803173E+03  0.00000000000E+00 0.  1.
          1   -1    0    0  501    0  0.00000000000E+00 -0.00000000000E+00 -0.99116676043E+02  0.99116676043E+02  0.00000000000E+00 0. -1.
          5    1    1    2  502    0  0.21513380185E+03  0.49861596028E+02  0.58186855829E+03  0.62238028808E+03  0.41800000000E+01 0. -1.
         -5    1    1    2    0  502 -0.13369293535E+02 -0.12743325260E+02  0.63658395928E+02  0.66415315406E+02  0.41800000000E+01 0. -1.
        -11    1    1    2    0    0 -0.43061635720E+02 -0.33686332252E+02 -0.91179743656E+01  0.55427528432E+02  0.00000000000E+00 0. -1.
         11    1    1    2    0    0 -0.15870287259E+03 -0.34319385163E+01  0.94132375827E+02  0.18455157585E+03  0.00000000000E+00 0.  1.
</event>
<event>
 6    1  0.6597032E-006  0.1206948E+03  0.7561462E-02  0.1241955E+00
         -2   -1    0    0    0  501 -0.00000000000E+00  0.00000000000E+00  0.23721551034E+02  0.23721551034E+02  0.00000000000E+00 0.  1.
          2   -1    0    0  501    0  0.00000000000E+00 -0.00000000000E+00 -0.83461500716E+03  0.83461500716E+03  0.00000000000E+00 0. -1.
          5    1    1    2  502    0  0.37155157682E+02  0.36839006293E+02 -0.83093823480E+02  0.98283640692E+02  0.41800000000E+01 0.  1.
         -5    1    1    2    0  502 -0.17581510613E+02 -0.78815079869E+02 -0.13402335851E+03  0.15652686465E+03  0.41800000000E+01 0.  1.
        -11    1    1    2    0    0 -0.56404211808E+02  0.62848097503E+01 -0.31429359318E+03  0.31937657500E+03  0.00000000000E+00 0. -1.
         11    1    1    2    0    0  0.36830564740E+02  0.35691263826E+02 -0.27948268095E+03  0.28414947785E+03  0.00000000000E+00 0.  1.
</event>
<event>
 6    1  0.6597032E-006  0.2387023E+03  0.7561462E-02  0.1120660E+00
          1   -1    0    0  501    0  0.00000000000E+00  0.00000000000E+00  0.22454724451E+03  0.22454724451E+03  0.00000000000E+00 0. -1.
         -1   -1    0    0    0  501 -0.00000000000E+00 -0.00000000000E+00 -0.35063933243E+03  0.35063933243E+03  0.00000000000E+00 0.  1.
          5    1    1    2  502    0  0.93878149762E+01  0.63205711314E+02 -0.12218229855E+02  0.65190877840E+02  0.41800000000E+01 0.  1.
         -5    1    1    2    0  502 -0.13034697422E+03  0.12637416928E+03 -0.18296881181E+03  0.25779026910E+03  0.41800000000E+01 0.  1.
        -11    1    1    2    0    0  0.11931072917E+03 -0.14775287947E+03  0.84152600537E+02  0.20772006081E+03  0.00000000000E+00 0. -1.
         11    1    1    2    0    0  0.16484300789E+01 -0.41827001122E+02 -0.15057646794E+02  0.44485369185E+02  0.00000000000E+00 0.  1.
</event>
<event>
 6    1  0.6597032E-006  0.1117885E+03  0.7561462E-02  0.1257293E+00
          3   -1    0    0  501    0  0.00000000000E+00  0.00000000000E+00  0.16086486843E+03  0.16086486843E+03  0.00000000000E+00 0. -1.
         -3   -1    0    0    0  501 -0.00000000000E+00 -0.00000000000E+00 -0.10925132273E+03  0.10925132273E+03  0.00000000000E+00 0.  1.
          5    1    1    2  502    0  0.61554737207E+02 -0.52392346108E+02 -0.41778717709E+02  0.91087195899E+02  0.41800000000E+01 0. -1.
         -5    1    1    2    0  502 -0.25933071099E+02  0.36927595263E+02  0.32682854115E+01  0.45434849599E+02  0.41800000000E+01 0. -1.
        -11    1    1    2    0    0 -0.24895846484E+02  0.52852867293E+02  0.43284464915E+02  0.72710203247E+02  0.00000000000E+00 0.  1.
         11    1    1    2    0    0 -0.10725819624E+02 -0.37388116448E+02  0.46839513081E+02  0.60883942414E+02  0.00000000000E+00 0. -1.
</event>
<event>
 6    1  0.6597032E-006  0.1305748E+03  0.7561462E-02  0.1226605E+00
          2   -1    0    0  501    0  0.00000000000E+00  0.00000000000E+00  0.18327811958E+02  0.18327811958E+02  0.00000000000E+00 0. -1.
         -2   -1    0    0    0  501 -0.00000000000E+00 -0.00000000000E+00 -0.11493165077E+04  0.11493165077E+04  0.00000000000E+00 0.  1.
          5    1    1    2  502    0 -0.53479519467E+02  0.20562237307E+02 -0.42456458266E+03  0.42843368432E+03  0.41800000000E+01 0. -1.
         -5    1    1    2    0  502  0.10934798891E+02 -0.85862824386E+02 -0.41196135917E+03  0.42097699259E+03  0.41800000000E+01 0. -1.
        -11    1    1    2    0    0  0.32340991685E+02 -0.15315855389E+02 -0.12934520696E+03  0.13420394083E+03  0.00000000000E+00 0.  1.
         11    1    1    2    0    0  0.10203728891E+02  0.80616442468E+02 -0.16511754690E+03  0.18402970188E+03  0.00000000000E+00 0. -1.
</event>
<event>
 6    1  0.6597032E-006  0.1265468E+03  0.7561462E-02  0.1232672E+00
          2   -1    0    0  501    0  0.00000000000E+00  0.00000000000E+00  0.10689981606E+04  0.10689981606E+04  0.00000000000E+00 0.  1.
         -2   -1    0    0    0  501 -0.00000000000E+00 -0.00000000000E+00 -0.15381409766E+02  0.15381409766E+02  0.00000000000E+00 0. -1.
          5    1    1    2  502    0 -0.29980088883E+02 -0.51272457494E+02  0.22006611727E+03  0.22797859329E+03  0.41800000000E+01 0. -1.
         -5    1    1    2    0  502 -0.32596151919E+02  0.75144286855E+02  0.34995441066E+03  0.35943669110E+03  0.41800000000E+01 0. -1.
        -11    1    1    2    0    0  0.49709277465E+02  0.28709007559E+02  0.30459386256E+03  0.30995586861E+03  0.00000000000E+00 0. -1.
         11    1    1    2    0    0  0.12866963337E+02 -0.52580836920E+02  0.17900236038E+03  0.18700841740E+03  0.00000000000E+00 0.  1.
</event>
<event>
 6    1  0.6597032E-006  0.1578078E+03  0.7561462E-02  0.1191194E+00
          2   -1    0    0  501    0  0.00000000000E+00  0.00000000000E+00  0.20120648292E+03  0.20120648292E+03  0.00000000000E+00 0. -1.
         -2   -1    0    0    0  501 -0.00000000000E+00 -0.00000000000E+00 -0.27480407649E+03  0.27480407649E+03  0.00000000000E+00 0.  1.
          5    1    1    2  502    0 -0.30054649061E+02  0.14772947393E+01 -0.93156277193E+02  0.97984839186E+02  0.41800000000E+01 0.  1.
         -5    1    1    2    0  502  0.35094898444E+02 -0.12777978897E+03 -0.11223259591E+03  0.17370363943E+03  0.41800000000E+01 0.  1.
        -11    1    1    2    0    0 -0.33481214198E+02  0.13124879086E+02  0.14227557505E+02  0.38673990585E+02  0.00000000000E+00 0. -1.
         11    1    1    2    0    0  0.28440964814E+02  0.11317761515E+03  0.11756372203E+03  0.16564809020E+03  0.00000000000E+00 0.  1.
</event>
<event>
 6    1  0.6597032E-006  0.1547980E+03  0.7561462E-02  0.1194698E+00
         -1   -1    0    0    0  501 -0.00000000000E+00  0.00000000000E+00  0.55079976736E+02  0.55079976736E+02  0.00000000000E+00 0.  1.
          1   -1    0    0  501    0  0.00000000000E+00 -0.00000000000E+00 -0.49499265722E+03  0.49499265722E+03  0.00000000000E+00 0. -1.
          5    1    1    2  502    0  0.36744049906E+02 -0.59697252192E+02 -0.15811888045E+03  0.17301138656E+03  0.41800000000E+01 0.  1.
         -5    1    1    2    0  502  0.85694232777E+02  0.38781769417E+02 -0.81903163416E+02  0.12479233850E+03  0.41800000000E+01 0.  1.
        -11    1    1    2    0    0 -0.20244356840E+02  0.36601944478E+02 -0.10048322619E+03  0.10884123790E+03  0.00000000000E+00 0. -1.
         11    1    1    2    0    0 -0.10219392584E+03 -0.15686461702E+02 -0.99407410431E+02  0.14342767100E+03  0.00000000000E+00 0.  1.
</event>
<event>
 6    1  0.1056045E-005  0.1930970E+03  0.7561462E-02  0.1155697E+00
         -2   -1    0    0    0  501 -0.00000000000E+00  0.00000000000E+00  0.28294771828E+02  0.28294771828E+02  0.00000000000E+00 0.  1.
          2   -1    0    0  501    0  0.00000000000E+00 -0.00000000000E+00 -0.13700661474E+04  0.13700661474E+04  0.00000000000E+00 0. -1.
          5    1    1    2  502    0  0.32529034171E+02  0.26133922999E+02 -0.10262046717E+03  0.11085825489E+03  0.41800000000E+01 0. -1.
         -5    1    1    2    0  502  0.81210857597E+02 -0.13844437974E+03 -0.47067213780E+03  0.49730451775E+03  0.41800000000E+01 0. -1.
        -11    1    1    2    0    0 -0.43781592219E+02 -0.80193590691E+01 -0.16766792675E+03  0.17347527662E+03  0.00000000000E+00 0.  1.
         11    1    1    2    0    0 -0.69958299550E+02  0.12032981582E+03 -0.60081084383E+03  0.61672286994E+03  0.00000000000E+00 0. -1.
</event>
<event>
 6    1  0.6597032E-006  0.9802588E+02  0.7561462E-02  0.1284503E+00
          2   -1    0    0  501    0  0.00000000000E+00  0.00000000000E+00  0.63895913218E+03  0.63895913218E+03  0.00000000000E+00 0. -1.
         -2   -1    0    0    0  501 -0.00000000000E+00 -0.00000000000E+00 -0.27987733140E+02  0.27987733140E+02  0.00000000000E+00 0.  1.
          5    1    1    2  502    0 -0.91128187938E+02 -0.10008553914E+01  0.48743070823E+03  0.49589466228E+03  0.41800000000E+01 0. -1.
         -5    1    1    2    0  502  0.76542435616E+02 -0.15117171292E+02  0.49860508924E+02  0.92686655286E+02  0.41800000000E+01 0.  1.
        -11    1    1    2    0    0  0.14489479453E+02  0.46447753633E+01  0.41632387480E+02  0.44325778507E+02  0.00000000000E+00 0.  1.
         11    1    1    2    0    0  0.96272867934E-01  0.11473251321E+02  0.32047794399E+02  0.34039769244E+02  0.00000000000E+00 0. -1.
</event>
<event>
 6    1  0.6597032E-006  0.6359953E+02  0.7561462E-02  0.1383318E+00
          1   -1    0    0  501    0  0.00000000000E+00  0.00000000000E+00  0.72038907182E+02  0.72038907182E+02  0.00000000000E+00 0. -1.
         -1   -1    0    0    0  501 -0.00000000000E+00 -0.00000000000E+00 -0.22263592630E+03  0.22263592630E+03  0.00000000000E+00 0.  1.
          5    1    1    2  502    0 -0.54643286946E+02 -0.11236455407E+02 -0.15735271442E+03  0.16700148464E+03  0.41800000000E+01 0.  1.
         -5    1    1    2    0  502  0.30401788974E+02 -0.46708668216E+01  0.58604317627E+01  0.31589600031E+02  0.41800000000E+01 0.  1.
        -11    1    1    2    0    0  0.24545438097E+02  0.24208087683E+00  0.43909426393E+02  0.50304819458E+02  0.00000000000E+00 0. -1.
         11    1    1    2    0    0 -0.30394012516E+00  0.15665241352E+02 -0.43014162855E+02  0.45778929349E+02  0.00000000000E+00 0.  1.
</event>
<event>
 6    1  0.6597032E-006  0.1472949E+03  0.7561462E-02  0.1203837E+00
          1   -1    0    0  501    0  0.00000000000E+00  0.00000000000E+00  0.31661894482E+03  0.31661894482E+03  0.00000000000E+00 0. -1.
         -1   -1    0    0    0  501 -0.00000000000E+00 -0.00000000000E+00 -0.90104060136E+02  0.90104060136E+02  0.00000000000E+00 0.  1.
          5    1    1    2  502    0 -0.13319455932E+03  0.38938829962E+02  0.27965001042E+02  0.14162110293E+03  0.41800000000E+01 0.  1.
         -5    1    1    2    0  502  0.16878717340E+02  0.73679332809E+01  0.46862610494E+02  0.50524787997E+02  0.41800000000E+01 0.  1.
        -11    1    1    2    0    0  0.14734956987E+02 -0.30761641750E+02  0.86245993444E+02  0.92745721981E+02  0.00000000000E+00 0. -1.
         11    1    1    2    0    0  0.10158088500E+03 -0.15545121493E+02  0.65441279708E+02  0.12183139205E+03  0.00000000000E+00 0.  1.
</event>
<event>
 6    1  0.6597032E-006  0.9661659E+02  0.7561462E-02  0.1287576E+00
         -2   -1    0    0    0  501 -0.00000000000E+00  0.00000000000E+00  0.79150975822E+03  0.79150975822E+03  0.00000000000E+00 0.  1.
          2   -1    0    0  501    0  0.00000000000E+00 -0.00000000000E+00 -0.15378162168E+02  0.15378162168E+02  0.00000000000E+00 0. -1.
          5    1    1    2  502    0  0.46496811423E+02  0.22820612741E+02  0.12002375023E+03  0.13078955179E+03  0.41800000000E+01 0.  1.
         -5    1    1    2    0  502 -0.71787817528E+02  0.74744969038E+01  0.33808771445E+03  0.34573130305E+03  0.41800000000E+01 0.  1.
        -11    1    1    2    0    0  0.39900092757E+02 -0.35557497592E+02  0.30626021061E+03  0.31088851642E+03  0.00000000000E+00 0.  1.
         11    1    1    2    0    0 -0.14609086652E+02  0.52623879475E+01  0.11759920764E+02  0.19478549127E+02  0.00000000000E+00 0. -1.
</event>
<event>
 6    1  0.6597032E-006  0.1601562E+03  0.7561462E-02  0.1188521E+00
         -2   -1    0    0    0  501 -0.00000000000E+00  0.00000000000E+00  0.30294204373E+02  0.30294204373E+02  0.00000000000E+00 0.  1.
          2   -1    0    0  501    0  0.00000000000E+00 -0.00000000000E+00 -0.98431195193E+03  0.98431195193E+03  0.00000000000E+00 0. -1.
          5    1    1    2  502    0  0.15871349916E+02  0.72807431593E+02 -0.20990589521E+03  0.22277966489E+03  0.41800000000E+01 0.  1.
         -5    1    1    2    0  502  0.91725490164E+02 -0.16545489242E+02 -0.14151119496E+03  0.16949988041E+03  0.41800000000E+01 0.  1.
        -11    1    1    2    0    0 -0.54624429775E+01  0.22657049953E+02 -0.55271485411E+02  0.59984308744E+02  0.00000000000E+00 0. -1.
         11    1    1    2    0    0 -0.10213439710E+03 -0.78918992304E+02 -0.54732917198E+03  0.56234230226E+03  0.00000000000E+00 0.  1.
</event>
<event>
 6    1  0.6597032E-006  0.9937767E+02  0.7561462E-02  0.1281610E+00
         -1   -1    0    0    0  501 -0.00000000000E+00  0.00000000000E+00  0.11896491300E+03  0.11896491300E+03  0.00000000000E+00 0.  1.
          1   -1    0    0  501    0  0.00000000000E+00 -0.00000000000E+00 -0.11079187689E+03  0.11079187689E+03  0.00000000000E+00 0. -1.
          5    1    1    2  502    0  0.39326057323E+02  0.14500785897E+02  0.27809351487E+02  0.50474191488E+02  0.41800000000E+01 0. -1.
         -5    1    1    2    0  502 -0.38866190692E+02 -0.64475314337E+02  0.20470748955E+01  0.75427513902E+02  0.41800000000E+01 0.  1.
        -11    1    1    2    0    0 -0.26416639435E+02  0.48508687103E+02  0.16512729183E+02  0.57650687667E+02  0.00000000000E+00 0.  1.
         11    1    1    2    0    0  0.25956772804E+02  0.14658413373E+01 -0.38196119461E+02  0.46204396837E+02  0.00000000000E+00 0. -1.
</event>
<event>
 6    1  0.6597032E-006  0.9496918E+02  0.7561462E-02  0.1291246E+00
         -1   -1    0    0    0  501 -0.00000000000E+00  0.00000000000E+00  0.22900145551E+03  0.22900145551E+03  0.00000000000E+00 0.  1.
          1   -1    0    0  501    0  0.00000000000E+00 -0.00000000000E+00 -0.79901660286E+02  0.79901660286E+02  0.00000000000E+00 0. -1.
          5    1    1    2  502    0 -0.72044922920E+01  0.14796238772E+02  0.13116224265E+03  0.13225671888E+03  0.41800000000E+01 0. -1.
         -5    1    1    2    0  502 -0.60277967797E+02 -0.92981546549E+01 -0.13339873441E+00  0.61134108948E+02  0.41800000000E+01 0. -1.
        -11    1    1    2    0    0 -0.18179214636E+02  0.15201747412E+02 -0.54167168135E+01  0.24308800673E+02  0.00000000000E+00 0. -1.
         11    1    1    2    0    0  0.85661674724E+02 -0.20699831529E+02  0.23487668124E+02  0.91203487301E+02  0.00000000000E+00 0.  1.
</event>
<event>
 6    1  0.6597032E-006  0.1224730E+03  0.7561462E-02  0.1239072E+00
         -2   -1    0    0    0  501 -0.00000000000E+00  0.00000000000E+00  0.99043650868E+02  0.99043650868E+02  0.00000000000E+00 0.  1.
          2   -1    0    0  501    0  0.00000000000E+00 -0.00000000000E+00 -0.19957187758E+03  0.19957187758E+03  0.00000000000E+00 0. -1.
          5    1    1    2  502    0 -0.23360704372E+02 -0.32887479801E+02  0.32202474477E+01  0.40683549871E+02  0.41800000000E+01 0.  1.
         -5    1    1    2    0  502  0.54597111164E+02  0.79402634798E+02  0.14325236924E+02  0.97510552113E+02  0.41800000000E+01 0.  1.
        -11    1    1    2    0    0  0.23154198787E+02 -0.48251350207E+02 -0.49715410874E+02  0.73047462630E+02  0.00000000000E+00 0.  1.
         11    1    1    2    0    0 -0.54390605578E+02  0.17361952095E+01 -0.68358300211E+02  0.87373963838E+02  0.00000000000E+00 0. -1.
</event>
<event>
 6    1  0.6597032E-006  0.1028185E+03  0.7561462E-02  0.1274478E+00
          2   -1    0    0  501    0  0.00000000000E+00  0.00000000000E+00  0.76455002737E+03  0.76455002737E+03  0.00000000000E+00 0. -1.
         -2   -1    0    0    0  501 -0.00000000000E+00 -0.00000000000E+00 -0.29285316318E+02  0.29285316318E+02  0.00000000000E+00 0.  1.
          5    1    1    2  502    0  0.45395313247E+02  0.38678402592E+02  0.34605186349E+03  0.35117818543E+03  0.41800000000E+01 0. -1.
         -5    1    1    2    0  502 -0.27383240863E+02 -0.46118858567E+02  0.14415903248E+02  0.55696334369E+02  0.41800000000E+01 0.  1.
        -11    1    1    2    0    0 -0.14018851427E+02  0.48661087742E+02  0.14826948983E+03  0.15667887946E+03  0.00000000000E+00 0. -1.
         11    1    1    2    0    0 -0.39932209567E+01 -0.41220631768E+02  0.22652745449E+03  0.23028194444E+03  0.00000000000E+00 0.  1.
</event>
<event>
 6    1  0.6597032E-006  0.2008263E+03  0.7561462E-02  0.1149044E+00
          1   -1    0    0  501    0  0.00000000000E+00  0.00000000000E+00  0.10539844364E+04  0.10539844364E+04  0.00000000000E+00 0. -1.
         -1   -1    0    0    0  501 -0.00000000000E+00 -0.00000000000E+00 -0.49857220039E+02  0.49857220039E+02  0.00000000000E+00 0.  1.
          5    1    1    2  502    0 -0.20431710329E+01  0.26389624362E+02  0.35924145906E+02  0.44817446167E+02  0.41800000000E+01 0. -1.
         -5    1    1    2    0  502  0.16970653650E+03 -0.88139254987E+02  0.25008499842E+03  0.31484728939E+03  0.41800000000E+01 0. -1.
        -11    1    1    2    0    0 -0.34482607059E+02 -0.45987506654E+01  0.59170377740E+02  0.68639145531E+02  0.00000000000E+00 0.  1.
         11    1    1    2    0    0 -0.13318075841E+03  0.66348381290E+02  0.65894769434E+03  0.67553777539E+03  0.00000000000E+00 0. -1.
</event>
<event>
 6    1  0.6597032E-006  0.1457364E+03  0.7561462E-02  0.1205812E+00
         -2   -1    0    0    0  501 -0.00000000000E+00  0.00000000000E+00  0.11130507142E+03  0.11130507142E+03  0.00000000000E+00 0.  1.
          2   -1    0    0  501    0  0.00000000000E+00 -0.00000000000E+00 -0.21867708821E+03  0.21867708821E+03  0.00000000000E+00 0. -1.
          5    1    1    2  502    0 -0.86738750731E+02 -0.46891199716E+02 -0.34417282604E+02  0.10451993700E+03  0.41800000000E+01 0. -1.
         -5    1    1    2    0  502  0.45810134018E+02 -0.47806097335E+02  0.81673053121E+01  0.66844360998E+02  0.41800000000E+01 0.  1.
        -11    1    1    2    0    0  0.55001794993E+02  0.35203690280E+02 -0.12101488021E+02  0.66414932613E+02  0.00000000000E+00 0.  1.
         11    1    1    2    0    0 -0.14073178280E+02  0.59493606772E+02 -0.69020551477E+02  0.92202929019E+02  0.00000000000E+00 0. -1.
</event>
<event>
 6    1  0.6597032E-006  0.9033720E+02  0.7561462E-02  0.1302037E+00
         -1   -1    0    0    0  501 -0.00000000000E+00  0.00000000000E+00  0.36981405367E+03  0.36981405367E+03  0.00000000000E+00 0.  1.
          1   -1    0    0  501    0  0.00000000000E+00 -0.00000000000E+00 -0.54547709489E+02  0.54547709489E+02  0.00000000000E+00 0. -1.
          5    1    1    2  502    0  0.31137468382E+02  0.48577767488E+02  0.25839302338E+03  0.26479004581E+03  0.41800000000E+01 0.  1.
         -5    1    1    2    0  502  0.18446119231E+01 -0.46113522807E+02  0.43060895495E+02  0.63257985265E+02  0.41800000000E+01 0.  1.
        -11    1    1    2    0    0  0.18741047368E+02 -0.14118007355E+02  0.32510655583E+02  0.40093487184E+02  0.00000000000E+00 0.  1.
         11    1    1    2    0    0 -0.51723127673E+02  0.11653762675E+02 -0.18698230276E+02  0.56220244897E+02  0.00000000000E+00 0. -1.
</event>
<event>
 6    1  0.6597032E-006  0.7520376E+02  0.7561462E-02  0.1343241E+00
          2   -1    0    0  501    0  0.00000000000E+00  0.00000000000E+00  0.14616499691E+03  0.14616499691E+03  0.00000000000E+00 0. -1.
         -2   -1    0    0    0  501 -0.00000000000E+00 -0.00000000000E+00 -0.22962679230E+03  0.22962679230E+03  0.00000000000E+00 0.  1.
          5    1    1    2  502    0 -0.16075908796E+02  0.55269898480E+01  0.15504492039E+02  0.23384698711E+02  0.41800000000E+01 0.  1.
         -5    1    1    2    0  502 -0.23840701715E+02 -0.60332081381E+02 -0.19566339318E+03  0.20617947263E+03  0.41800000000E+01 0.  1.
        -11    1    1    2    0    0  0.26745169293E+02  0.33788864338E+02 -0.32823188124E+01  0.43217647444E+02  0.00000000000E+00 0.  1.
         11    1    1    2    0    0  0.13171441218E+02  0.21016227195E+02  0.99979424569E+02  0.10300997042E+03  0.00000000000E+00 0. -1.
</event>
<event>
 6    1  0.6597032E-006  0.1410648E+03  0.7561462E-02  0.1211903E+00
          1   -1    0    0  501    0  0.00000000000E+00  0.00000000000E+00  0.68935417040E+02  0.68935417040E+02  0.00000000000E+00 0. -1.
         -1   -1    0    0    0  501 -0.00000000000E+00 -0.00000000000E+00 -0.34611809502E+03  0.34611809502E+03  0.00000000000E+00 0.  1.
          5    1    1    2  502    0 -0.30059889076E+02 -0.10536467750E+02 -0.13541368886E+02  0.34863378425E+02  0.41800000000E+01 0. -1.
         -5    1    1    2    0  502  0.48857881086E+02  0.11543312839E+03 -0.17398521509E+03  0.21447663542E+03  0.41800000000E+01 0. -1.
        -11    1    1    2    0    0 -0.41396367562E+02 -0.48107438695E+02 -0.82629838283E+02  0.10419057097E+03  0.00000000000E+00 0.  1.
         11    1    1    2    0    0  0.22598375552E+02 -0.56789221943E+02 -0.70262557235E+01  0.61522927238E+02  0.00000000000E+00 0. -1.
</event>
<event>
 6    1  0.6597032E-006  0.1725292E+03  0.7561462E-02  0.1175236E+00
          1   -1    0    0  501    0  0.00000000000E+00  0.00000000000E+00  0.17374913392E+03  0.17374913392E+03  0.00000000000E+00 0. -1.
         -1   -1    0    0    0  501 -0.00000000000E+00 -0.00000000000E+00 -0.22789444495E+03  0.22789444495E+03  0.00000000000E+00 0.  1.
          5    1    1    2  502    0 -0.23886975271E+02  0.37437599449E+02 -0.61055448622E+02  0.75613501748E+02  0.41800000000E+01 0.  1.
         -5    1    1    2    0  502 -0.12633813155E+03 -0.57722441790E+02 -0.35844856508E+02  0.14351142780E+03  0.41800000000E+01 0.  1.
        -11    1    1    2    0    0  0.11166028645E+03 -0.10489084474E+02 -0.71012688409E+01  0.11237645876E+03  0.00000000000E+00 0.  1.
         11    1    1    2    0    0  0.38564820373E+02  0.30773926815E+02  0.49856262940E+02  0.70142190559E+02  0.00000000000E+00 0. -1.
</event>
<event>
 6    1  0.6597032E-006  0.1099083E+03  0.7561462E-02  0.1260740E+00
         -2   -1    0    0    0  501 -0.00000000000E+00  0.00000000000E+00  0.21313868687E+03  0.21313868687E+03  0.00000000000E+00 0.  1.
          2   -1    0    0  501    0  0.00000000000E+00 -0.00000000000E+00 -0.65443107660E+02  0.65443107660E+02  0.00000000000E+00 0. -1.
          5    1    1    2  502    0 -0.43260739646E+02  0.52524301961E+02  0.77664475430E+02  0.10334184552E+03  0.41800000000E+01 0. -1.
         -5    1    1    2    0  502 -0.16246635088E+02 -0.49259983721E+02  0.18263293255E+02  0.55149972152E+02  0.41800000000E+01 0.  1.
        -11    1    1    2    0    0 -0.14327459258E+02 -0.19310798041E+02  0.35375407189E+02  0.42773852335E+02  0.00000000000E+00 0.  1.
         11    1    1    2    0    0  0.73834833992E+02  0.16046479801E+02  0.16392403337E+02  0.77316124526E+02  0.00000000000E+00 0. -1.
</event>
<event>
 6    1  0.6597032E-006  0.1665870E+03  0.7561462E-02  0.1181455E+00
          2   -1    0    0  501    0  0.00000000000E+00  0.00000000000E+00  0.67027999588E+03  0.67027999588E+03  0.00000000000E+00 0. -1.
         -2   -1    0    0    0  501 -0.00000000000E+00 -0.00000000000E+00 -0.59829485578E+02  0.59829485578E+02  0.00000000000E+00 0.  1.
          5    1    1    2  502    0 -0.26508278587E+02 -0.10476528567E+03  0.23196610873E+03  0.25593788682E+03  0.41800000000E+01 0. -1.
         -5    1    1    2    0  502 -0.24179408425E+02 -0.47699410177E+02  0.12406752358E+01  0.53655281176E+02  0.41800000000E+01 0. -1.
        -11    1    1    2    0    0  0.89183230618E+01  0.11478808526E+03  0.16675070084E+03  0.20263671246E+03  0.00000000000E+00 0.  1.
         11    1    1    2    0    0  0.41769363950E+02  0.37676610587E+02  0.21049302550E+03  0.21787960100E+03  0.00000000000E+00 0. -1.
</event>
<event>
 6    1  0.6597032E-006  0.7195291E+02  0.7561462E-02  0.1353575E+00
          1   -1    0    0  501    0  0.00000000000E+00  0.00000000000E+00  0.71914612552E+03  0.71914612552E+03  0.00000000000E+00 0. -1.
         -1   -1    0    0    0  501 -0.00000000000E+00 -0.00000000000E+00 -0.18937408248E+02  0.18937408248E+02  0.00000000000E+00 0.  1.
          5    1    1    2  502    0 -0.11075195618E+02  0.42322698448E+01 -0.63392647391E+01  0.14079444003E+02  0.41800000000E+01 0. -1.
         -5    1    1    2    0  502 -0.19456557647E+01 -0.44438050792E+02  0.37231382155E+03  0.37498477310E+03  0.41800000000E+01 0. -1.
        -11    1    1    2    0    0 -0.31633856626E+02  0.21470069132E+02  0.64554870971E+02  0.75026636068E+02  0.00000000000E+00 0.  1.
         11    1    1    2    0    0  0.44654708009E+02  0.18735711815E+02  0.26967928949E+03  0.27399268060E+03  0.00000000000E+00 0. -1.
</event>
<event>
 6    1  0.6597032E-006  0.6416755E+02  0.7561462E-02  0.1381130E+00
         -2   -1    0    0    0  501 -0.00000000000E+00  0.00000000000E+00  0.44674684361E+02  0.44674684361E+02  0.00000000000E+00 0.  1.
          2   -1    0    0  501    0  0.00000000000E+00 -0.00000000000E+00 -0.14597765573E+03  0.14597765573E+03  0.00000000000E+00 0. -1.
          5    1    1    2  502    0  0.35119887846E+02 -0.35203829583E+02 -0.96256591419E+02  0.10842287550E+03  0.41800000000E+01 0. -1.
         -5    1    1    2    0  502 -0.23773481334E+02  0.32716724165E+02  0.83189080435E+01  0.41499868505E+02  0.41800000000E+01 0.  1.
        -11    1    1    2    0    0  0.23951367932E+01  0.17361191846E+02 -0.10071178810E+02  0.20213270522E+02  0.00000000000E+00 0.  1.
         11    1    1    2    0    0 -0.13741543305E+02 -0.14874086428E+02 -0.32941091846E+01  0.20516325568E+02  0.00000000000E+00 0. -1.
</event>
<event>
 6    1  0.6597032E-006  0.1394711E+03  0.7561462E-02  0.1214042E+00
         -1   -1    0    0    0  501 -0.00000000000E+00  0.00000000000E+00  0.78650245281E+02  0.78650245281E+02  0.00000000000E+00 0.  1.
          1   -1    0    0  501    0  0.00000000000E+00 -0.00000000000E+00 -0.26352536208E+03  0.26352536208E+03  0.00000000000E+00 0. -1.
          5    1    1    2  502    0  0.87176022557E+02  0.20347934349E+02 -0.87447197319E+02  0.12521254753E+03  0.41800000000E+01 0. -1.
         -5    1    1    2    0  502 -0.29351338093E+02  0.56196933094E+02 -0.24344671717E+02  0.68042132374E+02  0.41800000000E+01 0. -1.
        -11    1    1    2    0    0 -0.42585050159E+02 -0.93650389913E+02 -0.43984853656E+02  0.11188632347E+03  0.00000000000E+00 0.  1.
         11    1    1    2    0    0 -0.15239634305E+02  0.17105522470E+02 -0.29098394110E+02  0.37034603988E+02  0.00000000000E+00 0. -1.
</event>
<event>
 6    1  0.6597032E-006  0.1017427E+03  0.7561462E-02  0.1276673E+00
         -1   -1    0    0    0  501 -0.00000000000E+00  0.00000000000E+00  0.60723249644E+02  0.60723249644E+02  0.00000000000E+00 0.  1.
          1   -1    0    0  501    0  0.00000000000E+00 -0.00000000000E+00 -0.23242541154E+03  0.23242541154E+03  0.00000000000E+00 0. -1.
          5    1    1    2  502    0  0.28670578399E+02 -0.39374830199E+02 -0.15802421288E+02  0.51376728560E+02  0.41800000000E+01 0. -1.
         -5    1    1    2    0  502 -0.31529086366E+02  0.74035379576E+02 -0.39611420444E+02  0.89787848541E+02  0.41800000000E+01 0. -1.
        -11    1    1    2    0    0  0.18803621175E+02  0.13592611568E+02 -0.93416882209E+02  0.96255125267E+02  0.00000000000E+00 0. -1.
         11    1    1    2    0    0 -0.15945113208E+02 -0.48253160945E+02 -0.22871437952E+02  0.55728958814E+02  0.00000000000E+00 0.  1.
</event>
<event>
 6    1  0.6597032E-006  0.1803801E+03  0.7561462E-02  0.1167436E+00
         -1   -1    0    0    0  501 -0.00000000000E+00  0.00000000000E+00  0.51369168562E+02  0.51369168562E+02  0.00000000000E+00 0.  1.
          1   -1    0    0  501    0  0.00000000000E+00 -0.00000000000E+00 -0.68783354562E+03  0.68783354562E+03  0.00000000000E+00 0. -1.
          5    1    1    2  502    0 -0.54925638786E+02 -0.51940258451E+02 -0.17563338037E+03  0.19125682457E+03  0.41800000000E+01 0. -1.
         -5    1    1    2    0  502 -0.91361058530E+02  0.63198448622E+02 -0.11055474733E+03  0.15678236980E+03  0.41800000000E+01 0.  1.
        -11    1    1    2    0    0  0.13215792578E+03  0.25416104469E+02 -0.27929508988E+03  0.31002813250E+03  0.00000000000E+00 0. -1.
         11    1    1    2    0    0  0.14128771540E+02 -0.36674294640E+02 -0.70981159478E+02  0.81135387307E+02  0.00000000000E+00 0.  1.
</event>
<event>
 6    1  0.6597032E-006  0.1178940E+03  0.7561462E-02  0.1246612E+00
          3   -1    0    0  501    0  0.00000000000E+00  0.00000000000E+00  0.65700325280E+02  0.65700325280E+02  0.00000000000E+00 0. -1.
         -3   -1    0    0    0  501 -0.00000000000E+00 -0.00000000000E+00 -0.24077867725E+03  0.24077867725E+03  0.00000000000E+00 0.  1.
          5    1    1    2  502    0 -0.47914632691E+02 -0.49510837728E+02 -0.57034976350E+02  0.89541029733E+02  0.41800000000E+01 0. -1.
         -5    1    1    2    0  502  0.68715658195E+02 -0.11273155449E+02 -0.30750273649E+02  0.76236326278E+02  0.41800000000E+01 0. -1.
        -11    1    1    2    0    0 -0.45615746391E+02  0.21242626496E+02 -0.11391034523E+02  0.51592646441E+02  0.00000000000E+00 0. -1.
         11    1    1    2    0    0  0.24814720887E+02  0.39541366681E+02 -0.75902067445E+02  0.89109000073E+02  0.00000000000E+00 0.  1.
</event>
<event>
 6    1  0.6597032E-006  0.1300422E+03  0.7561462E-02  0.1227393E+00
         -2   -1    0    0    0  501 -0.00000000000E+00  0.00000000000E+00  0.51711869107E+02  0.51711869107E+02  0.00000000000E+00 0.  1.
          2   -1    0    0  501    0  0.00000000000E+00 -0.00000000000E+00 -0.39367725465E+03  0.39367725465E+03  0.00000000000E+00 0. -1.
          5    1    1    2  502    0 -0.68202506667E+00  0.86885703544E+02 -0.13281936708E+03  0.15877042329E+03  0.41800000000E+01 0.  1.
         -5    1    1    2    0  502  0.42614753828E+02 -0.23785999843E+02 -0.20461906668E+02  0.53084395606E+02  0.41800000000E+01 0.  1.
        -11    1    1    2    0    0 -0.71749576510E+02 -0.25545510294E+02 -0.16114659307E+03  0.17823804107E+03  0.00000000000E+00 0. -1.
         11    1    1    2    0    0  0.29816847749E+02 -0.37554193408E+02 -0.27537518716E+02  0.55296263791E+02  0.00000000000E+00 0.  1.
</event>
<event>
 6    1  0.6597032E-006  0.1155298E+03  0.7561462E-02  0.1250659E+00
          1   -1    0    0  501    0  0.00000000000E+00  0.00000000000E+00  0.48339047405E+03  0.48339047405E+03  0.00000000000E+00 0. -1.
         -1   -1    0    0    0  501 -0.00000000000E+00 -0.00000000000E+00 -0.31352101450E+02  0.31352101450E+02  0.00000000000E+00 0.  1.
          5    1    1    2  502    0  0.37775833096E+02 -0.42329844494E+02  0.99138166763E+02  0.11430082156E+03  0.41800000000E+01 0. -1.
         -5    1    1    2    0  502 -0.79566287532E+02  0.52679431255E+01  0.12022878928E+03  0.14432941318E+03  0.41800000000E+01 0. -1.
        -11    1    1    2    0    0 -0.14332187554E+02 -0.12824190258E+02  0.11195103050E+02  0.22253129851E+02  0.00000000000E+00 0.  1.
         11    1    1    2    0    0  0.56122641989E+02  0.49886091627E+02  0.22147631350E+03  0.23385921090E+03  0.00000000000E+00 0. -1.
</event>
<event>
 6    1  0.6597032E-006  0.1017525E+03  0.7561462E-02  0.1276653E+00
          1   -1    0    0  501    0  0.00000000000E+00  0.00000000000E+00  0.80360259826E+02  0.80360259826E+02  0.00000000000E+00 0. -1.
         -1   -1    0    0    0  501 -0.00000000000E+00 -0.00000000000E+00 -0.15790925896E+03  0.15790925896E+03  0.00000000000E+00 0.  1.
          5    1    1    2  502    0  0.44933469409E+02  0.49985710006E+02 -0.11391633017E+02  0.68299557691E+02  0.41800000000E+01 0. -1.
         -5    1    1    2    0  502 -0.44809321638E+02 -0.24628320692E+02 -0.56314718759E+02  0.76179061655E+02  0.41800000000E+01 0. -1.
        -11    1    1    2    0    0  0.36696725181E+02 -0.30454785566E+02 -0.24765589812E+02  0.53735258830E+02  0.00000000000E+00 0.  1.
         11    1    1    2    0    0 -0.36820872952E+02  0.50973962517E+01  0.14922942451E+02  0.40055640613E+02  0.00000000000E+00 0. -1.
</event>
<event>
 6    1  0.6597032E-006  0.7566544E+02  0.7561462E-02  0.1341823E+00
         -2   -1    0    0    0  501 -0.00000000000E+00  0.00000000000E+00  0.20471757852E+02  0.20471757852E+02  0.00000000000E+00 0.  1.
          2   -1    0    0  501    0  0.00000000000E+00 -0.00000000000E+00 -0.59179837358E+03  0.59179837358E+03  0.00000000000E+00 0. -1.
          5    1    1    2  502    0  0.25299187067E+02  0.11520707411E+02 -0.10853078820E+02  0.30133657020E+02  0.41800000000E+01 0.  1.
         -5    1    1    2    0  502 -0.21107846883E+02 -0.30747530000E+02 -0.35572064098E+03  0.35769484008E+03  0.41800000000E+01 0.  1.
        -11    1    1    2    0    0 -0.50782339025E+01 -0.33034076765E+02 -0.43048907654E+02  0.54499973738E+02  0.00000000000E+00 0.  1.
         11    1    1    2    0    0  0.88689371888E+00  0.52260899353E+02 -0.16170398827E+03  0.16994166059E+03  0.00000000000E+00 0. -1.
</event>
<event>
 6    1  0.6597032E-006  0.2617839E+03  0.7561462E-02  0.1106076E+00
         -2   -1    0    0    0  501 -0.00000000000E+00  0.00000000000E+00  0.49839759224E+02  0.49839759224E+02  0.00000000000E+00 0.  1.
          2   -1    0    0  501    0  0.00000000000E+00 -0.00000000000E+00 -0.16789640432E+04  0.16789640432E+04  0.00000000000E+00 0. -1.
          5    1    1    2  502    0 -0.15773395918E+03 -0.15617695803E+02 -0.23678152442E+03  0.28496820350E+03  0.41800000000E+01 0.  1.
         -5    1    1    2    0  502 -0.77220463224E+02 -0.78773410404E+02 -0.33573091992E+03  0.35341331768E+03  0.41800000000E+01 0.  1.
        -11    1    1    2    0    0  0.21183792205E+02  0.63925671666E+00 -0.25204202329E+02  0.32930434500E+02  0.00000000000E+00 0.  1.
         11    1    1    2    0    0  0.21377063020E+03  0.93751849490E+02 -0.10314076373E+04  0.10574918468E+04  0.00000000000E+00 0. -1.
</event>
<event>
 6    1  0.6597032E-006  0.1094640E+03  0.7561462E-02  0.1261566E+00
          2   -1    0    0  501    0  0.00000000000E+00  0.00000000000E+00  0.37972151374E+03  0.37972151374E+03  0.00000000000E+00 0. -1.
         -2   -1    0    0    0  501 -0.00000000000E+00 -0.00000000000E+00 -0.44829958311E+02  0.44829958311E+02  0.00000000000E+00 0.  1.
          5    1    1    2  502    0 -0.88243231580E+02  0.47587688808E+02  0.78777893926E+02  0.12757305757E+03  0.41800000000E+01 0.  1.
         -5    1    1    2    0  502  0.34480241565E+02 -0.89453769578E+01  0.64604062142E+02  0.73892246363E+02  0.41800000000E+01 0.  1.
        -11    1    1    2    0    0  0.57945887020E+02 -0.16592490946E+02  0.19137517116E+03  0.20064269913E+03  0.00000000000E+00 0. -1.
         11    1    1    2    0    0 -0.41828970055E+01 -0.22049820904E+02  0.13442820005E+00  0.22443468987E+02  0.00000000000E+00 0.  1.
</event>
<event>
 6    1  0.6597032E-006  0.1511906E+03  0.7561462E-02  0.1199018E+00
         -2   -1    0    0    0  501 -0.00000000000E+00  0.00000000000E+00  0.52954695647E+02  0.52954695647E+02  0.00000000000E+00 0.  1.
          2   -1    0    0  501    0  0.00000000000E+00 -0.00000000000E+00 -0.51009300940E+03  0.51009300940E+03  0.00000000000E+00 0. -1.
          5    1    1    2  502    0  0.24892361592E+02 -0.50162862934E+02 -0.21252568000E+02  0.60042372787E+02  0.41800000000E+01 0.  1.
         -5    1    1    2    0  502  0.90805505376E+02  0.47716251174E+02 -0.14815315866E+03  0.18024791608E+03  0.41800000000E+01 0.  1.
        -11    1    1    2    0    0  0.98448969762E+01 -0.13821398221E+02 -0.58277141499E+02  0.60697432124E+02  0.00000000000E+00 0. -1.
         11    1    1    2    0    0 -0.12554276394E+03  0.16268009981E+02 -0.22945544560E+03  0.26205998405E+03  0.00000000000E+00 0.  1.
</event>
<event>
 6    1  0.6597032E-006  0.9961894E+02  0.7561462E-02  0.1281099E+00
          3   -1    0    0  501    0  0.00000000000E+00  0.00000000000E+00  0.15911566867E+03  0.15911566867E+03  0.00000000000E+00 0. -1.
         -3   -1    0    0    0  501 -0.00000000000E+00 -0.00000000000E+00 -0.13077462526E+03  0.13077462526E+03  0.00000000000E+00 0.  1.
          5    1    1    2  502    0  0.33148896115E+01 -0.31253721098E+02  0.49921203187E+02  0.59138671809E+02  0.41800000000E+01 0.  1.
         -5    1    1    2    0  502  0.20625677682E+02 -0.49722691027E+02 -0.77230968627E+02  0.94233006415E+02  0.41800000000E+01 0.  1.
        -11    1    1    2    0    0  0.19739247935E+02 -0.19266228377E+01  0.35508823126E+02  0.40672180964E+02  0.00000000000E+00 0. -1.
         11    1    1    2    0    0 -0.43679815229E+02  0.82903034964E+02  0.20141985725E+02  0.95846434746E+02  0.00000000000E+00 0.  1.
</event>
<event>
 6    1  0.6597032E-006  0.9131246E+02  0.7561462E-02  0.1299704E+00
         -1   -1    0    0    0  501 -0.00000000000E+00  0.00000000000E+00  0.28196292679E+02  0.28196292679E+02  0.00000000000E+00 0.  1.
          1   -1    0    0  501    0  0.00000000000E+00 -0.00000000000E+00 -0.51228783092E+03  0.51228783092E+03  0.00000000000E+00 0. -1.
          5    1    1    2  502    0 -0.27943769864E+02  0.54098742361E+02 -0.23910518880E+03  0.24677174050E+03  0.41800000000E+01 0.  1.
         -5    1    1    2    0  502  0.54389807111E+02 -0.11173587950E+02 -0.63055508473E+02  0.84122349789E+02  0.41800000000E+01 0.  1.
        -11    1    1    2    0    0 -0.36090896118E+02 -0.20520257727E+02 -0.18043697396E+03  0.18515165495E+03  0.00000000000E+00 0. -1.
         11    1    1    2    0    0  0.96448588709E+01 -0.22404896684E+02 -0.14938670088E+01  0.24438378356E+02  0.00000000000E+00 0.  1.
</event>
<event>
 6    1  0.6597032E-006  0.1285231E+03  0.7561462E-02  0.1229664E+00
         -3   -1    0    0    0  501 -0.00000000000E+00  0.00000000000E+00  0.29583514836E+03  0.29583514836E+03  0.00000000000E+00 0.  1.
          3   -1    0    0  501    0  0.00000000000E+00 -0.00000000000E+00 -0.61317805853E+02  0.61317805853E+02  0.00000000000E+00 0. -1.
          5    1    1    2  502    0  0.88780105274E+02  0.52934108640E+02  0.12644831014E+03  0.16337250224E+03  0.41800000000E+01 0.  1.
         -5    1    1    2    0  502 -0.23761530674E+02 -0.30742529409E+02  0.55208250870E+02  0.67639757676E+02  0.41800000000E+01 0.  1.
        -11    1    1    2    0    0 -0.21369948381E+02 -0.55591823215E+02  0.28365862672E+02  0.65967777492E+02  0.00000000000E+00 0.  1.
         11    1    1    2    0    0 -0.43648626219E+02  0.33400243984E+02  0.24494918826E+02  0.60172916809E+02  0.00000000000E+00 0. -1.
</event>
<event>
 6    1  0.6597032E-006  0.2118356E+03  0.7561462E-02  0.1140121E+00
         -2   -1    0    0    0  501 -0.00000000000E+00  0.00000000000E+00  0.31147889799E+02  0.31147889799E+02  0.00000000000E+00 0.  1.
          2   -1    0    0  501    0  0.00000000000E+00 -0.00000000000E+00 -0.17215222207E+04  0.17215222207E+04  0.00000000000E+00 0. -1.
          5    1    1    2  502    0 -0.57047725442E+01  0.15585650570E+03 -0.85942460079E+03  0.87347118535E+03  0.41800000000E+01 0.  1.
         -5    1    1    2    0  502 -0.86817444254E+01  0.47501900309E+02 -0.63155147387E+02  0.79610603946E+02  0.41800000000E+01 0.  1.
        -11    1    1    2    0    0 -0.33363627049E+02 -0.70226338012E+02 -0.34899879926E+03  0.35755423651E+03  0.00000000000E+00 0. -1.
         11    1    1    2    0    0  0.47750144019E+02 -0.13313206800E+03 -0.41879578351E+03  0.44203408473E+03  0.00000000000E+00 0.  1.
</event>
<event>
 6    1  0.6597032E-006  0.1447157E+03  0.7561462E-02  0.1207121E+00
         -2   -1    0    0    0  501 -0.00000000000E+00  0.00000000000E+00  0.70259621602E+02  0.70259621602E+02  0.00000000000E+00 0. -1.
          2   -1    0    0  501    0  0.00000000000E+00 -0.00000000000E+00 -0.36029955333E+03  0.36029955333E+03  0.00000000000E+00 0.  1.
          5    1    1    2  502    0  0.40001188588E+02  0.37199093383E+02 -0.10928077589E+03  0.12224413285E+03  0.41800000000E+01 0.  1.
         -5    1    1    2    0  502  0.68331951999E+02 -0.77309834508E+02 -0.68467171888E+02  0.12390033173E+03  0.41800000000E+01 0.  1.
        -11    1    1    2    0    0  0.51784050279E+00  0.20830734000E+02  0.68053417529E+01  0.21920317382E+02  0.00000000000E+00 0. -1.
         11    1    1    2    0    0 -0.10885098109E+03  0.19280007125E+02 -0.11909732570E+03  0.16249439298E+03  0.00000000000E+00 0.  1.
</event>
<event>
 6    1  0.6597032E-006  0.1037598E+03  0.7561462E-02  0.1272582E+00
         -3   -1    0    0    0  501 -0.00000000000E+00  0.00000000000E+00  0.35484707893E+03  0.35484707893E+03  0.00000000000E+00 0.  1.
          3   -1    0    0  501    0  0.00000000000E+00 -0.00000000000E+00 -0.38659935866E+02  0.38659935866E+02  0.00000000000E+00 0. -1.
          5    1    1    2  502    0 -0.28304353495E+02  0.31174337164E+02  0.17965079994E+02  0.45969470560E+02  0.41800000000E+01 0. -1.
         -5    1    1    2    0  502  0.19533354918E+02 -0.57269381431E+02  0.17883087173E+03  0.18883666775E+03  0.41800000000E+01 0. -1.
        -11    1    1    2    0    0 -0.30468485834E+02  0.50038744534E+02  0.67388134878E+02  0.89293702499E+02  0.00000000000E+00 0.  1.
         11    1    1    2    0    0  0.39239484410E+02 -0.23943700267E+02  0.52003056457E+02  0.69407173982E+02  0.00000000000E+00 0. -1.
</event>
<event>
 6    1  0.6597032E-006  0.1194395E+03  0.7561462E-02  0.1244025E+00
         -2   -1    0    0    0  501 -0.00000000000E+00  0.00000000000E+00  0.38573887974E+03  0.38573887974E+03  0.00000000000E+00 0.  1.
          2   -1    0    0  501    0  0.00000000000E+00 -0.00000000000E+00 -0.40731265471E+02  0.40731265471E+02  0.00000000000E+00 0. -1.
          5    1    1    2  502    0  0.32274045301E+02 -0.71887034616E+02  0.13999701418E+03  0.16070468607E+03  0.41800000000E+01 0.  1.
         -5    1    1    2    0  502  0.26614004797E+02  0.49714111911E+02  0.51181973105E+02  0.76268374477E+02  0.41800000000E+01 0.  1.
        -11    1    1    2    0    0  0.43057963437E+01 -0.24492323966E+02  0.12569613715E+02  0.27864116787E+02  0.00000000000E+00 0. -1.
         11    1    1    2    0    0 -0.63193846441E+02  0.46665246671E+02  0.14125901327E+03  0.16163296788E+03  0.00000000000E+00 0.  1.
</event>
<event>
 6    1  0.6597032E-006  0.1656772E+03  0.7561462E-02  0.1182432E+00
         -1   -1    0    0    0  501 -0.00000000000E+00  0.00000000000E+00  0.98324529970E+02  0.98324529970E+02  0.00000000000E+00 0.  1.
          1   -1    0    0  501    0  0.00000000000E+00 -0.00000000000E+00 -0.36190057090E+03  0.36190057090E+03  0.00000000000E+00 0. -1.
          5    1    1    2  502    0 -0.80287459201E+02  0.16808161136E+02  0.33174066201E+01  0.82201386682E+02  0.41800000000E+01 0.  1.
         -5    1    1    2    0  502  0.28331646563E+01  0.95070675514E+02 -0.54000444024E+02  0.10945309735E+03  0.41800000000E+01 0.  1.
        -11    1    1    2    0    0 -0.10897240000E+02 -0.35800856237E+02 -0.18146259644E+02  0.41590117648E+02  0.00000000000E+00 0. -1.
         11    1    1    2    0    0  0.88351534545E+02 -0.76077980413E+02 -0.19474674389E+03  0.22698049919E+03  0.00000000000E+00 0.  1.
</event>
<event>
 6    1  0.6597032E-006  0.1084188E+03  0.7561462E-02  0.1263526E+00
          3   -1    0    0  501    0  0.00000000000E+00  0.00000000000E+00  0.48908477464E+02  0.48908477464E+02  0.00000000000E+00 0. -1.
         -3   -1    0    0    0  501 -0.00000000000E+00 -0.00000000000E+00 -0.37956989867E+03  0.37956989867E+03  0.00000000000E+00 0.  1.
          5    1    1    2  502    0  0.20295402593E+02 -0.10037476664E+03 -0.22944930489E+03  0.25129952856E+03  0.41800000000E+01 0. -1.
         -5    1    1    2    0  502  0.16090401662E+01  0.37382538639E+02 -0.57079342714E+02  0.68378117626E+02  0.41800000000E+01 0. -1.
        -11    1    1    2    0    0  0.10652317765E+02  0.10705904244E+02 -0.44722862558E+02  0.47204053796E+02  0.00000000000E+00 0.  1.
         11    1    1    2    0    0 -0.32556760525E+02  0.52286323756E+02  0.59008894886E+00  0.61596676150E+02  0.00000000000E+00 0. -1.
</event>
<event>
 6    1  0.6597032E-006  0.1071231E+03  0.7561462E-02  0.1265992E+00
         -1   -1    0    0    0  501 -0.00000000000E+00  0.00000000000E+00  0.51199901918E+03  0.51199901918E+03  0.00000000000E+00 0.  1.
          1   -1    0    0  501    0  0.00000000000E+00 -0.00000000000E+00 -0.46229872527E+02  0.46229872527E+02  0.00000000000E+00 0. -1.
          5    1    1    2  502    0  0.27268671453E+02 -0.38011120922E+02  0.92595111647E+02  0.10382558864E+03  0.41800000000E+01 0. -1.
         -5    1    1    2    0  502 -0.69224581910E+02  0.32705493663E+02  0.33659616464E+03  0.34521897761E+03  0.41800000000E+01 0. -1.
        -11    1    1    2    0    0  0.21405146779E+02 -0.37466849041E+02  0.43449965982E+02  0.61235974962E+02  0.00000000000E+00 0.  1.
         11    1    1    2    0    0  0.20550763678E+02  0.42772476300E+02 -0.68720956090E+01  0.47948350490E+02  0.00000000000E+00 0. -1.
</event>
<event>
 6    1  0.6597032E-006  0.1114474E+03  0.7561462E-02  0.1257913E+00
         -1   -1    0    0    0  501 -0.00000000000E+00  0.00000000000E+00  0.92304152815E+02  0.92304152815E+02  0.00000000000E+00 0.  1.
          1   -1    0    0  501    0  0.00000000000E+00 -0.00000000000E+00 -0.16388620804E+03  0.16388620804E+03  0.00000000000E+00 0. -1.
          5    1    1    2  502    0 -0.61686175418E+02  0.27588675451E+02 -0.14245579873E+02  0.69186185014E+02  0.41800000000E+01 0.  1.
         -5    1    1    2    0  502  0.62989863961E+02  0.28357722985E+02 -0.84660016327E+01  0.69721080014E+02  0.41800000000E+01 0.  1.
        -11    1    1    2    0    0  0.29004691535E+02 -0.94912291247E+01  0.13884645801E+02  0.33528181436E+02  0.00000000000E+00 0.  1.
         11    1    1    2    0    0 -0.30308380078E+02 -0.46455169312E+02 -0.62755119522E+02  0.83754914392E+02  0.00000000000E+00 0. -1.
</event>
<event>
 6    1  0.6597032E-006  0.1941816E+03  0.7561462E-02  0.1154743E+00
         -2   -1    0    0    0  501 -0.00000000000E+00  0.00000000000E+00  0.17779702929E+03  0.17779702929E+03  0.00000000000E+00 0. -1.
          2   -1    0    0  501    0  0.00000000000E+00 -0.00000000000E+00 -0.30457355753E+03  0.30457355753E+03  0.00000000000E+00 0.  1.
          5    1    1    2  502    0  0.10623409364E+03  0.81862000700E+02  0.39505914829E+02  0.13987587182E+03  0.41800000000E+01 0.  1.
         -5    1    1    2    0  502 -0.28539951043E+02  0.73940106246E+02  0.85700913291E+01  0.79828484782E+02  0.41800000000E+01 0.  1.
        -11    1    1    2    0    0 -0.13430607189E+02 -0.42324509657E+02 -0.10659131266E+03  0.11547057314E+03  0.00000000000E+00 0.  1.
         11    1    1    2    0    0 -0.64263535405E+02 -0.11347759729E+03 -0.68261221745E+02  0.14719565708E+03  0.00000000000E+00 0. -1.
</event>
<event>
 6    1  0.6597032E-006  0.9843393E+02  0.7561462E-02  0.1283624E+00
         -2   -1    0    0    0  501 -0.00000000000E+00  0.00000000000E+00  0.43277951538E+02  0.43277951538E+02  0.00000000000E+00 0.  1.
          2   -1    0    0  501    0  0.00000000000E+00 -0.00000000000E+00 -0.28237945741E+03  0.28237945741E+03  0.00000000000E+00 0. -1.
          5    1    1    2  502    0 -0.38628366756E+02  0.36989471279E+02 -0.74407820502E+02  0.91729863489E+02  0.41800000000E+01 0.  1.
         -5    1    1    2    0  502  0.52217497722E+02 -0.41738813515E+02 -0.37706431794E+02  0.76863795253E+02  0.41800000000E+01 0.  1.
        -11    1    1    2    0    0  0.24689952826E+02  0.23082991455E+02 -0.14394912370E+02  0.36737334786E+02  0.00000000000E+00 0.  1.
         11    1    1    2    0    0 -0.38279083793E+02 -0.18333649219E+02 -0.11259234120E+03  0.12032641542E+03  0.00000000000E+00 0. -1.
</event>
<event>
 6    1  0.6597032E-006  0.1659165E+03  0.7561462E-02  0.1182174E+00
          2   -1    0    0  501    0  0.00000000000E+00  0.00000000000E+00  0.59034453273E+03  0.59034453273E+03  0.00000000000E+00 0. -1.
         -2   -1    0    0    0  501 -0.00000000000E+00 -0.00000000000E+00 -0.59709943970E+02  0.59709943970E+02  0.00000000000E+00 0.  1.
          5    1    1    2  502    0  0.48788992961E+02 -0.12096983502E+03  0.80882636021E+02  0.15353677094E+03  0.41800000000E+01 0. -1.
         -5    1    1    2    0  502 -0.16536642710E+02 -0.20813535857E+02  0.12490564871E+03  0.12777150428E+03  0.41800000000E+01 0. -1.
        -11    1    1    2    0    0 -0.65432781704E+02  0.72889538599E+02  0.18784851010E+03  0.21185229879E+03  0.00000000000E+00 0.  1.
         11    1    1    2    0    0  0.33180431454E+02  0.68893832281E+02  0.13699779393E+03  0.15689390269E+03  0.00000000000E+00 0. -1.
</event>
<event>
 6    1  0.6597032E-006  0.6433360E+02  0.7561462E-02  0.1380496E+00
          1   -1    0    0  501    0  0.00000000000E+00  0.00000000000E+00  0.43500262640E+03  0.43500262640E+03  0.00000000000E+00 0. -1.
         -1   -1    0    0    0  501 -0.00000000000E+00 -0.00000000000E+00 -0.30580967851E+02  0.30580967851E+02  0.00000000000E+00 0.  1.
          5    1    1    2  502    0  0.20530204887E+02  0.11633496278E+01  0.22397169209E+03  0.22495251488E+03  0.41800000000E+01 0. -1.
         -5    1    1    2    0  502 -0.31177364741E+02  0.39255533147E+02  0.23610459631E+02  0.55569336498E+02  0.41800000000E+01 0. -1.
        -11    1    1    2    0    0 -0.10062546685E+02 -0.34357824314E+02  0.15936427489E+03  0.16333611680E+03  0.00000000000E+00 0. -1.
         11    1    1    2    0    0  0.20709706539E+02 -0.60610584617E+01 -0.25247680626E+01  0.21725626075E+02  0.00000000000E+00 0.  1.
</event>
<event>
 6    1  0.6597032E-006  0.1108981E+03  0.7561462E-02  0.1258916E+00
         -1   -1    0    0    0  501 -0.00000000000E+00  0.00000000000E+00  0.12010859046E+04  0.12010859046E+04  0.00000000000E+00 0.  1.
          1   -1    0    0  501    0  0.00000000000E+00 -0.00000000000E+00 -0.11126812845E+02  0.11126812845E+02  0.00000000000E+00 0. -1.
          5    1    1    2  502    0  0.24898918921E+01  0.52874309806E+02  0.30979782974E+03  0.31431522380E+03  0.41800000000E+01 0.  1.
         -5    1    1    2    0  502 -0.21699135160E+02 -0.70767980739E+02  0.52627686300E+03  0.53147320581E+03  0.41800000000E+01 0.  1.
        -11    1    1    2    0    0 -0.36285453256E+02  0.10842571219E+00  0.15408820794E+03  0.15830294281E+03  0.00000000000E+00 0. -1.
         11    1    1    2    0    0  0.55494696524E+02  0.17785245221E+02  0.19979619102E+03  0.20812134498E+03  0.00000000000E+00 0.  1.
</event>
<event>
 6    1  0.6597032E-006  0.1000043E+03  0.7561462E-02  0.1280287E+00
         -2   -1    0    0    0  501 -0.00000000000E+00  0.00000000000E+00  0.76100861223E+02  0.76100861223E+02  0.00000000000E+00 0.  1.
          2   -1    0    0  501    0  0.00000000000E+00 -0.00000000000E+00 -0.17827154815E+03  0.17827154815E+03  0.00000000000E+00 0. -1.
          5    1    1    2  502    0 -0.51113347086E+01  0.68849653465E+02  0.10599896620E+02  0.69973071486E+02  0.41800000000E+01 0. -1.
         -5    1    1    2    0  502 -0.53128746570E+01 -0.29071441751E+02 -0.66860903280E+02  0.73220408016E+02  0.41800000000E+01 0. -1.
        -11    1    1    2    0    0  0.34646423823E+02  0.17493720678E+02 -0.13786175687E+02  0.41188148623E+02  0.00000000000E+00 0.  1.
         11    1    1    2    0    0 -0.24222214458E+02 -0.57271932392E+02 -0.32123504581E+02  0.69990781248E+02  0.00000000000E+00 0. -1.
</event>
<event>
 6    1  0.6597032E-006  0.1639791E+03  0.7561462E-02  0.1184276E+00
         -2   -1    0    0    0  501 -0.00000000000E+00  0.00000000000E+00  0.37470024515E+03  0.37470024515E+03  0.00000000000E+00 0.  1.
          2   -1    0    0  501    0  0.00000000000E+00 -0.00000000000E+00 -0.10199853206E+03  0.10199853206E+03  0.00000000000E+00 0. -1.
          5    1    1    2  502    0 -0.13099036075E+03  0.64389305307E+02  0.10353885878E+03  0.17900342154E+03  0.41800000000E+01 0. -1.
         -5    1    1    2    0  502 -0.39908201455E+01 -0.32622703103E+02  0.14084877128E+03  0.14469283387E+03  0.41800000000E+01 0.  1.
        -11    1    1    2    0    0  0.98326553295E+02  0.28811927610E+01  0.29016956790E+02  0.10255923233E+03  0.00000000000E+00 0. -1.
         11    1    1    2    0    0  0.36654627598E+02 -0.34647794965E+02 -0.70287376039E+00  0.50443289463E+02  0.00000000000E+00 0.  1.
</event>
<event>
 6    1  0.6597032E-006  0.1747653E+03  0.7561462E-02  0.1172968E+00
          1   -1    0    0  501    0  0.00000000000E+00  0.00000000000E+00  0.31307518954E+02  0.31307518954E+02  0.00000000000E+00 0. -1.
         -1   -1    0    0    0  501 -0.00000000000E+00 -0.00000000000E+00 -0.11860047272E+04  0.11860047272E+04  0.00000000000E+00 0.  1.
          5    1    1    2  502    0 -0.57087873695E+02  0.11119874951E+03 -0.52115722621E+03  0.53595383574E+03  0.41800000000E+01 0.  1.
         -5    1    1    2    0  502  0.57727929301E+02  0.37831959986E+02 -0.25276621081E+03  0.26205343108E+03  0.41800000000E+01 0.  1.
        -11    1    1    2    0    0  0.21550051224E+02 -0.72663843930E+02 -0.89057063328E+02  0.11694271867E+03  0.00000000000E+00 0. -1.
         11    1    1    2    0    0 -0.22190106829E+02 -0.76366865569E+02 -0.29171670793E+03  0.30236226068E+03  0.00000000000E+00 0.  1.
</event>
<event>
 6    1  0.6597032E-006  0.9433753E+02  0.7561462E-02  0.1292675E+00
          1   -1    0    0  501    0  0.00000000000E+00  0.00000000000E+00  0.83472263456E+02  0.83472263456E+02  0.00000000000E+00 0. -1.
         -1   -1    0    0    0  501 -0.00000000000E+00 -0.00000000000E+00 -0.41290153534E+03  0.41290153534E+03  0.00000000000E+00 0.  1.
          5    1    1    2  502    0  0.77088614298E+02  0.93720948062E+00 -0.23388492452E+03  0.24629893044E+03  0.41800000000E+01 0.  1.
         -5    1    1    2    0  502 -0.46159914545E+02 -0.27161602242E+02 -0.13296939923E+03  0.14341137988E+03  0.41800000000E+01 0.  1.
        -11    1    1    2    0    0 -0.23841476334E+01 -0.10763777905E+02 -0.25795169017E+02  0.28052340711E+02  0.00000000000E+00 0.  1.
         11    1    1    2    0    0 -0.28544552120E+02  0.36988170667E+02  0.63220220885E+02  0.78611147770E+02  0.00000000000E+00 0. -1.
</event>
<event>
 6    1  0.6597032E-006  0.9678294E+02  0.7561462E-02  0.1287210E+00
         -1   -1    0    0    0  501 -0.00000000000E+00  0.00000000000E+00  0.21642632536E+03  0.21642632536E+03  0.00000000000E+00 0.  1.
          1   -1    0    0  501    0  0.00000000000E+00 -0.00000000000E+00 -0.17198114537E+03  0.17198114537E+03  0.00000000000E+00 0. -1.
          5    1    1    2  502    0 -0.44437953035E+02 -0.76997561470E+02  0.17303008010E+03  0.19457707255E+03  0.41800000000E+01 0.  1.
         -5    1    1    2    0  502 -0.10488100357E+02  0.18387647966E+01 -0.20547158171E+02  0.23516790044E+02  0.41800000000E+01 0.  1.
        -11    1    1    2    0    0  0.36781465672E+02  0.52416503795E+02 -0.61214606743E+01  0.64326031806E+02  0.00000000000E+00 0.  1.
         11    1    1    2    0    0  0.18144587720E+02  0.22742292879E+02 -0.10191628126E+03  0.10598757633E+03  0.00000000000E+00 0. -1.
</event>
<event>
 6    1  0.6597032E-006  0.1211442E+03  0.7561462E-02  0.1241221E+00
          2   -1    0    0  501    0  0.00000000000E+00  0.00000000000E+00  0.66081084117E+03  0.66081084117E+03  0.00000000000E+00 0. -1.
         -2   -1    0    0    0  501 -0.00000000000E+00 -0.00000000000E+00 -0.27700271024E+02  0.27700271024E+02  0.00000000000E+00 0.  1.
          5    1    1    2  502    0  0.70840005734E+02 -0.10606734422E+01  0.14208093667E+03  0.15882032743E+03  0.41800000000E+01 0. -1.
         -5    1    1    2    0  502 -0.36014653205E+02  0.59191571173E+02  0.94730551425E+02  0.11743954665E+03  0.41800000000E+01 0. -1.
        -11    1    1    2    0    0 -0.59224468465E+02 -0.43095344399E+02  0.35163829147E+03  0.35918551530E+03  0.00000000000E+00 0. -1.
         11    1    1    2    0    0  0.24399115936E+02 -0.15035553331E+02  0.44660790586E+02  0.53065722818E+02  0.00000000000E+00 0.  1.
</event>
<event>
 6    1  0.6597032E-006  0.9548043E+02  0.7561462E-02  0.1290098E+00
          1   -1    0    0  501    0  0.00000000000E+00  0.00000000000E+00  0.39526897082E+02  0.39526897082E+02  0.00000000000E+00 0. -1.
         -1   -1    0    0    0  501 -0.00000000000E+00 -0.00000000000E+00 -0.60549543204E+03  0.60549543204E+03  0.00000000000E+00 0.  1.
          5    1    1    2  502    0  0.38041423587E+01  0.12130812697E+02  0.86564359071E+00  0.13410811109E+02  0.41800000000E+01 0. -1.
         -5    1    1    2    0  502  0.41955900922E+02 -0.60132997110E+02 -0.48995459120E+03  0.49542834881E+03  0.41800000000E+01 0.  1.
        -11    1    1    2    0    0  0.14628564931E+02 -0.12063820842E+02 -0.38179893661E+02  0.42629038990E+02  0.00000000000E+00 0.  1.
         11    1    1    2    0    0 -0.60388608211E+02  0.60066005254E+02 -0.38699693685E+02  0.93554130215E+02  0.00000000000E+00 0. -1.
</event>
<event>
 6    1  0.6597032E-006  0.1138361E+03  0.7561462E-02  0.1253626E+00
          2   -1    0    0  501    0  0.00000000000E+00  0.00000000000E+00  0.49748069610E+02  0.49748069610E+02  0.00000000000E+00 0. -1.
         -2   -1    0    0    0  501 -0.00000000000E+00 -0.00000000000E+00 -0.28958762427E+03  0.28958762427E+03  0.00000000000E+00 0.  1.
          5    1    1    2  502    0  0.37372978487E+02 -0.56439869195E+02 -0.80786822815E+02  0.10548071623E+03  0.41800000000E+01 0.  1.
         -5    1    1    2    0  502 -0.48593517598E+02  0.32382369265E+02 -0.10178714128E+03  0.11742249496E+03  0.41800000000E+01 0.  1.
        -11    1    1    2    0    0  0.26857125494E+02  0.58010896684E+02 -0.38200245809E+02  0.74470316931E+02  0.00000000000E+00 0.  1.
         11    1    1    2    0    0 -0.15636586383E+02 -0.33953396753E+02 -0.19065344754E+02  0.41962165762E+02  0.00000000000E+00 0. -1.
</event>
<event>
 6    1  0.6597032E-006  0.1676588E+03  0.7561462E-02  0.1180312E+00
         -1   -1    0    0    0  501 -0.00000000000E+00  0.00000000000E+00  0.27285668720E+02  0.27285668720E+02  0.00000000000E+00 0.  1.
          1   -1    0    0  501    0  0.00000000000E+00 -0.00000000000E+00 -0.12517084655E+04  0.12517084655E+04  0.00000000000E+00 0. -1.
          5    1    1    2  502    0 -0.12029883911E+03  0.23561219105E+02 -0.30234336940E+03  0.32627584520E+03  0.41800000000E+01 0. -1.
         -5    1    1    2    0  502 -0.26317370405E+02 -0.53562815396E+02 -0.33306812420E+03  0.33839832584E+03  0.41800000000E+01 0. -1.
        -11    1    1    2    0    0  0.96406078250E+02  0.44739418958E+01 -0.49817427878E+03  0.50743645920E+03  0.00000000000E+00 0. -1.
         11    1    1    2    0    0  0.50210131269E+02  0.25527654396E+02 -0.90837024365E+02  0.10688350395E+03  0.00000000000E+00 0.  1.
</event>
<event>
 6    1  0.6597032E-006  0.1485145E+03  0.7561462E-02  0.1202310E+00
         -2   -1    0    0    0  501 -0.00000000000E+00  0.00000000000E+00  0.32117844172E+03  0.32117844172E+03  0.00000000000E+00 0. -1.
          2   -1    0    0  501    0  0.00000000000E+00 -0.00000000000E+00 -0.93535095196E+02  0.93535095196E+02  0.00000000000E+00 0.  1.
          5    1    1    2  502    0 -0.68200185559E+02 -0.11086072944E+03  0.11938715284E+03  0.17666955398E+03  0.41800000000E+01 0. -1.
         -5    1    1    2    0  502  0.13974011799E+02 -0.10496041126E+02 -0.23441283738E+02  0.29536520925E+02  0.41800000000E+01 0. -1.
        -11    1    1    2    0    0  0.22957300453E+01  0.85950421626E+02  0.11479066469E+03  0.14342120504E+03  0.00000000000E+00 0. -1.
         11    1    1    2    0    0  0.51930443714E+02  0.35406348940E+02  0.16906812733E+02  0.65086256970E+02  0.00000000000E+00 0.  1.
</event>
<event>
 6    1  0.6597032E-006  0.1610179E+03  0.7561462E-02  0.1187552E+00
          2   -1    0    0  501    0  0.00000000000E+00  0.00000000000E+00  0.47377775729E+03  0.47377775729E+03  0.00000000000E+00 0. -1.
         -2   -1    0    0    0  501 -0.00000000000E+00 -0.00000000000E+00 -0.21422798981E+03  0.21422798981E+03  0.00000000000E+00 0.  1.
          5    1    1    2  502    0 -0.97211713064E+02  0.47912058993E+02 -0.16495455043E+03  0.19741620668E+03  0.41800000000E+01 0.  1.
         -5    1    1    2    0  502 -0.36956758303E+02  0.23788698914E+02  0.18652420778E+02  0.47927960328E+02  0.41800000000E+01 0.  1.
        -11    1    1    2    0    0  0.49887883078E+02  0.11286350648E+02  0.18727250972E+03  0.19413185077E+03  0.00000000000E+00 0. -1.
         11    1    1    2    0    0  0.84280588289E+02 -0.82987108555E+02  0.21857938742E+03  0.24852972931E+03  0.00000000000E+00 0.  1.
</event>
<event>
 6    1  0.6597032E-006  0.9708851E+02  0.7561462E-02  0.1286540E+00
         -1   -1    0    0    0  501 -0.00000000000E+00  0.00000000000E+00  0.62260303895E+02  0.62260303895E+02  0.00000000000E+00 0.  1.
          1   -1    0    0  501    0  0.00000000000E+00 -0.00000000000E+00 -0.21023087066E+03  0.21023087066E+03  0.00000000000E+00 0. -1.
          5    1    1    2  502    0  0.47404890700E+02  0.18043903018E+02  0.16978127691E+02  0.53651983359E+02  0.41800000000E+01 0. -1.
         -5    1    1    2    0  502 -0.45646257914E+02 -0.26257991253E+02 -0.57559928771E+02  0.78126056897E+02  0.41800000000E+01 0. -1.
        -11    1    1    2    0    0 -0.45049002778E+02 -0.46682967525E+01 -0.46615760957E+02  0.64994113698E+02  0.00000000000E+00 0.  1.
         11    1    1    2    0    0  0.43290369992E+02  0.12882384987E+02 -0.60773004726E+02  0.75719020598E+02  0.00000000000E+00 0. -1.
</event>
<event>
 6    1  0.6597032E-006  0.7875193E+02  0.7561462E-02  0.1332631E+00
          4   -1    0    0  501    0  0.00000000000E+00  0.00000000000E+00  0.21455780095E+03  0.21455780095E+03  0.00000000000E+00 0. -1.
         -4   -1    0    0    0  501 -0.00000000000E+00 -0.00000000000E+00 -0.58895589412E+02  0.58895589412E+02  0.00000000000E+00 0.  1.
          5    1    1    2  502    0  0.59106285156E+02  0.23047302015E+02  0.71594942649E+02  0.95749878789E+02  0.41800000000E+01 0.  1.
         -5    1    1    2    0  502 -0.37628327645E+02 -0.24047487800E+02 -0.90321543176E+01  0.45751775074E+02  0.41800000000E+01 0.  1.
        -11    1    1    2    0    0 -0.14091798677E+02 -0.21324138239E+02 -0.90623755419E+01  0.27118707787E+02  0.00000000000E+00 0.  1.
         11    1    1    2    0    0 -0.73861588349E+01  0.22324324023E+02  0.10216179875E+03  0.10483302871E+03  0.00000000000E+00 0. -1.
</event>
<event>
 6    1  0.6597032E-006  0.1687507E+03  0.7561462E-02  0.1179157E+00
         -1   -1    0    0    0  501 -0.00000000000E+00  0.00000000000E+00  0.98672254006E+02  0.98672254006E+02  0.00000000000E+00 0.  1.
          1   -1    0    0  501    0  0.00000000000E+00 -0.00000000000E+00 -0.28962006025E+03  0.28962006025E+03  0.00000000000E+00 0. -1.
          5    1    1    2  502    0  0.11093708356E+03 -0.87769880085E+02 -0.75354069201E+02  0.16033183247E+03  0.41800000000E+01 0. -1.
         -5    1    1    2    0  502  0.28967449663E+01  0.35207947512E+02 -0.17596145712E+02  0.39687371333E+02  0.41800000000E+01 0. -1.
        -11    1    1    2    0    0  0.18808240480E+02  0.84865002924E+01 -0.85913599139E+01  0.22351332451E+02  0.00000000000E+00 0.  1.
         11    1    1    2    0    0 -0.13264206900E+03  0.44075432280E+02 -0.89406231421E+02  0.16592177801E+03  0.00000000000E+00 0. -1.
</event>
<event>
 6    1  0.6597032E-006  0.8340419E+02  0.7561462E-02  0.1319659E+00
         -2   -1    0    0    0  501 -0.00000000000E+00  0.00000000000E+00  0.60847546905E+02  0.60847546905E+02  0.00000000000E+00 0.  1.
          2   -1    0    0  501    0  0.00000000000E+00 -0.00000000000E+00 -0.20449152253E+03  0.20449152253E+03  0.00000000000E+00 0. -1.
          5    1    1    2  502    0  0.97263704956E+01  0.51515215958E+02 -0.88282798155E+02  0.10276061798E+03  0.41800000000E+01 0.  1.
         -5    1    1    2    0  502  0.91778969095E+01 -0.38353713026E+02  0.16882928135E+02  0.43101586478E+02  0.41800000000E+01 0.  1.
        -11    1    1    2    0    0 -0.27274258276E+02 -0.38891551515E+02 -0.78455979844E+02  0.91715749558E+02  0.00000000000E+00 0. -1.
         11    1    1    2    0    0  0.83699908707E+01  0.25730048583E+02  0.62118742436E+01  0.27761115411E+02  0.00000000000E+00 0.  1.
</event>
<event>
 6    1  0.6597032E-006  0.8731278E+02  0.7561462E-02  0.1309493E+00
          1   -1    0    0  501    0  0.00000000000E+00  0.00000000000E+00  0.22169147469E+03  0.22169147469E+03  0.00000000000E+00 0. -1.
         -1   -1    0    0    0  501 -0.00000000000E+00 -0.00000000000E+00 -0.11448282960E+03  0.11448282960E+03  0.00000000000E+00 0.  1.
          5    1    1    2  502    0 -0.40820158275E+02  0.11431450030E+02 -0.34986453563E+01  0.42739633722E+02  0.41800000000E+01 0. -1.
         -5    1    1    2    0  502  0.67642582653E+02 -0.83943318415E+01 -0.65636807177E+02  0.94718776658E+02  0.41800000000E+01 0.  1.
        -11    1    1    2    0    0 -0.17956687720E+02  0.26997601991E+02  0.17561018508E+02  0.36874144304E+02  0.00000000000E+00 0.  1.
         11    1    1    2    0    0 -0.88657366582E+01 -0.30034720179E+02  0.15878307911E+03  0.16184174960E+03  0.00000000000E+00 0. -1.
</event>
<event>
 6    1  0.6597032E-006  0.1598790E+03  0.7561462E-02  0.1188833E+00
         -1   -1    0    0    0  501 -0.00000000000E+00  0.00000000000E+00  0.88964890357E+02  0.88964890357E+02  0.00000000000E+00 0.  1.
          1   -1    0    0  501    0  0.00000000000E+00 -0.00000000000E+00 -0.41399010053E+03  0.41399010053E+03  0.00000000000E+00 0. -1.
          5    1    1    2  502    0  0.33747754782E+02  0.44630955549E+01  0.24707434133E+01  0.34386147615E+02  0.41800000000E+01 0. -1.
         -5    1    1    2    0  502 -0.96158704721E+02  0.98338141112E+02 -0.37854528435E+02  0.14271413460E+03  0.41800000000E+01 0. -1.
        -11    1    1    2    0    0 -0.21196198496E+02 -0.31550720113E+02 -0.56036939889E+02  0.67711634173E+02  0.00000000000E+00 0.  1.
         11    1    1    2    0    0  0.83607148435E+02 -0.71250516553E+02 -0.23360448526E+03  0.25814307450E+03  0.00000000000E+00 0. -1.
</event>
<event>
 6    1  0.6597032E-006  0.9719053E+02  0.7561462E-02  0.1286317E+00
         -2   -1    0    0    0  501 -0.00000000000E+00  0.00000000000E+00  0.23069694944E+02  0.23069694944E+02  0.00000000000E+00 0.  1.
          2   -1    0    0  501    0  0.00000000000E+00 -0.00000000000E+00 -0.68621429851E+03  0.68621429851E+03  0.00000000000E+00 0. -1.
          5    1    1    2  502    0  0.20008781375E+02 -0.13794515946E+02 -0.55541065657E+01  0.25277668050E+02  0.41800000000E+01 0.  1.
         -5    1    1    2    0  502 -0.76784273244E+02  0.82195166597E+00 -0.30509738353E+03  0.31464008972E+03  0.41800000000E+01 0.  1.
        -11    1    1    2    0    0  0.15215383347E+02  0.40301667069E+02 -0.67569291473E+02  0.80133272796E+02  0.00000000000E+00 0.  1.
         11    1    1    2    0    0  0.41560108523E+02 -0.27329102789E+02 -0.28492382200E+03  0.28923296289E+03  0.00000000000E+00 0. -1.
</event>
<event>
 6    1  0.6597032E-006  0.5372191E+02  0.7561462E-02  0.1426242E+00
          2   -1    0    0  501    0  0.00000000000E+00  0.00000000000E+00  0.31599623313E+03  0.31599623313E+03  0.00000000000E+00 0. -1.
         -2   -1    0    0    0  501 -0.00000000000E+00 -0.00000000000E+00 -0.27818648327E+02  0.27818648327E+02  0.00000000000E+00 0.  1.
          5    1    1    2  502    0 -0.14665676193E+02 -0.19618260502E+02  0.12848658036E+03  0.13086723018E+03  0.41800000000E+01 0. -1.
         -5    1    1    2    0  502  0.41892489589E+02  0.26887563665E+02  0.56027214943E-01  0.49953951824E+02  0.41800000000E+01 0.  1.
        -11    1    1    2    0    0 -0.70576451342E+01 -0.10051275689E+02  0.50173384828E+02  0.51654690425E+02  0.00000000000E+00 0.  1.
         11    1    1    2    0    0 -0.20169168262E+02  0.27819725264E+01  0.10946159240E+03  0.11133900903E+03  0.00000000000E+00 0. -1.
</event>
<event>
 6    1  0.6597032E-006  0.9772164E+02  0.7561462E-02  0.1285161E+00
          2   -1    0    0  501    0  0.00000000000E+00  0.00000000000E+00  0.14926806752E+03  0.14926806752E+03  0.00000000000E+00 0. -1.
         -2   -1    0    0    0  501 -0.00000000000E+00 -0.00000000000E+00 -0.11935103045E+03  0.11935103045E+03  0.00000000000E+00 0.  1.
          5    1    1    2  502    0 -0.84852383580E+01 -0.14609771771E+01  0.57112716363E+02  0.57909139992E+02  0.41800000000E+01 0. -1.
         -5    1    1    2    0  502 -0.24245409120E+02 -0.69667215805E+02 -0.51010326855E+02  0.89782440752E+02  0.41800000000E+01 0. -1.
        -11    1    1    2    0    0  0.56829203567E+02  0.29853249417E+02  0.33122143695E+02  0.72234695831E+02  0.00000000000E+00 0.  1.
         11    1    1    2    0    0 -0.24098556089E+02  0.41274943566E+02 -0.93074961311E+01  0.48692821403E+02  0.00000000000E+00 0. -1.
</event>
<event>
 6    1  0.8408069E-006  0.3024939E+03  0.7561462E-02  0.1084001E+00
         -2   -1    0    0    0  501 -0.00000000000E+00  0.00000000000E+00  0.10720633698E+03  0.10720633698E+03  0.00000000000E+00 0.  1.
          2   -1    0    0  501    0  0.00000000000E+00 -0.00000000000E+00 -0.93363201418E+03  0.93363201418E+03  0.00000000000E+00 0. -1.
          5    1    1    2  502    0 -0.69685010616E+02 -0.59417108852E+02 -0.46006796820E+02  0.10256944615E+03  0.41800000000E+01 0.  1.
         -5    1    1    2    0  502 -0.19184950529E+03 -0.80104121486E+02 -0.35660233274E+03  0.41280213066E+03  0.41800000000E+01 0.  1.
        -11    1    1    2    0    0  0.14138481834E+03  0.33887132218E+02 -0.15401057938E+03  0.21179533316E+03  0.00000000000E+00 0. -1.
         11    1    1    2    0    0  0.12014969757E+03  0.10563409812E+03 -0.26980596826E+03  0.31367144119E+03  0.00000000000E+00 0.  1.
</event>
<event>
 6    1  0.6597032E-006  0.1092316E+03  0.7561462E-02  0.1262000E+00
         -2   -1    0    0    0  501 -0.00000000000E+00  0.00000000000E+00  0.20340378903E+02  0.20340378903E+02  0.00000000000E+00 0. -1.
          2   -1    0    0  501    0  0.00000000000E+00 -0.00000000000E+00 -0.95558790732E+03  0.95558790732E+03  0.00000000000E+00 0.  1.
          5    1    1    2  502    0  0.10661172261E+01  0.29211398740E+01  0.69910295853E+01  0.87187475457E+01  0.41800000000E+01 0. -1.
         -5    1    1    2    0  502 -0.84626291186E+02  0.19960069549E+02 -0.49058777289E+03  0.49825078911E+03  0.41800000000E+01 0. -1.
        -11    1    1    2    0    0  0.80090786449E+02 -0.52901204660E+02 -0.34743190667E+03  0.36044694658E+03  0.00000000000E+00 0.  1.
         11    1    1    2    0    0  0.34693875105E+01  0.30019995236E+02 -0.10421887844E+03  0.10851180299E+03  0.00000000000E+00 0. -1.
</event>
<event>
 6    1  0.6597032E-006  0.1072255E+03  0.7561462E-02  0.1265796E+00
          1   -1    0    0  501    0  0.00000000000E+00  0.00000000000E+00  0.30722049646E+03  0.30722049646E+03  0.00000000000E+00 0. -1.
         -1   -1    0    0    0  501 -0.00000000000E+00 -0.00000000000E+00 -0.88893596240E+02  0.88893596240E+02  0.00000000000E+00 0.  1.
          5    1    1    2  502    0 -0.23346888977E+02 -0.55351157358E+02  0.12843793792E+02  0.61573235133E+02  0.41800000000E+01 0. -1.
         -5    1    1    2    0  502  0.48757308061E+02  0.44574643824E+02 -0.34620115876E+02  0.74700728140E+02  0.41800000000E+01 0.  1.
        -11    1    1    2    0    0  0.13579192201E+02  0.38086847967E+02  0.52358403830E+02  0.66154401974E+02  0.00000000000E+00 0.  1.
         11    1    1    2    0    0 -0.38989611285E+02 -0.27310334433E+02  0.18774481848E+03  0.19368572746E+03  0.00000000000E+00 0. -1.
</event>
<event>
 6    1  0.6597032E-006  0.2202182E+03  0.7561462E-02  0.1133720E+00
          1   -1    0    0  501    0  0.00000000000E+00  0.00000000000E+00  0.55161242126E+03  0.55161242126E+03  0.00000000000E+00 0. -1.
         -1   -1    0    0    0  501 -0.00000000000E+00 -0.00000000000E+00 -0.96323342976E+02  0.96323342976E+02  0.00000000000E+00 0.  1.
          5    1    1    2  502    0 -0.82960140963E+02 -0.73175140949E+02  0.92162958956E+02  0.14404329087E+03  0.41800000000E+01 0. -1.
         -5    1    1    2    0  502 -0.11758635652E+03  0.47430087638E+02  0.11956668694E+03  0.17432678933E+03  0.41800000000E+01 0. -1.
        -11    1    1    2    0    0  0.83813117674E+02  0.19048633268E+02  0.17253722263E+03  0.19276042725E+03  0.00000000000E+00 0. -1.
         11    1    1    2    0    0  0.11673337981E+03  0.66964200420E+01  0.71022209760E+02  0.13680525678E+03  0.00000000000E+00 0.  1.
</event>
<event>
 6    1  0.6597032E-006  0.1158594E+03  0.7561462E-02  0.1250088E+00
          2   -1    0    0  501    0  0.00000000000E+00  0.00000000000E+00  0.93765533708E+02  0.93765533708E+02  0.00000000000E+00 0. -1.
         -2   -1    0    0    0  501 -0.00000000000E+00 -0.00000000000E+00 -0.21510699318E+03  0.21510699318E+03  0.00000000000E+00 0.  1.
          5    1    1    2  502    0  0.55848097175E+02  0.15012026614E+02 -0.11087790618E+03  0.12512295305E+03  0.41800000000E+01 0. -1.
         -5    1    1    2    0  502 -0.19294630294E+02 -0.60919688590E+02 -0.25249116254E+02  0.68836628968E+02  0.41800000000E+01 0. -1.
        -11    1    1    2    0    0 -0.50492416930E+02 -0.10518401118E+02 -0.85516732172E+01  0.52280513046E+02  0.00000000000E+00 0.  1.
         11    1    1    2    0    0  0.13938950049E+02  0.56426063094E+02  0.23337236172E+02  0.62632431830E+02  0.00000000000E+00 0. -1.
</event>
<event>
 6    1  0.6597032E-006  0.1334077E+03  0.7561462E-02  0.1222485E+00
         -1   -1    0    0    0  501 -0.00000000000E+00  0.00000000000E+00  0.15948168930E+03  0.15948168930E+03  0.00000000000E+00 0.  1.
          1   -1    0    0  501    0  0.00000000000E+00 -0.00000000000E+00 -0.15685214436E+03  0.15685214436E+03  0.00000000000E+00 0. -1.
          5    1    1    2  502    0 -0.53241011102E+01 -0.57743236307E+02  0.39360542257E+02  0.70209344667E+02  0.41800000000E+01 0. -1.
         -5    1    1    2    0  502  0.96725644568E+02  0.16646124806E+02  0.17050656084E+02  0.99705270979E+02  0.41800000000E+01 0. -1.
        -11    1    1    2    0    0 -0.59627588973E+01  0.22132932227E+02  0.21162612141E+02  0.31197393084E+02  0.00000000000E+00 0.  1.
         11    1    1    2    0    0 -0.85438784560E+02  0.18964179274E+02 -0.74944265537E+02  0.11522182493E+03  0.00000000000E+00 0. -1.
</event>
<event>
 6    1  0.6597032E-006  0.1034410E+03  0.7561462E-02  0.1273222E+00
          1   -1    0    0  501    0  0.00000000000E+00  0.00000000000E+00  0.22762462862E+03  0.22762462862E+03  0.00000000000E+00 0. -1.
         -1   -1    0    0    0  501 -0.00000000000E+00 -0.00000000000E+00 -0.10164726686E+03  0.10164726686E+03  0.00000000000E+00 0.  1.
          5    1    1    2  502    0 -0.57212092056E+02 -0.59780798734E+02 -0.56552352345E+02  0.10031255320E+03  0.41800000000E+01 0. -1.
         -5    1    1    2    0  502  0.50816655013E+01  0.22988569211E+01  0.46704553826E+02  0.47221772685E+02  0.41800000000E+01 0. -1.
        -11    1    1    2    0    0  0.41467354494E+01  0.67843798521E+02  0.10021925285E+03  0.12109448813E+03  0.00000000000E+00 0. -1.
         11    1    1    2    0    0  0.47983691105E+02 -0.10361856708E+02  0.35605907425E+02  0.60643081469E+02  0.00000000000E+00 0.  1.
</event>
<event>
 6    1  0.6597032E-006  0.1245433E+03  0.7561462E-02  0.1235785E+00
          1   -1    0    0  501    0  0.00000000000E+00  0.00000000000E+00  0.51615347226E+03  0.51615347226E+03  0.00000000000E+00 0. -1.
         -1   -1    0    0    0  501 -0.00000000000E+00 -0.00000000000E+00 -0.36965161348E+02  0.36965161348E+02  0.00000000000E+00 0.  1.
          5    1    1    2  502    0 -0.24575750215E+02  0.49165224621E+02  0.96588305616E+02  0.11121133032E+03  0.41800000000E+01 0. -1.
         -5    1    1    2    0  502  0.87357426040E+02 -0.54164816013E+01  0.83631079108E+02  0.12112922005E+03  0.41800000000E+01 0. -1.
        -11    1    1    2    0    0 -0.64857298416E+02 -0.23635418961E+01  0.24057727162E+03  0.24917760556E+03  0.00000000000E+00 0. -1.
         11    1    1    2    0    0  0.20756225920E+01 -0.41385201124E+02  0.58391654564E+02  0.71600477679E+02  0.00000000000E+00 0.  1.
</event>
<event>
 6    1  0.6597032E-006  0.1635923E+03  0.7561462E-02  0.1184700E+00
         -1   -1    0    0    0  501 -0.00000000000E+00  0.00000000000E+00  0.53178682865E+02  0.53178682865E+02  0.00000000000E+00 0.  1.
          1   -1    0    0  501    0  0.00000000000E+00 -0.00000000000E+00 -0.56243604336E+03  0.56243604336E+03  0.00000000000E+00 0. -1.
          5    1    1    2  502    0 -0.20906181990E+02 -0.23639888059E+02 -0.19197285802E+02  0.37174197167E+02  0.41800000000E+01 0. -1.
         -5    1    1    2    0  502 -0.20507092317E+02  0.14085411133E+03 -0.16180607865E+03  0.21554373339E+03  0.41800000000E+01 0. -1.
        -11    1    1    2    0    0  0.49889207405E+02 -0.17489187695E+02 -0.88442884604E+02  0.10303857792E+03  0.00000000000E+00 0. -1.
         11    1    1    2    0    0 -0.84759330981E+01 -0.99725035580E+02 -0.23981111144E+03  0.25985821775E+03  0.00000000000E+00 0.  1.
</event>
<event>
 6    1  0.6597032E-006  0.1075245E+03  0.7561462E-02  0.1265224E+00
          1   -1    0    0  501    0  0.00000000000E+00  0.00000000000E+00  0.52244027617E+03  0.52244027617E+03  0.00000000000E+00 0. -1.
         -1   -1    0    0    0  501 -0.00000000000E+00 -0.00000000000E+00 -0.22517724341E+02  0.22517724341E+02  0.00000000000E+00 0.  1.
          5    1    1    2  502    0  0.53469941171E+02  0.33277526569E+02  0.16633601285E+03  0.17790888105E+03  0.41800000000E+01 0. -1.
         -5    1    1    2    0  502 -0.57904447359E+02 -0.19275694077E+02  0.11257668319E+03  0.12812282936E+03  0.41800000000E+01 0. -1.
        -11    1    1    2    0    0  0.30041281794E+02  0.28325350703E+02  0.10287040722E+03  0.11084730392E+03  0.00000000000E+00 0.  1.
         11    1    1    2    0    0 -0.25606775605E+02 -0.42327183195E+02  0.11813944857E+03  0.12807898618E+03  0.00000000000E+00 0. -1.
</event>
<event>
 6    1  0.6597032E-006  0.1626035E+03  0.7561462E-02  0.1185788E+00
         -1   -1    0    0    0  501 -0.00000000000E+00  0.00000000000E+00  0.31248697267E+03  0.31248697267E+03  0.00000000000E+00 0.  1.
          1   -1    0    0  501    0  0.00000000000E+00 -0.00000000000E+00 -0.11336218354E+03  0.11336218354E+03  0.00000000000E+00 0. -1.
          5    1    1    2  502    0  0.11512444249E+03 -0.23001421338E+02  0.17453913198E+03  0.21039031260E+03  0.41800000000E+01 0. -1.
         -5    1    1    2    0  502  0.28111779624E+02  0.34210110933E+02 -0.48283825274E+01  0.44736892175E+02  0.41800000000E+01 0. -1.
        -11    1    1    2    0    0 -0.15219041252E+03 -0.16124994902E+02  0.37644083492E+02  0.15760397884E+03  0.00000000000E+00 0.  1.
         11    1    1    2    0    0  0.89541904121E+01  0.49163053079E+01 -0.82300438145E+01  0.13117972595E+02  0.00000000000E+00 0. -1.
</event>
<event>
 6    1  0.6597032E-006  0.1196419E+03  0.7561462E-02  0.1243689E+00
         -2   -1    0    0    0  501 -0.00000000000E+00  0.00000000000E+00  0.28873542945E+02  0.28873542945E+02  0.00000000000E+00 0.  1.
          2   -1    0    0  501    0  0.00000000000E+00 -0.00000000000E+00 -0.65898767278E+03  0.65898767278E+03  0.00000000000E+00 0. -1.
          5    1    1    2  502    0  0.15390563041E+02  0.16410373319E+02 -0.21358631418E+03  0.21480864924E+03  0.41800000000E+01 0.  1.
         -5    1    1    2    0  502 -0.99151115970E+02 -0.12682755774E+02 -0.16965027552E+03  0.19695300068E+03  0.41800000000E+01 0.  1.
        -11    1    1    2    0    0  0.46218842681E+01 -0.31988700962E+02 -0.32478353652E+02  0.45820107588E+02  0.00000000000E+00 0.  1.
         11    1    1    2    0    0  0.79138668661E+02  0.28261083417E+02 -0.21439918649E+03  0.23027945823E+03  0.00000000000E+00 0. -1.
</event>
<event>
 6    1  0.6597032E-006  0.1120699E+03  0.7561462E-02  0.1256784E+00
          2   -1    0    0  501    0  0.00000000000E+00  0.00000000000E+00  0.77051705707E+03  0.77051705707E+03  0.00000000000E+00 0. -1.
         -2   -1    0    0    0  501 -0.00000000000E+00 -0.00000000000E+00 -0.17690533476E+02  0.17690533476E+02  0.00000000000E+00 0.  1.
          5    1    1    2  502    0  0.44975561478E+02  0.40512901966E+02  0.20533173092E+03  0.21410905744E+03  0.41800000000E+01 0. -1.
         -5    1    1    2    0  502 -0.69380866850E+02 -0.61084593402E+01  0.17010179259E+03  0.18385622155E+03  0.41800000000E+01 0. -1.
        -11    1    1    2    0    0  0.48152531970E+02  0.42321836195E+01  0.25876282966E+03  0.26323901635E+03  0.00000000000E+00 0. -1.
         11    1    1    2    0    0 -0.23747226597E+02 -0.38636626245E+02  0.11863017043E+03  0.12700329521E+03  0.00000000000E+00 0.  1.
</event>
<event>
 6    1  0.6597032E-006  0.2145775E+03  0.7561462E-02  0.1137992E+00
         -3   -1    0    0    0  501 -0.00000000000E+00  0.00000000000E+00  0.34862709396E+03  0.34862709396E+03  0.00000000000E+00 0.  1.
          3   -1    0    0  501    0  0.00000000000E+00 -0.00000000000E+00 -0.21412108998E+03  0.21412108998E+03  0.00000000000E+00 0. -1.
          5    1    1    2  502    0 -0.19103568533E+02 -0.73284785934E+01  0.27556696929E+02  0.34575958047E+02  0.41800000000E+01 0. -1.
         -5    1    1    2    0  502  0.19916715109E+03 -0.56686258379E+02  0.20836825883E+03  0.29379531931E+03  0.41800000000E+01 0. -1.
        -11    1    1    2    0    0 -0.14475575054E+03  0.22238660178E+02 -0.10399028784E+03  0.17961838794E+03  0.00000000000E+00 0. -1.
         11    1    1    2    0    0 -0.35307832022E+02  0.41776076794E+02  0.25713360643E+01  0.54758518639E+02  0.00000000000E+00 0.  1.
</event>
<event>
 6    1  0.6597032E-006  0.1432754E+03  0.7561462E-02  0.1208988E+00
          2   -1    0    0  501    0  0.00000000000E+00  0.00000000000E+00  0.49457483701E+02  0.49457483701E+02  0.00000000000E+00 0. -1.
         -2   -1    0    0    0  501 -0.00000000000E+00 -0.00000000000E+00 -0.49237255722E+03  0.49237255722E+03  0.00000000000E+00 0.  1.
          5    1    1    2  502    0 -0.12913626532E+03  0.69848728229E+01 -0.22020120631E+03  0.25540361613E+03  0.41800000000E+01 0.  1.
         -5    1    1    2    0  502  0.19805211686E+02 -0.29783231021E+02 -0.36973512023E+02  0.51612016540E+02  0.41800000000E+01 0.  1.
        -11    1    1    2    0    0  0.64347873092E+02  0.36684236721E+02 -0.45607884815E+02  0.86985407699E+02  0.00000000000E+00 0. -1.
         11    1    1    2    0    0  0.44983180541E+02 -0.13885878522E+02 -0.14013247037E+03  0.14782900056E+03  0.00000000000E+00 0.  1.
</event>
<event>
 6    1  0.6597032E-006  0.1078040E+03  0.7561462E-02  0.1264691E+00
         -3   -1    0    0    0  501 -0.00000000000E+00  0.00000000000E+00  0.57503735418E+02  0.57503735418E+02  0.00000000000E+00 0.  1.
          3   -1    0    0  501    0  0.00000000000E+00 -0.00000000000E+00 -0.21206144900E+03  0.21206144900E+03  0.00000000000E+00 0. -1.
          5    1    1    2  502    0 -0.28279408524E+02 -0.42618311698E+02 -0.25943091037E+02  0.57502711337E+02  0.41800000000E+01 0. -1.
         -5    1    1    2    0  502  0.60058508342E+02  0.31107038425E+02 -0.30856203352E+02  0.74459720313E+02  0.41800000000E+01 0.  1.
        -11    1    1    2    0    0 -0.26102877291E+01 -0.38521758761E+02 -0.33740240861E+02  0.51275172876E+02  0.00000000000E+00 0.  1.
         11    1    1    2    0    0 -0.29168812088E+02  0.50033032035E+02 -0.64018178332E+02  0.86327579893E+02  0.00000000000E+00 0. -1.
</event>
<event>
 6    1  0.6597032E-006  0.8983331E+02  0.7561462E-02  0.1303256E+00
         -1   -1    0    0    0  501 -0.00000000000E+00  0.00000000000E+00  0.66943016856E+02  0.66943016856E+02  0.00000000000E+00 0.  1.
          1   -1    0    0  501    0  0.00000000000E+00 -0.00000000000E+00 -0.20540579381E+03  0.20540579381E+03  0.00000000000E+00 0. -1.
          5    1    1    2  502    0  0.61221116591E+02  0.30866934681E+02 -0.43758062630E+02  0.81443435698E+02  0.41800000000E+01 0.  1.
         -5    1    1    2    0  502 -0.29148199308E+02 -0.49931734820E+02 -0.60910931430E+01  0.58286958067E+02  0.41800000000E+01 0.  1.
        -11    1    1    2    0    0 -0.28824119727E+02 -0.45420714307E+01 -0.10144201585E+03  0.10555540190E+03  0.00000000000E+00 0. -1.
         11    1    1    2    0    0 -0.32487975562E+01  0.23606871570E+02  0.12828394671E+02  0.27063014997E+02  0.00000000000E+00 0.  1.
</event>
<event>
 6    1  0.6597032E-006  0.1091963E+03  0.7561462E-02  0.1262065E+00
         -1   -1    0    0    0  501 -0.00000000000E+00  0.00000000000E+00  0.17071164710E+03  0.17071164710E+03  0.00000000000E+00 0.  1.
          1   -1    0    0  501    0  0.00000000000E+00 -0.00000000000E+00 -0.91701579599E+02  0.91701579599E+02  0.00000000000E+00 0. -1.
          5    1    1    2  502    0  0.34113367329E+02  0.42553801134E+02  0.60029191683E+02  0.81212831964E+02  0.41800000000E+01 0.  1.
         -5    1    1    2    0  502  0.24540885045E+02 -0.50521758541E+02 -0.24874866189E+02  0.61570565149E+02  0.41800000000E+01 0.  1.
        -11    1    1    2    0    0 -0.69874674746E+02 -0.23691865565E+02  0.44258110142E+02  0.86038101898E+02  0.00000000000E+00 0.  1.
         11    1    1    2    0    0  0.11220422371E+02  0.31659822972E+02 -0.40236813752E+00  0.33591727686E+02  0.00000000000E+00 0. -1.
</event>
<event>
 6    1  0.6597032E-006  0.1510873E+03  0.7561462E-02  0.1199143E+00
          2   -1    0    0  501    0  0.00000000000E+00  0.00000000000E+00  0.13017172555E+03  0.13017172555E+03  0.00000000000E+00 0. -1.
         -2   -1    0    0    0  501 -0.00000000000E+00 -0.00000000000E+00 -0.27826969868E+03  0.27826969868E+03  0.00000000000E+00 0.  1.
          5    1    1    2  502    0 -0.55952458575E+02 -0.92366618116E+02 -0.70040328576E+02  0.12878427617E+03  0.41800000000E+01 0.  1.
         -5    1    1    2    0  502  0.48053393017E+02 -0.37449744185E+02 -0.11182198816E+03  0.12740973807E+03  0.41800000000E+01 0.  1.
        -11    1    1    2    0    0 -0.10157117039E+02  0.63405172568E+02  0.50179791478E+02  0.81494750799E+02  0.00000000000E+00 0.  1.
         11    1    1    2    0    0  0.18056182596E+02  0.66411189733E+02 -0.16415447874E+02  0.70752659176E+02  0.00000000000E+00 0. -1.
</event>
<event>
 6    1  0.6597032E-006  0.1231520E+03  0.7561462E-02  0.1237986E+00
          1   -1    0    0  501    0  0.00000000000E+00  0.00000000000E+00  0.35850896349E+03  0.35850896349E+03  0.00000000000E+00 0. -1.
         -1   -1    0    0    0  501 -0.00000000000E+00 -0.00000000000E+00 -0.47178406939E+02  0.47178406939E+02  0.00000000000E+00 0.  1.
          5    1    1    2  502    0  0.71341086308E+01 -0.10024148581E+03  0.10899517676E+03  0.14831275043E+03  0.41800000000E+01 0. -1.
         -5    1    1    2    0  502 -0.11383825417E+02  0.35057274691E+02  0.16754172835E+02  0.40703546495E+02  0.41800000000E+01 0. -1.
        -11    1    1    2    0    0  0.11825640519E+02 -0.19930774560E+02  0.21213720693E+02  0.31418203225E+02  0.00000000000E+00 0.  1.
         11    1    1    2    0    0 -0.75759237323E+01  0.85114985675E+02  0.16436748626E+03  0.18525287028E+03  0.00000000000E+00 0. -1.
</event>
<event>
 6    1  0.6597032E-006  0.9114827E+02  0.7561462E-02  0.1300095E+00
         -4   -1    0    0    0  501 -0.00000000000E+00  0.00000000000E+00  0.36597058351E+03  0.36597058351E+03  0.00000000000E+00 0.  1.
          4   -1    0    0  501    0  0.00000000000E+00 -0.00000000000E+00 -0.35900028552E+02  0.35900028552E+02  0.00000000000E+00 0. -1.
          5    1    1    2  502    0 -0.67741300110E+02  0.36159508248E+02  0.16705766844E+03  0.18390794100E+03  0.41800000000E+01 0.  1.
         -5    1    1    2    0  502  0.31641027376E+02 -0.30382522478E+02  0.33851388483E+02  0.55566547380E+02  0.41800000000E+01 0.  1.
        -11    1    1    2    0    0  0.41567132202E+02 -0.19973669836E+02  0.13751411558E+03  0.14504104919E+03  0.00000000000E+00 0.  1.
         11    1    1    2    0    0 -0.54668594681E+01  0.14196684066E+02 -0.83526175446E+01  0.17355074496E+02  0.00000000000E+00 0. -1.
</event>
<event>
 6    1  0.6597032E-006  0.1894661E+03  0.7561462E-02  0.1158944E+00
          2   -1    0    0  501    0  0.00000000000E+00  0.00000000000E+00  0.67542770742E+03  0.67542770742E+03  0.00000000000E+00 0. -1.
         -2   -1    0    0    0  501 -0.00000000000E+00 -0.00000000000E+00 -0.55104603323E+02  0.55104603323E+02  0.00000000000E+00 0.  1.
          5    1    1    2  502    0  0.83710109395E+02  0.15384334520E+02  0.11705145072E+03  0.14478458025E+03  0.41800000000E+01 0. -1.
         -5    1    1    2    0  502  0.56912748830E+02 -0.92309523841E+02  0.24477306873E+03  0.26775256627E+03  0.41800000000E+01 0.  1.
        -11    1    1    2    0    0 -0.15352933411E+03  0.62302076244E+02  0.23216923255E+03  0.28522860600E+03  0.00000000000E+00 0. -1.
         11    1    1    2    0    0  0.12906475881E+02  0.14623113077E+02  0.26329352102E+02  0.32766558224E+02  0.00000000000E+00 0.  1.
</event>
<event>
 6    1  0.6597032E-006  0.9286754E+02  0.7561462E-02  0.1296052E+00
         -3   -1    0    0    0  501 -0.00000000000E+00  0.00000000000E+00  0.73634345046E+03  0.73634345046E+03  0.00000000000E+00 0.  1.
          3   -1    0    0  501    0  0.00000000000E+00 -0.00000000000E+00 -0.20183511959E+02  0.20183511959E+02  0.00000000000E+00 0. -1.
          5    1    1    2  502    0  0.30070766093E+02 -0.20887047117E+02  0.36607960427E+03  0.36792970629E+03  0.41800000000E+01 0.  1.
         -5    1    1    2    0  502 -0.53165487513E+02 -0.34158666650E+02  0.10039781741E+03  0.11870373924E+03  0.41800000000E+01 0.  1.
        -11    1    1    2    0    0  0.43656810047E+02  0.44894925587E+02  0.23369393324E+03  0.24193868198E+03  0.00000000000E+00 0.  1.
         11    1    1    2    0    0 -0.20562088627E+02  0.10150788180E+02  0.15988583588E+02  0.27954834905E+02  0.00000000000E+00 0. -1.
</event>
<event>
 6    1  0.6597032E-006  0.9739054E+02  0.7561462E-02  0.1285881E+00
          4   -1    0    0  501    0  0.00000000000E+00  0.00000000000E+00  0.10691374756E+03  0.10691374756E+03  0.00000000000E+00 0.  1.
         -4   -1    0    0    0  501 -0.00000000000E+00 -0.00000000000E+00 -0.12017915599E+03  0.12017915599E+03  0.00000000000E+00 0. -1.
          5    1    1    2  502    0 -0.13795728305E+02 -0.35272055637E+02 -0.33814214913E+02  0.50944220070E+02  0.41800000000E+01 0.  1.
         -5    1    1    2    0  502  0.28421500732E+02  0.60845717434E+02  0.38785195390E+02  0.77664321379E+02  0.41800000000E+01 0.  1.
        -11    1    1    2    0    0 -0.83783643088E+01  0.31184188028E+02  0.11283060256E+02  0.34204649102E+02  0.00000000000E+00 0.  1.
         11    1    1    2    0    0 -0.62474081184E+01 -0.56757849825E+02 -0.29519449153E+02  0.64279712999E+02  0.00000000000E+00 0. -1.
</event>
<event>
 6    1  0.6597032E-006  0.5843308E+02  0.7561462E-02  0.1404528E+00
         -3   -1    0    0    0  501 -0.00000000000E+00  0.00000000000E+00  0.46131865460E+03  0.46131865460E+03  0.00000000000E+00 0.  1.
          3   -1    0    0  501    0  0.00000000000E+00 -0.00000000000E+00 -0.34058351640E+02  0.34058351640E+02  0.00000000000E+00 0. -1.
          5    1    1    2  502    0 -0.25099549546E+02 -0.24265340042E+01 -0.41011694539E+01  0.25887592503E+02  0.41800000000E+01 0.  1.
         -5    1    1    2    0  502 -0.23420062232E+02  0.22621648658E+02  0.27628273484E+03  0.27822627532E+03  0.41800000000E+01 0.  1.
        -11    1    1    2    0    0  0.27163384067E+02 -0.24627606136E+02  0.16374002299E+03  0.16779500453E+03  0.00000000000E+00 0.  1.
         11    1    1    2    0    0  0.21356227712E+02  0.44324914821E+01 -0.86612854232E+01  0.23468133884E+02  0.00000000000E+00 0. -1.
</event>
<event>
 6    1  0.6597032E-006  0.1515064E+03  0.7561462E-02  0.1198634E+00
          1   -1    0    0  501    0  0.00000000000E+00  0.00000000000E+00  0.86636306465E+03  0.86636306465E+03  0.00000000000E+00 0. -1.
         -1   -1    0    0    0  501 -0.00000000000E+00 -0.00000000000E+00 -0.33289005181E+02  0.33289005181E+02  0.00000000000E+00 0.  1.
          5    1    1    2  502    0  0.10921311604E+03  0.97147431114E+02  0.25207283318E+03  0.29141604917E+03  0.41800000000E+01 0.  1.
         -5    1    1    2    0  502 -0.24131547856E+02 -0.11698915300E+02  0.57426810853E+02  0.63517770945E+02  0.41800000000E+01 0.  1.
        -11    1    1    2    0    0 -0.20244694508E+02 -0.53822969875E+02  0.10267349746E+03  0.11768010377E+03  0.00000000000E+00 0.  1.
         11    1    1    2    0    0 -0.64836873672E+02 -0.31625545940E+02  0.42090091797E+03  0.42703814595E+03  0.00000000000E+00 0. -1.
</event>
<event>
 6    1  0.6597032E-006  0.9466263E+02  0.7561462E-02  0.1291938E+00
         -1   -1    0    0    0  501 -0.00000000000E+00  0.00000000000E+00  0.25318071535E+03  0.25318071535E+03  0.00000000000E+00 0.  1.
          1   -1    0    0  501    0  0.00000000000E+00 -0.00000000000E+00 -0.58082932605E+02  0.58082932605E+02  0.00000000000E+00 0. -1.
          5    1    1    2  502    0  0.12933340593E+02 -0.58740872633E+02  0.14885080019E+03  0.16059823951E+03  0.41800000000E+01 0. -1.
         -5    1    1    2    0  502 -0.33205579089E+02  0.30295508739E+02  0.13115512931E+02  0.47009758687E+02  0.41800000000E+01 0. -1.
        -11    1    1    2    0    0  0.21267922132E+02  0.54144027604E+02 -0.42002802171E+01  0.58322745056E+02  0.00000000000E+00 0. -1.
         11    1    1    2    0    0 -0.99568363597E+00 -0.25698663710E+02  0.37331749845E+02  0.45332904704E+02  0.00000000000E+00 0.  1.
</event>
<event>
 6    1  0.6597032E-006  0.8673822E+02  0.7561462E-02  0.1310949E+00
          1   -1    0    0  501    0  0.00000000000E+00  0.00000000000E+00  0.70978994439E+03  0.70978994439E+03  0.00000000000E+00 0. -1.
         -1   -1    0    0    0  501 -0.00000000000E+00 -0.00000000000E+00 -0.10948705826E+02  0.10948705826E+02  0.00000000000E+00 0.  1.
          5    1    1    2  502    0 -0.52508394588E+02 -0.49147381261E+02  0.24469515748E+03  0.25507996605E+03  0.41800000000E+01 0. -1.
         -5    1    1    2    0  502  0.56449264508E+02  0.10694498588E+02  0.26191037270E+03  0.26817048214E+03  0.41800000000E+01 0. -1.
        -11    1    1    2    0    0 -0.12482358952E+02  0.22213758997E+02  0.13499115791E+03  0.13737493617E+03  0.00000000000E+00 0.  1.
         11    1    1    2    0    0  0.85414890321E+01  0.16239123676E+02  0.57244550472E+02  0.60113265852E+02  0.00000000000E+00 0. -1.
</event>
<event>
 6    1  0.6597032E-006  0.1304378E+03  0.7561462E-02  0.1226808E+00
          1   -1    0    0  501    0  0.00000000000E+00  0.00000000000E+00  0.30674310033E+03  0.30674310033E+03  0.00000000000E+00 0. -1.
         -1   -1    0    0    0  501 -0.00000000000E+00 -0.00000000000E+00 -0.76432734865E+02  0.76432734865E+02  0.00000000000E+00 0.  1.
          5    1    1    2  502    0  0.13068779183E+02 -0.75863049198E+02 -0.61402489630E+01  0.77338026096E+02  0.41800000000E+01 0.  1.
         -5    1    1    2    0  502  0.51337139370E+02  0.34728989047E+02  0.37515610799E+02  0.72570641533E+02  0.41800000000E+01 0.  1.
        -11    1    1    2    0    0 -0.88039490850E+02  0.42949275869E+02  0.15539380549E+03  0.18369220732E+03  0.00000000000E+00 0.  1.
         11    1    1    2    0    0  0.23633572297E+02 -0.18152157174E+01  0.43541198147E+02  0.49574960249E+02  0.00000000000E+00 0. -1.
</event>
<event>
 6    1  0.6597032E-006  0.1377536E+03  0.7561462E-02  0.1216384E+00
         -1   -1    0    0    0  501 -0.00000000000E+00  0.00000000000E+00  0.16138239953E+03  0.16138239953E+03  0.00000000000E+00 0.  1.
          1   -1    0    0  501    0  0.00000000000E+00 -0.00000000000E+00 -0.14826605084E+03  0.14826605084E+03  0.00000000000E+00 0. -1.
          5    1    1    2  502    0  0.21433946812E+01 -0.28657182665E+02  0.87779288334E+01  0.30337315202E+02  0.41800000000E+01 0. -1.
         -5    1    1    2    0  502  0.12101286691E+02  0.13497171429E+03  0.24605780448E+02  0.13779231339E+03  0.41800000000E+01 0. -1.
        -11    1    1    2    0    0 -0.13064344024E+02 -0.16399026907E+02  0.31439423142E+02  0.37789449530E+02  0.00000000000E+00 0.  1.
         11    1    1    2    0    0 -0.11803373484E+01 -0.89915504715E+02 -0.51706783728E+02  0.10372937225E+03  0.00000000000E+00 0. -1.
</event>
<event>
 6    1  0.6597032E-006  0.1749748E+03  0.7561462E-02  0.1172757E+00
         -1   -1    0    0    0  501 -0.00000000000E+00  0.00000000000E+00  0.19658127614E+04  0.19658127614E+04  0.00000000000E+00 0.  1.
          1   -1    0    0  501    0  0.00000000000E+00 -0.00000000000E+00 -0.19017393351E+02  0.19017393351E+02  0.00000000000E+00 0. -1.
          5    1    1    2  502    0  0.66951665705E+02  0.20217196143E+02  0.55476464950E+03  0.55917130585E+03  0.41800000000E+01 0.  1.
         -5    1    1    2    0  502  0.54887694797E+02 -0.11176763727E+03  0.70351388952E+03  0.71446058598E+03  0.41800000000E+01 0.  1.
        -11    1    1    2    0    0 -0.29322424760E+02  0.39344050238E+02  0.82887722405E+02  0.96323067894E+02  0.00000000000E+00 0. -1.
         11    1    1    2    0    0 -0.92516935742E+02  0.52206390894E+02  0.60562910662E+03  0.61487519500E+03  0.00000000000E+00 0.  1.
</event>
<event>
 6    1  0.6597032E-006  0.1082620E+03  0.7561462E-02  0.1263823E+00
          2   -1    0    0  501    0  0.00000000000E+00  0.00000000000E+00  0.17611449827E+03  0.17611449827E+03  0.00000000000E+00 0. -1.
         -2   -1    0    0    0  501 -0.00000000000E+00 -0.00000000000E+00 -0.10387858287E+03  0.10387858287E+03  0.00000000000E+00 0.  1.
          5    1    1    2  502    0  0.92103442052E+01  0.42788673889E+02 -0.14850326206E+02  0.46408034240E+02  0.41800000000E+01 0.  1.
         -5    1    1    2    0  502  0.43244969778E+02 -0.85424440046E+02  0.62318542878E+01  0.96040464264E+02  0.41800000000E+01 0.  1.
        -11    1    1    2    0    0 -0.52903172168E+02  0.24026560441E+02  0.37493217625E+01  0.58224381884E+02  0.00000000000E+00 0.  1.
         11    1    1    2    0    0  0.44785818433E+00  0.18609205716E+02  0.77105065555E+02  0.79320200760E+02  0.00000000000E+00 0. -1.
</event>
<event>
 6    1  0.6597032E-006  0.8532791E+02  0.7561462E-02  0.1314577E+00
          1   -1    0    0  501    0  0.00000000000E+00  0.00000000000E+00  0.28493544971E+02  0.28493544971E+02  0.00000000000E+00 0. -1.
         -1   -1    0    0    0  501 -0.00000000000E+00 -0.00000000000E+00 -0.63707873523E+03  0.63707873523E+03  0.00000000000E+00 0.  1.
          5    1    1    2  502    0  0.37999250693E+02  0.61038054289E+02 -0.91565311239E+02  0.11649577566E+03  0.41800000000E+01 0. -1.
         -5    1    1    2    0  502  0.19238444943E+02 -0.11899469969E+02 -0.30944540801E+03  0.31029928792E+03  0.41800000000E+01 0. -1.
        -11    1    1    2    0    0 -0.28840986377E+02 -0.21203072999E+02 -0.19310754646E+03  0.19639729453E+03  0.00000000000E+00 0.  1.
         11    1    1    2    0    0 -0.28396709259E+02 -0.27935511321E+02 -0.14466924549E+02  0.42379922079E+02  0.00000000000E+00 0. -1.
</event>
<event>
 6    1  0.6597032E-006  0.5177549E+02  0.7561462E-02  0.1435994E+00
          2   -1    0    0  501    0  0.00000000000E+00  0.00000000000E+00  0.92310494346E+02  0.92310494346E+02  0.00000000000E+00 0. -1.
         -2   -1    0    0    0  501 -0.00000000000E+00 -0.00000000000E+00 -0.14892230688E+03  0.14892230688E+03  0.00000000000E+00 0.  1.
          5    1    1    2  502    0 -0.24137496261E+01  0.35175746286E+01  0.35273603722E+02  0.35775676626E+02  0.41800000000E+01 0. -1.
         -5    1    1    2    0  502 -0.29722241322E+01  0.15120817914E+02 -0.11013708678E+03  0.11128846991E+03  0.41800000000E+01 0. -1.
        -11    1    1    2    0    0 -0.61736595798E+01 -0.48863087913E+02  0.32292326320E+02  0.58894055491E+02  0.00000000000E+00 0. -1.
         11    1    1    2    0    0  0.11559633338E+02  0.30224695371E+02 -0.14040655791E+02  0.35274599193E+02  0.00000000000E+00 0.  1.
</event>
<event>
 6    1  0.6597032E-006  0.2623132E+03  0.7561462E-02  0.1105761E+00
         -1   -1    0    0    0  501 -0.00000000000E+00  0.00000000000E+00  0.23395109373E+03  0.23395109373E+03  0.00000000000E+00 0.  1.
          1   -1    0    0  501    0  0.00000000000E+00 -0.00000000000E+00 -0.12377073574E+04  0.12377073574E+04  0.00000000000E+00 0. -1.
          5    1    1    2  502    0 -0.11279306253E+03 -0.11160979669E+03  0.13168884696E+03  0.20624850663E+03  0.41800000000E+01 0. -1.
         -5    1    1    2    0  502 -0.98584776504E+02 -0.39258248969E+02 -0.99359455387E+01  0.10666003790E+03  0.41800000000E+01 0. -1.
        -11    1    1    2    0    0  0.10935491540E+03  0.77699535209E+02 -0.77292837306E+03  0.78448325998E+03  0.00000000000E+00 0. -1.
         11    1    1    2    0    0  0.10202292364E+03  0.73168510451E+02 -0.35258079201E+03  0.37426664661E+03  0.00000000000E+00 0.  1.
</event>
<event>
 6    1  0.6597032E-006  0.1755738E+03  0.7561462E-02  0.1172157E+00
         -3   -1    0    0    0  501 -0.00000000000E+00  0.00000000000E+00  0.11196354857E+03  0.11196354857E+03  0.00000000000E+00 0.  1.
          3   -1    0    0  501    0  0.00000000000E+00 -0.00000000000E+00 -0.32080861009E+03  0.32080861009E+03  0.00000000000E+00 0. -1.
          5    1    1    2  502    0 -0.13450114300E+03 -0.75947701101E+02 -0.10151748721E+03  0.18488343187E+03  0.41800000000E+01 0.  1.
         -5    1    1    2    0  502  0.25877969926E+02 -0.29375690489E+02 -0.46802239012E+02  0.61159811116E+02  0.41800000000E+01 0.  1.
        -11    1    1    2    0    0  0.46249691673E+02  0.17308149105E+02 -0.61470275386E+02  0.78849228032E+02  0.00000000000E+00 0. -1.
         11    1    1    2    0    0  0.62373481404E+02  0.88015242486E+02  0.94494008639E+00  0.10787968763E+03  0.00000000000E+00 0.  1.
</event>
<event>
 6    1  0.6597032E-006  0.9802275E+02  0.7561462E-02  0.1284510E+00
          2   -1    0    0  501    0  0.00000000000E+00  0.00000000000E+00  0.84174309312E+02  0.84174309312E+02  0.00000000000E+00 0. -1.
         -2   -1    0    0    0  501 -0.00000000000E+00 -0.00000000000E+00 -0.24936412970E+03  0.24936412970E+03  0.00000000000E+00 0.  1.
          5    1    1    2  502    0 -0.10054078728E+02  0.15599015732E+02 -0.10823229415E+03  0.10989138132E+03  0.41800000000E+01 0.  1.
         -5    1    1    2    0  502  0.90295363127E+02 -0.44695933947E+01 -0.35676149379E+02  0.97280470300E+02  0.41800000000E+01 0.  1.
        -11    1    1    2    0    0 -0.31741543284E+02  0.10475491068E+02  0.35410367807E+02  0.48694513360E+02  0.00000000000E+00 0. -1.
         11    1    1    2    0    0 -0.48499741115E+02 -0.21604913406E+02 -0.56691744667E+02  0.77672074035E+02  0.00000000000E+00 0.  1.
</event>
<event>
 6    1  0.6597032E-006  0.1371176E+03  0.7561462E-02  0.1217261E+00
          1   -1    0    0  501    0  0.00000000000E+00  0.00000000000E+00  0.17305228595E+03  0.17305228595E+03  0.00000000000E+00 0. -1.
         -1   -1    0    0    0  501 -0.00000000000E+00 -0.00000000000E+00 -0.18617062769E+03  0.18617062769E+03  0.00000000000E+00 0.  1.
          5    1    1    2  502    0 -0.11667796303E+03 -0.90791375898E+00 -0.95974422131E+02  0.15113945040E+03  0.41800000000E+01 0. -1.
         -5    1    1    2    0  502  0.16724596280E+02 -0.37801247962E+02 -0.44360061742E+01  0.41782735897E+02  0.41800000000E+01 0. -1.
        -11    1    1    2    0    0  0.39489455647E+02 -0.70384693560E+01 -0.11536841399E+02  0.41737942781E+02  0.00000000000E+00 0.  1.
         11    1    1    2    0    0  0.60463911104E+02  0.45747631077E+02  0.98828927962E+02  0.12456278456E+03  0.00000000000E+00 0. -1.
</event>
<event>
 6    1  0.6597032E-006  0.1173375E+03  0.7561462E-02  0.1247555E+00
          2   -1    0    0  501    0  0.00000000000E+00  0.00000000000E+00  0.72944684786E+02  0.72944684786E+02  0.00000000000E+00 0. -1.
         -2   -1    0    0    0  501 -0.00000000000E+00 -0.00000000000E+00 -0.30872511354E+03  0.30872511354E+03  0.00000000000E+00 0.  1.
          5    1    1    2  502    0 -0.29903206872E+01 -0.30201597655E+02 -0.14915564787E+03  0.15226936071E+03  0.41800000000E+01 0. -1.
         -5    1    1    2    0  502  0.81478717514E+02  0.29330341083E+02 -0.67245281781E+02  0.10971987349E+03  0.41800000000E+01 0. -1.
        -11    1    1    2    0    0 -0.25357204496E+02  0.42739921746E+02 -0.14924208793E+02  0.51888541498E+02  0.00000000000E+00 0. -1.
         11    1    1    2    0    0 -0.53131192331E+02 -0.41868665174E+02 -0.44552903149E+01  0.67792022641E+02  0.00000000000E+00 0.  1.
</event>
<event>
 6    1  0.6597032E-006  0.1095085E+03  0.7561462E-02  0.1261483E+00
         -2   -1    0    0    0  501 -0.00000000000E+00  0.00000000000E+00  0.67845268836E+02  0.67845268836E+02  0.00000000000E+00 0.  1.
          2   -1    0    0  501    0  0.00000000000E+00 -0.00000000000E+00 -0.28278590318E+03  0.28278590318E+03  0.00000000000E+00 0. -1.
          5    1    1    2  502    0  0.82459498152E+02 -0.27205035377E+02 -0.12778769357E+02  0.87866103428E+02  0.41800000000E+01 0. -1.
         -5    1    1    2    0  502 -0.42166522849E+02 -0.25977067128E+02 -0.38597793038E+02  0.62929211764E+02  0.41800000000E+01 0. -1.
        -11    1    1    2    0    0  0.89864232381E+01  0.22759249305E+02  0.18868313587E+01  0.24541788120E+02  0.00000000000E+00 0.  1.
         11    1    1    2    0    0 -0.49279398540E+02  0.30422853201E+02 -0.16545090331E+03  0.17529406871E+03  0.00000000000E+00 0. -1.
</event>
<event>
 6    1  0.6597032E-006  0.1951562E+03  0.7561462E-02  0.1153891E+00
         -2   -1    0    0    0  501 -0.00000000000E+00  0.00000000000E+00  0.65181992956E+02  0.65181992956E+02  0.00000000000E+00 0. -1.
          2   -1    0    0  501    0  0.00000000000E+00 -0.00000000000E+00 -0.65119394921E+03  0.65119394921E+03  0.00000000000E+00 0.  1.
          5    1    1    2  502    0 -0.35819290035E+02 -0.10858642504E+03 -0.23396834223E+03  0.26044709791E+03  0.41800000000E+01 0. -1.
         -5    1    1    2    0  502  0.53996367118E+02 -0.64940176250E+02 -0.60506721174E+02  0.10397773733E+03  0.41800000000E+01 0. -1.
        -11    1    1    2    0    0 -0.49343835664E+02  0.10174467665E+03 -0.12892569745E+03  0.17148944226E+03  0.00000000000E+00 0. -1.
         11    1    1    2    0    0  0.31166758580E+02  0.71781924641E+02 -0.16261119541E+03  0.18046166467E+03  0.00000000000E+00 0.  1.
</event>
<event>
 6    1  0.6597032E-006  0.7460510E+02  0.7561462E-02  0.1345098E+00
          2   -1    0    0  501    0  0.00000000000E+00  0.00000000000E+00  0.93197169463E+02  0.93197169463E+02  0.00000000000E+00 0.  1.
         -2   -1    0    0    0  501 -0.00000000000E+00 -0.00000000000E+00 -0.79024230363E+02  0.79024230363E+02  0.00000000000E+00 0. -1.
          5    1    1    2  502    0 -0.72627012280E+01 -0.66744967307E+02 -0.31938834503E+02  0.74466093219E+02  0.41800000000E+01 0. -1.
         -5    1    1    2    0  502  0.23172118855E+02  0.41186573206E+02  0.25434107800E+02  0.53829797922E+02  0.41800000000E+01 0.  1.
        -11    1    1    2    0    0 -0.15201930448E+02  0.84820263553E+01  0.20419146473E+02  0.26832536278E+02  0.00000000000E+00 0. -1.
         11    1    1    2    0    0 -0.70748717966E+00  0.17076367745E+02  0.25851933008E+00  0.17092972407E+02  0.00000000000E+00 0.  1.
</event>
<event>
 6    1  0.6597032E-006  0.1319569E+03  0.7561462E-02  0.1224581E+00
         -2   -1    0    0    0  501 -0.00000000000E+00  0.00000000000E+00  0.39117599865E+02  0.39117599865E+02  0.00000000000E+00 0.  1.
          2   -1    0    0  501    0  0.00000000000E+00 -0.00000000000E+00 -0.54393107435E+03  0.54393107435E+03  0.00000000000E+00 0. -1.
          5    1    1    2  502    0  0.47208674219E+02 -0.10360201642E+01 -0.43511646809E+02  0.64346468958E+02  0.41800000000E+01 0.  1.
         -5    1    1    2    0  502 -0.56373261862E+02  0.86029269738E+02 -0.13571478827E+03  0.17033777051E+03  0.41800000000E+01 0.  1.
        -11    1    1    2    0    0  0.26519108159E+02 -0.91324385528E+02 -0.30979127101E+03  0.32405869543E+03  0.00000000000E+00 0. -1.
         11    1    1    2    0    0 -0.17354520516E+02  0.63311359541E+01 -0.15795768389E+02  0.24305739318E+02  0.00000000000E+00 0.  1.
</event>
<event>
 6    1  0.6597032E-006  0.1223351E+03  0.7561462E-02  0.1239294E+00
          2   -1    0    0  501    0  0.00000000000E+00  0.00000000000E+00  0.10821436343E+04  0.10821436343E+04  0.00000000000E+00 0. -1.
         -2   -1    0    0    0  501 -0.00000000000E+00 -0.00000000000E+00 -0.18377551243E+02  0.18377551243E+02  0.00000000000E+00 0.  1.
          5    1    1    2  502    0  0.90571597641E+00  0.24685195161E+02  0.17320174416E+02  0.30457183445E+02  0.41800000000E+01 0.  1.
         -5    1    1    2    0  502  0.89124567519E+02 -0.28029461203E+02  0.52902479340E+03  0.53722764603E+03  0.41800000000E+01 0.  1.
        -11    1    1    2    0    0 -0.86640796594E+02 -0.30672742794E+02  0.40679473874E+03  0.41704844353E+03  0.00000000000E+00 0.  1.
         11    1    1    2    0    0 -0.33894869011E+01  0.34017008836E+02  0.11062637654E+03  0.11578791257E+03  0.00000000000E+00 0. -1.
</event>
<event>
 6    1  0.6597032E-006  0.1630513E+03  0.7561462E-02  0.1185294E+00
          2   -1    0    0  501    0  0.00000000000E+00  0.00000000000E+00  0.43418009344E+03  0.43418009344E+03  0.00000000000E+00 0. -1.
         -2   -1    0    0    0  501 -0.00000000000E+00 -0.00000000000E+00 -0.77787813575E+02  0.77787813575E+02  0.00000000000E+00 0.  1.
          5    1    1    2  502    0 -0.92093843645E+02 -0.18427049343E+02  0.17340916260E+03  0.19725375093E+03  0.41800000000E+01 0. -1.
         -5    1    1    2    0  502 -0.53819063303E+02  0.59311950700E+02  0.30173805342E+02  0.85687396970E+02  0.41800000000E+01 0. -1.
        -11    1    1    2    0    0  0.92918692275E+02 -0.20796210221E+02  0.40990542636E+02  0.10366576252E+03  0.00000000000E+00 0.  1.
         11    1    1    2    0    0  0.52994214673E+02 -0.20088691136E+02  0.11181876929E+03  0.12536099659E+03  0.00000000000E+00 0. -1.
</event>
<event>
 6    1  0.6597032E-006  0.1533104E+03  0.7561462E-02  0.1196463E+00
         -1   -1    0    0    0  501 -0.00000000000E+00  0.00000000000E+00  0.49852160837E+02  0.49852160837E+02  0.00000000000E+00 0.  1.
          1   -1    0    0  501    0  0.00000000000E+00 -0.00000000000E+00 -0.76187713358E+03  0.76187713358E+03  0.00000000000E+00 0. -1.
          5    1    1    2  502    0 -0.39275464967E+02 -0.61116177297E+02 -0.39331418992E+02  0.82717484220E+02  0.41800000000E+01 0. -1.
         -5    1    1    2    0  502 -0.75034816075E+02  0.56836844741E+02 -0.92271007809E+02  0.13187896658E+03  0.41800000000E+01 0. -1.
        -11    1    1    2    0    0  0.47213138018E+02 -0.37754746019E+02 -0.28003954147E+03  0.28649021979E+03  0.00000000000E+00 0. -1.
         11    1    1    2    0    0  0.67097143024E+02  0.42034078575E+02 -0.30038300447E+03  0.31064262383E+03  0.00000000000E+00 0.  1.
</event>
<event>
 6    1  0.6597032E-006  0.1176934E+03  0.7561462E-02  0.1246951E+00
         -2   -1    0    0    0  501 -0.00000000000E+00  0.00000000000E+00  0.12878645878E+02  0.12878645878E+02  0.00000000000E+00 0.  1.
          2   -1    0    0  501    0  0.00000000000E+00 -0.00000000000E+00 -0.11642427902E+04  0.11642427902E+04  0.00000000000E+00 0. -1.
          5    1    1    2  502    0 -0.36546101996E+02  0.88598437572E+01 -0.28130934141E+03  0.28384244285E+03  0.41800000000E+01 0.  1.
         -5    1    1    2    0  502  0.84546281549E+02 -0.28491456216E+02 -0.29891973730E+03  0.31197807383E+03  0.41800000000E+01 0.  1.
        -11    1    1    2    0    0  0.26737418994E+02 -0.89836429913E+01 -0.15088963525E+03  0.15350334668E+03  0.00000000000E+00 0. -1.
         11    1    1    2    0    0 -0.74737598547E+02  0.28615255450E+02 -0.42024543034E+03  0.42779757269E+03  0.00000000000E+00 0.  1.
</event>
<event>
 6    1  0.6597032E-006  0.8800316E+02  0.7561462E-02  0.1307761E+00
         -1   -1    0    0    0  501 -0.00000000000E+00  0.00000000000E+00  0.12003809740E+04  0.12003809740E+04  0.00000000000E+00 0.  1.
          1   -1    0    0  501    0  0.00000000000E+00 -0.00000000000E+00 -0.14236679579E+02  0.14236679579E+02  0.00000000000E+00 0. -1.
          5    1    1    2  502    0 -0.18066768787E+00  0.29144055984E+02  0.41320357228E+02  0.50737096503E+02  0.41800000000E+01 0. -1.
         -5    1    1    2    0  502  0.10628593063E+02 -0.53551908240E+02  0.89371994687E+03  0.89539577266E+03  0.41800000000E+01 0.  1.
        -11    1    1    2    0    0  0.33763163077E+02 -0.10628490804E+02  0.13254038579E+03  0.13718553081E+03  0.00000000000E+00 0.  1.
         11    1    1    2    0    0 -0.44211088452E+02  0.35036343059E+02  0.11856360449E+03  0.13129925356E+03  0.00000000000E+00 0. -1.
</event>
<event>
 6    1  0.6597032E-006  0.1182006E+03  0.7561462E-02  0.1246095E+00
         -2   -1    0    0    0  501 -0.00000000000E+00  0.00000000000E+00  0.28864118533E+02  0.28864118533E+02  0.00000000000E+00 0.  1.
          2   -1    0    0  501    0  0.00000000000E+00 -0.00000000000E+00 -0.62747674433E+03  0.62747674433E+03  0.00000000000E+00 0. -1.
          5    1    1    2  502    0  0.53004146076E+02  0.20401234613E+02 -0.49672407327E+02  0.75567653957E+02  0.41800000000E+01 0.  1.
         -5    1    1    2    0  502  0.23681168129E+01 -0.68469089176E+02 -0.22208311551E+03  0.23244785812E+03  0.41800000000E+01 0.  1.
        -11    1    1    2    0    0  0.15747327004E+02  0.35171614285E+02 -0.55916113495E+02  0.67909001669E+02  0.00000000000E+00 0.  1.
         11    1    1    2    0    0 -0.71119589893E+02  0.12896240278E+02 -0.27094098946E+03  0.28041634911E+03  0.00000000000E+00 0. -1.
</event>
<event>
 6    1  0.6597032E-006  0.8903139E+02  0.7561462E-02  0.1305214E+00
         -3   -1    0    0    0  501 -0.00000000000E+00  0.00000000000E+00  0.35380166395E+02  0.35380166395E+02  0.00000000000E+00 0.  1.
          3   -1    0    0  501    0  0.00000000000E+00 -0.00000000000E+00 -0.43476530186E+03  0.43476530186E+03  0.00000000000E+00 0. -1.
          5    1    1    2  502    0 -0.61162849816E+02  0.73875457681E+01 -0.31255417956E+02  0.69208695853E+02  0.41800000000E+01 0. -1.
         -5    1    1    2    0  502  0.10802900369E+02 -0.30922274858E+02 -0.17667660525E+03  0.17973587561E+03  0.41800000000E+01 0. -1.
        -11    1    1    2    0    0  0.56303972086E+02 -0.27241983061E+01 -0.44544116752E+02  0.71845228556E+02  0.00000000000E+00 0.  1.
         11    1    1    2    0    0 -0.59440226387E+01  0.26258927396E+02 -0.14690899551E+03  0.14935566824E+03  0.00000000000E+00 0. -1.
</event>
<event>
 6    1  0.6597032E-006  0.8076221E+02  0.7561462E-02  0.1326902E+00
         -2   -1    0    0    0  501 -0.00000000000E+00  0.00000000000E+00  0.96694932503E+02  0.96694932503E+02  0.00000000000E+00 0.  1.
          2   -1    0    0  501    0  0.00000000000E+00 -0.00000000000E+00 -0.26796870289E+03  0.26796870289E+03  0.00000000000E+00 0. -1.
          5    1    1    2  502    0  0.24686799605E+02  0.35874107140E+02 -0.46820306010E+02  0.64078101507E+02  0.41800000000E+01 0. -1.
         -5    1    1    2    0  502  0.78194105542E+01  0.79211642336E+01  0.74144929197E+02  0.75092149722E+02  0.41800000000E+01 0. -1.
        -11    1    1    2    0    0 -0.60320097709E+02 -0.84477504099E+01 -0.12851826016E+03  0.14222103174E+03  0.00000000000E+00 0.  1.
         11    1    1    2    0    0  0.27813887550E+02 -0.35347520964E+02 -0.70080133415E+02  0.83272352425E+02  0.00000000000E+00 0. -1.
</event>
<event>
 6    1  0.6597032E-006  0.1087207E+03  0.7561462E-02  0.1262957E+00
          2   -1    0    0  501    0  0.00000000000E+00  0.00000000000E+00  0.69030109913E+02  0.69030109913E+02  0.00000000000E+00 0. -1.
         -2   -1    0    0    0  501 -0.00000000000E+00 -0.00000000000E+00 -0.21817198024E+03  0.21817198024E+03  0.00000000000E+00 0.  1.
          5    1    1    2  502    0  0.44524686968E+02 -0.16074917349E+02 -0.24156616232E+01  0.47583174951E+02  0.41800000000E+01 0. -1.
         -5    1    1    2    0  502 -0.56936632247E+02  0.43480666879E+02 -0.69057071099E+02  0.99592670176E+02  0.41800000000E+01 0. -1.
        -11    1    1    2    0    0 -0.36168056575E+02  0.92117170569E+01 -0.69175195504E+02  0.78601474035E+02  0.00000000000E+00 0.  1.
         11    1    1    2    0    0  0.48580001854E+02 -0.36617466587E+02 -0.84939421048E+01  0.61424770996E+02  0.00000000000E+00 0. -1.
</event>
<event>
 6    1  0.6597032E-006  0.1164354E+03  0.7561462E-02  0.1249096E+00
          1   -1    0    0  501    0  0.00000000000E+00  0.00000000000E+00  0.37972561844E+02  0.37972561844E+02  0.00000000000E+00 0. -1.
         -1   -1    0    0    0  501 -0.00000000000E+00 -0.00000000000E+00 -0.91455903579E+03  0.91455903579E+03  0.00000000000E+00 0.  1.
          5    1    1    2  502    0  0.42564173459E+02  0.20967698116E+02 -0.19406908649E+03  0.19982901680E+03  0.41800000000E+01 0.  1.
         -5    1    1    2    0  502 -0.81577109507E+02  0.18110997997E+02 -0.62493537365E+03  0.63051132161E+03  0.41800000000E+01 0.  1.
        -11    1    1    2    0    0 -0.25893579699E+02 -0.16729589959E+00 -0.34374337631E+02  0.43036037749E+02  0.00000000000E+00 0. -1.
         11    1    1    2    0    0  0.64906515747E+02 -0.38911400213E+02 -0.23207676184E+02  0.79155221475E+02  0.00000000000E+00 0.  1.
</event>
<event>
 6    1  0.6597032E-006  0.1283332E+03  0.7561462E-02  0.1229950E+00
         -2   -1    0    0    0  501 -0.00000000000E+00  0.00000000000E+00  0.35446596908E+02  0.35446596908E+02  0.00000000000E+00 0.  1.
          2   -1    0    0  501    0  0.00000000000E+00 -0.00000000000E+00 -0.65355453584E+03  0.65355453584E+03  0.00000000000E+00 0. -1.
          5    1    1    2  502    0 -0.53701381742E+01  0.33435020047E+02 -0.42241144707E+02  0.54300328320E+02  0.41800000000E+01 0.  1.
         -5    1    1    2    0  502  0.37496062321E+02 -0.10937567236E+03 -0.14064953708E+03  0.18212291749E+03  0.41800000000E+01 0.  1.
        -11    1    1    2    0    0 -0.33664978809E+02  0.29005560021E+01 -0.49057873923E+02  0.59568607649E+02  0.00000000000E+00 0.  1.
         11    1    1    2    0    0  0.15390546623E+01  0.73040096309E+02 -0.38615938322E+03  0.39300927929E+03  0.00000000000E+00 0. -1.
</event>
<event>
 6    1  0.6597032E-006  0.7266239E+02  0.7561462E-02  0.1351267E+00
         -1   -1    0    0    0  501 -0.00000000000E+00  0.00000000000E+00  0.29165076685E+03  0.29165076685E+03  0.00000000000E+00 0.  1.
          1   -1    0    0  501    0  0.00000000000E+00 -0.00000000000E+00 -0.60101330836E+02  0.60101330836E+02  0.00000000000E+00 0. -1.
          5    1    1    2  502    0 -0.73277936113E+01 -0.22964996339E+01 -0.19082831903E+02  0.20990410744E+02  0.41800000000E+01 0.  1.
         -5    1    1    2    0  502 -0.21790834708E+01 -0.64683270689E+02  0.19330379379E+03  0.20389336184E+03  0.41800000000E+01 0.  1.
        -11    1    1    2    0    0  0.11214079997E+02  0.10958150961E+02  0.68025474523E+02  0.69809038431E+02  0.00000000000E+00 0.  1.
         11    1    1    2    0    0 -0.17072029149E+01  0.56021619362E+02 -0.10697000391E+02  0.57059286668E+02  0.00000000000E+00 0. -1.
</event>
<event>
 6    1  0.6597032E-006  0.1949635E+03  0.7561462E-02  0.1154059E+00
         -1   -1    0    0    0  501 -0.00000000000E+00  0.00000000000E+00  0.37757222976E+02  0.37757222976E+02  0.00000000000E+00 0.  1.
          1   -1    0    0  501    0  0.00000000000E+00 -0.00000000000E+00 -0.10774849403E+04  0.10774849403E+04  0.00000000000E+00 0. -1.
          5    1    1    2  502    0 -0.85872168012E+02 -0.66087734123E+02 -0.21712510370E+03  0.24269816830E+03  0.41800000000E+01 0. -1.
         -5    1    1    2    0  502  0.37514798111E+02 -0.88406685657E+02 -0.18885128282E+03  0.21190889922E+03  0.41800000000E+01 0. -1.
        -11    1    1    2    0    0 -0.26976504025E+02  0.37045810865E+02 -0.19081581692E+03  0.19624168737E+03  0.00000000000E+00 0. -1.
         11    1    1    2    0    0  0.75333873926E+02  0.11744860891E+03 -0.44293551389E+03  0.46439340840E+03  0.00000000000E+00 0.  1.
</event>
<event>
 6    1  0.6597032E-006  0.8742314E+02  0.7561462E-02  0.1309215E+00
         -3   -1    0    0    0  501 -0.00000000000E+00  0.00000000000E+00  0.20150304828E+03  0.20150304828E+03  0.00000000000E+00 0.  1.
          3   -1    0    0  501    0  0.00000000000E+00 -0.00000000000E+00 -0.68057216049E+02  0.68057216049E+02  0.00000000000E+00 0. -1.
          5    1    1    2  502    0  0.49045109243E+02 -0.26820353148E+02  0.13018079256E+03  0.14173660514E+03  0.41800000000E+01 0.  1.
         -5    1    1    2    0  502 -0.24545744273E+02  0.30738369643E+02 -0.12934155602E+01  0.39578861202E+02  0.41800000000E+01 0.  1.
        -11    1    1    2    0    0 -0.51788027632E+02 -0.40240102317E+01  0.21397488979E+02  0.56178688120E+02  0.00000000000E+00 0.  1.
         11    1    1    2    0    0  0.27288662662E+02  0.10599373671E+00 -0.16839033750E+02  0.32066109870E+02  0.00000000000E+00 0. -1.
</event>
<event>
 6    1  0.6597032E-006  0.1098109E+03  0.7561462E-02  0.1260920E+00
          3   -1    0    0  501    0  0.00000000000E+00  0.00000000000E+00  0.28960962028E+03  0.28960962028E+03  0.00000000000E+00 0. -1.
         -3   -1    0    0    0  501 -0.00000000000E+00 -0.00000000000E+00 -0.54979297024E+02  0.54979297024E+02  0.00000000000E+00 0.  1.
          5    1    1    2  502    0  0.85330646817E+02 -0.90030468145E+00  0.13553664941E+03  0.16021793148E+03  0.41800000000E+01 0. -1.
         -5    1    1    2    0  502 -0.24218811047E+02 -0.68584161975E+00 -0.10666048630E+02  0.26800339189E+02  0.41800000000E+01 0. -1.
        -11    1    1    2    0    0 -0.47712769672E+01  0.40720570865E+02  0.60640309890E+02  0.73199570757E+02  0.00000000000E+00 0. -1.
         11    1    1    2    0    0 -0.56340558803E+02 -0.39134424563E+02  0.49119412587E+02  0.84371075879E+02  0.00000000000E+00 0.  1.
</event>
<event>
 6    1  0.6597032E-006  0.1183474E+03  0.7561462E-02  0.1245848E+00
         -3   -1    0    0    0  501 -0.00000000000E+00  0.00000000000E+00  0.24088019209E+03  0.24088019209E+03  0.00000000000E+00 0.  1.
          3   -1    0    0  501    0  0.00000000000E+00 -0.00000000000E+00 -0.74655480857E+02  0.74655480857E+02  0.00000000000E+00 0. -1.
          5    1    1    2  502    0 -0.95821871467E+02 -0.17619845308E+02  0.56940240043E+02  0.11292454709E+03  0.41800000000E+01 0. -1.
         -5    1    1    2    0  502  0.33475372382E+02 -0.23681142224E+02  0.65658294929E+02  0.77523423209E+02  0.41800000000E+01 0. -1.
        -11    1    1    2    0    0  0.64215860544E+02  0.54746198084E+02  0.60205112061E+02  0.10366039971E+03  0.00000000000E+00 0.  1.
         11    1    1    2    0    0 -0.18693614583E+01 -0.13445210552E+02 -0.16578935795E+02  0.21427302937E+02  0.00000000000E+00 0. -1.
</event>
<event>
 6    1  0.6597032E-006  0.1012736E+03  0.7561462E-02  0.1277640E+00
          1   -1    0    0  501    0  0.00000000000E+00  0.00000000000E+00  0.13904666530E+03  0.13904666530E+03  0.00000000000E+00 0. -1.
         -1   -1    0    0    0  501 -0.00000000000E+00 -0.00000000000E+00 -0.11858692593E+03  0.11858692593E+03  0.00000000000E+00 0.  1.
          5    1    1    2  502    0 -0.85492071640E+02 -0.27000462179E+02 -0.40329407818E+02  0.98396406470E+02  0.41800000000E+01 0.  1.
         -5    1    1    2    0  502  0.40701456013E+02  0.50180604617E+01  0.31305504280E+01  0.41340805488E+02  0.41800000000E+01 0.  1.
        -11    1    1    2    0    0  0.33404578566E+02 -0.12185842724E+02 -0.13586774944E+02  0.38065221469E+02  0.00000000000E+00 0.  1.
         11    1    1    2    0    0  0.11386037060E+02  0.34168244442E+02  0.71245371703E+02  0.79831157810E+02  0.00000000000E+00 0. -1.
</event>
<event>
 6    1  0.6597032E-006  0.1189760E+03  0.7561462E-02  0.1244796E+00
         -1   -1    0    0    0  501 -0.00000000000E+00  0.00000000000E+00  0.66778134684E+03  0.66778134684E+03  0.00000000000E+00 0.  1.
          1   -1    0    0  501    0  0.00000000000E+00 -0.00000000000E+00 -0.22763111009E+02  0.22763111009E+02  0.00000000000E+00 0. -1.
          5    1    1    2  502    0  0.92076524000E+02  0.18138981690E+01  0.29027763762E+03  0.30456519138E+03  0.41800000000E+01 0. -1.
         -5    1    1    2    0  502 -0.40835782461E+02 -0.14685298860E+02  0.13553396385E+03  0.14237326606E+03  0.41800000000E+01 0. -1.
        -11    1    1    2    0    0 -0.36682281694E+02  0.50156595490E+02  0.98758365058E+02  0.11668114042E+03  0.00000000000E+00 0. -1.
         11    1    1    2    0    0 -0.14558459844E+02 -0.37285194799E+02  0.12044826931E+03  0.12692485999E+03  0.00000000000E+00 0.  1.
</event>
<event>
 6    1  0.6597032E-006  0.8474515E+02  0.7561462E-02  0.1316100E+00
          1   -1    0    0  501    0  0.00000000000E+00  0.00000000000E+00  0.18921879342E+03  0.18921879342E+03  0.00000000000E+00 0. -1.
         -1   -1    0    0    0  501 -0.00000000000E+00 -0.00000000000E+00 -0.79619336333E+02  0.79619336333E+02  0.00000000000E+00 0.  1.
          5    1    1    2  502    0 -0.47435224046E+02 -0.84446037170E+01  0.29865419540E+00  0.48362934222E+02  0.41800000000E+01 0. -1.
         -5    1    1    2    0  502  0.60938442183E+02  0.47744306477E+02  0.52719902780E+02  0.93754323025E+02  0.41800000000E+01 0. -1.
        -11    1    1    2    0    0  0.10534256414E+01 -0.16609306925E+02  0.85547022169E+02  0.87150856474E+02  0.00000000000E+00 0. -1.
         11    1    1    2    0    0 -0.14556643779E+02 -0.22690395835E+02 -0.28966122061E+02  0.39570016029E+02  0.00000000000E+00 0.  1.
</event>
<event>
 6    1  0.6597032E-006  0.1249011E+03  0.7561462E-02  0.1235224E+00
          1   -1    0    0  501    0  0.00000000000E+00  0.00000000000E+00  0.47053790948E+03  0.47053790948E+03  0.00000000000E+00 0. -1.
         -1   -1    0    0    0  501 -0.00000000000E+00 -0.00000000000E+00 -0.37718552180E+02  0.37718552180E+02  0.00000000000E+00 0.  1.
          5    1    1    2  502    0 -0.18384521001E+02  0.32238557928E+02  0.62631170713E+02  0.72920855553E+02  0.41800000000E+01 0.  1.
         -5    1    1    2    0  502  0.45504813911E+02 -0.88765350090E+02  0.94297568505E+02  0.13732981938E+03  0.41800000000E+01 0.  1.
        -11    1    1    2    0    0  0.25188203425E+02  0.54765362780E+02  0.15161268178E+03  0.16315666038E+03  0.00000000000E+00 0.  1.
         11    1    1    2    0    0 -0.52308496335E+02  0.17614293820E+01  0.12427793631E+03  0.13484912634E+03  0.00000000000E+00 0. -1.
</event>
<event>
 6    1  0.6597032E-006  0.1563338E+03  0.7561462E-02  0.1192899E+00
         -1   -1    0    0    0  501 -0.00000000000E+00  0.00000000000E+00  0.81955257376E+02  0.81955257376E+02  0.00000000000E+00 0.  1.
          1   -1    0    0  501    0  0.00000000000E+00 -0.00000000000E+00 -0.31691174506E+03  0.31691174506E+03  0.00000000000E+00 0. -1.
          5    1    1    2  502    0  0.27043960657E+02  0.13835727112E+02 -0.97537211512E+01  0.32177797144E+02  0.41800000000E+01 0. -1.
         -5    1    1    2    0  502 -0.70605819089E+02 -0.11763273740E+03 -0.68863475517E+02  0.15356527361E+03  0.41800000000E+01 0. -1.
        -11    1    1    2    0    0 -0.23058832320E+02  0.61872997361E+02 -0.67389758760E+02  0.94347003853E+02  0.00000000000E+00 0. -1.
         11    1    1    2    0    0  0.66620690753E+02  0.41924012929E+02 -0.88949532254E+02  0.11877692783E+03  0.00000000000E+00 0.  1.
</event>
<event>
 6    1  0.6597032E-006  0.1373019E+03  0.7561462E-02  0.1217006E+00
          3   -1    0    0  501    0  0.00000000000E+00  0.00000000000E+00  0.39396913825E+02  0.39396913825E+02  0.00000000000E+00 0. -1.
         -3   -1    0    0    0  501 -0.00000000000E+00 -0.00000000000E+00 -0.10626640472E+04  0.10626640472E+04  0.00000000000E+00 0.  1.
          5    1    1    2  502    0  0.99696859105E+01  0.10522795438E+02 -0.45933021727E+03  0.45957789847E+03  0.41800000000E+01 0. -1.
         -5    1    1    2    0  502  0.11608650863E+03  0.40570240697E+02 -0.36400918981E+03  0.38424235137E+03  0.41800000000E+01 0. -1.
        -11    1    1    2    0    0 -0.64818848129E+02 -0.32285688686E+02 -0.33263055018E+02  0.79688641573E+02  0.00000000000E+00 0. -1.
         11    1    1    2    0    0 -0.61237346414E+02 -0.18807347450E+02 -0.16666467129E+03  0.17855206964E+03  0.00000000000E+00 0.  1.
</event>
<event>
 6    1  0.6597032E-006  0.8802639E+02  0.7561462E-02  0.1307703E+00
          1   -1    0    0  501    0  0.00000000000E+00  0.00000000000E+00  0.19618444048E+03  0.19618444048E+03  0.00000000000E+00 0. -1.
         -1   -1    0    0    0  501 -0.00000000000E+00 -0.00000000000E+00 -0.74690912624E+02  0.74690912624E+02  0.00000000000E+00 0.  1.
          5    1    1    2  502    0 -0.39408451390E+02  0.14372926028E+02 -0.40308599053E+02  0.58325488435E+02  0.41800000000E+01 0. -1.
         -5    1    1    2    0  502  0.43347321010E+02 -0.21009322003E+01  0.52164217438E+02  0.67985161144E+02  0.41800000000E+01 0. -1.
        -11    1    1    2    0    0  0.30271334213E+02 -0.37206583665E+02  0.37345227692E+02  0.60789387022E+02  0.00000000000E+00 0. -1.
         11    1    1    2    0    0 -0.34210203833E+02  0.24934589837E+02  0.72292681783E+02  0.83775316507E+02  0.00000000000E+00 0.  1.
</event>
<event>
 6    1  0.6597032E-006  0.1610770E+03  0.7561462E-02  0.1187486E+00
          1   -1    0    0  501    0  0.00000000000E+00  0.00000000000E+00  0.48518646099E+02  0.48518646099E+02  0.00000000000E+00 0. -1.
         -1   -1    0    0    0  501 -0.00000000000E+00 -0.00000000000E+00 -0.74628965094E+03  0.74628965094E+03  0.00000000000E+00 0.  1.
          5    1    1    2  502    0 -0.33632943845E+02  0.15719058009E+02 -0.24325471678E+03  0.24610687380E+03  0.41800000000E+01 0.  1.
         -5    1    1    2    0  502 -0.12105067439E+03 -0.21484049599E+00 -0.13373224059E+03  0.18043030926E+03  0.41800000000E+01 0.  1.
        -11    1    1    2    0    0  0.13712910273E+03 -0.30619599580E+02 -0.31420441676E+03  0.34418943361E+03  0.00000000000E+00 0.  1.
         11    1    1    2    0    0  0.17554515500E+02  0.15115382067E+02 -0.65796307150E+01  0.24081680378E+02  0.00000000000E+00 0. -1.
</event>
<event>
 6    1  0.6597032E-006  0.1138070E+03  0.7561462E-02  0.1253678E+00
         -2   -1    0    0    0  501 -0.00000000000E+00  0.00000000000E+00  0.14505810342E+03  0.14505810342E+03  0.00000000000E+00 0.  1.
          2   -1    0    0  501    0  0.00000000000E+00 -0.00000000000E+00 -0.24191421822E+03  0.24191421822E+03  0.00000000000E+00 0. -1.
          5    1    1    2  502    0 -0.49447783307E+02 -0.76174133570E+01  0.53399279632E+02  0.73294363531E+02  0.41800000000E+01 0. -1.
         -5    1    1    2    0  502  0.53916265724E+02  0.64137014069E+02  0.41139296933E+02  0.93436793799E+02  0.41800000000E+01 0. -1.
        -11    1    1    2    0    0  0.31285793128E+02 -0.63734006052E+01 -0.18949518026E+02  0.37128228080E+02  0.00000000000E+00 0.  1.
         11    1    1    2    0    0 -0.35754275546E+02 -0.50146200106E+02 -0.17244517335E+03  0.18311293623E+03  0.00000000000E+00 0. -1.
</event>
<event>
 6    1  0.6597032E-006  0.1251040E+03  0.7561462E-02  0.1234907E+00
         -2   -1    0    0    0  501 -0.00000000000E+00  0.00000000000E+00  0.73498188517E+02  0.73498188517E+02  0.00000000000E+00 0.  1.
          2   -1    0    0  501    0  0.00000000000E+00 -0.00000000000E+00 -0.37948830416E+03  0.37948830416E+03  0.00000000000E+00 0. -1.
          5    1    1    2  502    0  0.16600117459E+02 -0.22385482890E+02  0.29099681622E+02  0.40508488177E+02  0.41800000000E+01 0. -1.
         -5    1    1    2    0  502 -0.89446194895E+02 -0.39037815535E+02 -0.75467708853E+02  0.12343994614E+03  0.41800000000E+01 0. -1.
        -11    1    1    2    0    0 -0.12649909146E+02  0.31193786655E+02 -0.46314663793E+02  0.57254874112E+02  0.00000000000E+00 0. -1.
         11    1    1    2    0    0  0.85495986582E+02  0.30229511770E+02 -0.21330742462E+03  0.23178318425E+03  0.00000000000E+00 0.  1.
</event>
<event>
 6    1  0.6597032E-006  0.7981817E+02  0.7561462E-02  0.1329568E+00
         -2   -1    0    0    0  501 -0.00000000000E+00  0.00000000000E+00  0.14352902292E+03  0.14352902292E+03  0.00000000000E+00 0.  1.
          2   -1    0    0  501    0  0.00000000000E+00 -0.00000000000E+00 -0.12689475965E+03  0.12689475965E+03  0.00000000000E+00 0. -1.
          5    1    1    2  502    0  0.13210954031E+02  0.12540708585E+02  0.10251019158E+03  0.10419985823E+03  0.41800000000E+01 0. -1.
         -5    1    1    2    0  502  0.21177158051E+02 -0.36150364672E+02 -0.24797211767E+02  0.48864046092E+02  0.41800000000E+01 0. -1.
        -11    1    1    2    0    0  0.38914312499E+01  0.51395161220E+02 -0.22151697454E+02  0.56100833631E+02  0.00000000000E+00 0.  1.
         11    1    1    2    0    0 -0.38279543332E+02 -0.27785505133E+02 -0.38927019076E+02  0.61259044617E+02  0.00000000000E+00 0. -1.
</event>
<event>
 6    1  0.6597032E-006  0.1545708E+03  0.7561462E-02  0.1194966E+00
          1   -1    0    0  501    0  0.00000000000E+00  0.00000000000E+00  0.46050284235E+02  0.46050284235E+02  0.00000000000E+00 0. -1.
         -1   -1    0    0    0  501 -0.00000000000E+00 -0.00000000000E+00 -0.90878622117E+03  0.90878622117E+03  0.00000000000E+00 0.  1.
          5    1    1    2  502    0 -0.45749300065E+01 -0.73618815671E+01  0.16905540508E+01  0.97702434858E+01  0.41800000000E+01 0.  1.
         -5    1    1    2    0  502 -0.14072040365E+03  0.42651410131E+02 -0.69680076757E+03  0.71215880032E+03  0.41800000000E+01 0.  1.
        -11    1    1    2    0    0  0.75095508337E+02 -0.33410149139E+02 -0.12844556696E+03  0.15249208868E+03  0.00000000000E+00 0.  1.
         11    1    1    2    0    0  0.70199825317E+02 -0.18793794244E+01 -0.39180156451E+02  0.80415372916E+02  0.00000000000E+00 0. -1.
</event>
<event>
 6    1  0.6597032E-006  0.1550400E+03  0.7561462E-02  0.1194413E+00
         -1   -1    0    0    0  501 -0.00000000000E+00  0.00000000000E+00  0.53249841041E+03  0.53249841041E+03  0.00000000000E+00 0.  1.
          1   -1    0    0  501    0  0.00000000000E+00 -0.00000000000E+00 -0.86653664089E+02  0.86653664089E+02  0.00000000000E+00 0. -1.
          5    1    1    2  502    0  0.33315749369E+02 -0.56625161482E+01  0.21559434406E+02  0.40302417509E+02  0.41800000000E+01 0. -1.
         -5    1    1    2    0  502  0.31335277226E+02  0.11857173485E+03  0.39646977322E+03  0.41502639600E+03  0.41800000000E+01 0. -1.
        -11    1    1    2    0    0 -0.65598073079E+01 -0.90990316910E+02 -0.89518395651E+01  0.91664629356E+02  0.00000000000E+00 0. -1.
         11    1    1    2    0    0 -0.58091219287E+02 -0.21918901795E+02  0.36767378257E+02  0.72158631626E+02  0.00000000000E+00 0.  1.
</event>
<event>
 6    1  0.6597032E-006  0.1491346E+03  0.7561462E-02  0.1201540E+00
          2   -1    0    0  501    0  0.00000000000E+00  0.00000000000E+00  0.54912630915E+03  0.54912630915E+03  0.00000000000E+00 0. -1.
         -2   -1    0    0    0  501 -0.00000000000E+00 -0.00000000000E+00 -0.51029656329E+02  0.51029656329E+02  0.00000000000E+00 0.  1.
          5    1    1    2  502    0 -0.66181042106E+02  0.20179060595E+02  0.77110920284E+02  0.10368554021E+03  0.41800000000E+01 0. -1.
         -5    1    1    2    0  502  0.32474488782E+02  0.98821667457E+02  0.17977849929E+03  0.20774526610E+03  0.41800000000E+01 0. -1.
        -11    1    1    2    0    0  0.26132827874E+02 -0.61082557585E+02  0.36409727011E+02  0.75760621400E+02  0.00000000000E+00 0.  1.
         11    1    1    2    0    0  0.75737254494E+01 -0.57918170467E+02  0.20479750624E+03  0.21296453777E+03  0.00000000000E+00 0. -1.
</event>
<event>
 6    1  0.6597032E-006  0.9806628E+02  0.7561462E-02  0.1284416E+00
         -3   -1    0    0    0  501 -0.00000000000E+00  0.00000000000E+00  0.13768512702E+03  0.13768512702E+03  0.00000000000E+00 0.  1.
          3   -1    0    0  501    0  0.00000000000E+00 -0.00000000000E+00 -0.12126136273E+03  0.12126136273E+03  0.00000000000E+00 0. -1.
          5    1    1    2  502    0  0.69153251164E+02 -0.81483885482E+01 -0.98108817323E+01  0.70443553168E+02  0.41800000000E+01 0. -1.
         -5    1    1    2    0  502 -0.28795689299E+02 -0.24132137675E+02  0.66085086439E+02  0.76133191452E+02  0.41800000000E+01 0. -1.
        -11    1    1    2    0    0 -0.22022760246E+02  0.55077895544E+02 -0.53688586735E+02  0.80006505311E+02  0.00000000000E+00 0. -1.
         11    1    1    2    0    0 -0.18334801619E+02 -0.22797369321E+02  0.13838146321E+02  0.32363239825E+02  0.00000000000E+00 0.  1.
</event>
<event>
 6    1  0.6597032E-006  0.1345607E+03  0.7561462E-02  0.1220841E+00
         -2   -1    0    0    0  501 -0.00000000000E+00  0.00000000000E+00  0.58478100500E+02  0.58478100500E+02  0.00000000000E+00 0.  1.
          2   -1    0    0  501    0  0.00000000000E+00 -0.00000000000E+00 -0.44328381035E+03  0.44328381035E+03  0.00000000000E+00 0. -1.
          5    1    1    2  502    0  0.55924641390E+01  0.89844893560E+02 -0.28387171707E+02  0.94481132886E+02  0.41800000000E+01 0. -1.
         -5    1    1    2    0  502  0.16576714986E+02  0.25139995078E+02 -0.14931087021E+03  0.15237458842E+03  0.41800000000E+01 0. -1.
        -11    1    1    2    0    0 -0.54307799356E+02 -0.41341278751E+02 -0.94504641871E+02  0.11657429277E+03  0.00000000000E+00 0.  1.
         11    1    1    2    0    0  0.32138620231E+02 -0.73643609887E+02 -0.11260302606E+03  0.13833189678E+03  0.00000000000E+00 0. -1.
</event>
<event>
 6    1  0.6597032E-006  0.1467429E+03  0.7561462E-02  0.1204533E+00
          4   -1    0    0  501    0  0.00000000000E+00  0.00000000000E+00  0.24513384948E+03  0.24513384948E+03  0.00000000000E+00 0. -1.
         -4   -1    0    0    0  501 -0.00000000000E+00 -0.00000000000E+00 -0.11283696580E+03  0.11283696580E+03  0.00000000000E+00 0.  1.
          5    1    1    2  502    0 -0.65045965180E+02 -0.62087236161E+01 -0.30433440096E+02  0.72202441172E+02  0.41800000000E+01 0. -1.
         -5    1    1    2    0  502 -0.25540782885E+02  0.78840718566E+02  0.56634944474E+02  0.10046481887E+03  0.41800000000E+01 0. -1.
        -11    1    1    2    0    0  0.10237240366E+02 -0.63321434458E+02  0.74892297136E+02  0.98606598778E+02  0.00000000000E+00 0. -1.
         11    1    1    2    0    0  0.80349507699E+02 -0.93105604919E+01  0.31203082168E+02  0.86696956469E+02  0.00000000000E+00 0.  1.
</event>
<event>
 6    1  0.6597032E-006  0.1684478E+03  0.7561462E-02  0.1179476E+00
         -1   -1    0    0    0  501 -0.00000000000E+00  0.00000000000E+00  0.68863975325E+02  0.68863975325E+02  0.00000000000E+00 0.  1.
          1   -1    0    0  501    0  0.00000000000E+00 -0.00000000000E+00 -0.56830801849E+03  0.56830801849E+03  0.00000000000E+00 0. -1.
          5    1    1    2  502    0  0.90285063144E+02 -0.89232369224E+02 -0.14707623787E+03  0.19432627329E+03  0.41800000000E+01 0. -1.
         -5    1    1    2    0  502  0.36228419901E+02  0.16869811084E+02  0.10282297252E+02  0.41476342309E+02  0.41800000000E+01 0. -1.
        -11    1    1    2    0    0 -0.12400324454E+03  0.89154630429E+02 -0.30248881967E+03  0.33885813965E+03  0.00000000000E+00 0.  1.
         11    1    1    2    0    0 -0.25102385008E+01 -0.16792072290E+02 -0.60161282886E+02  0.62511238570E+02  0.00000000000E+00 0. -1.
</event>
<event>
 6    1  0.6597032E-006  0.1702060E+03  0.7561462E-02  0.1177633E+00
         -2   -1    0    0    0  501 -0.00000000000E+00  0.00000000000E+00  0.10296894434E+03  0.10296894434E+03  0.00000000000E+00 0. -1.
          2   -1    0    0  501    0  0.00000000000E+00 -0.00000000000E+00 -0.34104885694E+03  0.34104885694E+03  0.00000000000E+00 0.  1.
          5    1    1    2  502    0  0.13668789779E+03  0.37338819976E+02 -0.18179424632E+02  0.14291862286E+03  0.41800000000E+01 0.  1.
         -5    1    1    2    0  502 -0.13299842485E+02  0.35140203703E+02 -0.41828781466E+02  0.56381194430E+02  0.41800000000E+01 0.  1.
        -11    1    1    2    0    0 -0.67804316090E+02  0.20988096140E+01 -0.11083817457E+03  0.12994972576E+03  0.00000000000E+00 0. -1.
         11    1    1    2    0    0 -0.55583739218E+02 -0.74577833293E+02 -0.67233531932E+02  0.11476825824E+03  0.00000000000E+00 0.  1.
</event>
<event>
 6    1  0.6597032E-006  0.1443283E+03  0.7561462E-02  0.1207621E+00
          1   -1    0    0  501    0  0.00000000000E+00  0.00000000000E+00  0.74246760081E+02  0.74246760081E+02  0.00000000000E+00 0. -1.
         -1   -1    0    0    0  501 -0.00000000000E+00 -0.00000000000E+00 -0.45668240748E+03  0.45668240748E+03  0.00000000000E+00 0.  1.
          5    1    1    2  502    0 -0.42376388838E+02 -0.35924436375E+02 -0.67578789389E+02  0.87582467624E+02  0.41800000000E+01 0. -1.
         -5    1    1    2    0  502  0.47830958306E+02 -0.74978121823E+02 -0.28194064652E+03  0.29566453944E+03  0.41800000000E+01 0.  1.
        -11    1    1    2    0    0 -0.40614788820E+02  0.17712838635E+02 -0.82394525824E+01  0.45068773028E+02  0.00000000000E+00 0.  1.
         11    1    1    2    0    0  0.35160219352E+02  0.93189719563E+02 -0.24676758910E+02  0.10261338747E+03  0.00000000000E+00 0. -1.
</event>
<event>
 6    1  0.6597032E-006  0.1901812E+03  0.7561462E-02  0.1158298E+00
         -1   -1    0    0    0  501 -0.00000000000E+00  0.00000000000E+00  0.22611088389E+03  0.22611088389E+03  0.00000000000E+00 0.  1.
          1   -1    0    0  501    0  0.00000000000E+00 -0.00000000000E+00 -0.19166346794E+03  0.19166346794E+03  0.00000000000E+00 0. -1.
          5    1    1    2  502    0 -0.10579358289E+03 -0.62322116343E+02  0.11665651549E+02  0.12340943316E+03  0.41800000000E+01 0.  1.
         -5    1    1    2    0  502 -0.57148328389E+02  0.38558479106E+02  0.71696394078E+02  0.99551660319E+02  0.41800000000E+01 0.  1.
        -11    1    1    2    0    0  0.41457283587E+02 -0.34285876845E+02 -0.17286397097E+02  0.56507054763E+02  0.00000000000E+00 0.  1.
         11    1    1    2    0    0  0.12148462770E+03  0.58049514082E+02 -0.31628232581E+02  0.13830620358E+03  0.00000000000E+00 0. -1.
</event>
<event>
 6    1  0.6597032E-006  0.9585717E+02  0.7561462E-02  0.1289257E+00
         -2   -1    0    0    0  501 -0.00000000000E+00  0.00000000000E+00  0.11903622755E+03  0.11903622755E+03  0.00000000000E+00 0.  1.
          2   -1    0    0  501    0  0.00000000000E+00 -0.00000000000E+00 -0.13746704732E+03  0.13746704732E+03  0.00000000000E+00 0. -1.
          5    1    1    2  502    0  0.47848355644E+02 -0.13340908176E+02 -0.34707783376E+02  0.60741646304E+02  0.41800000000E+01 0. -1.
         -5    1    1    2    0  502 -0.37621199924E+01  0.36322503042E+02  0.68990928766E+02  0.78170956410E+02  0.41800000000E+01 0. -1.
        -11    1    1    2    0    0 -0.63117227214E+02  0.12966416486E+02 -0.31869796631E+02  0.71885994915E+02  0.00000000000E+00 0. -1.
         11    1    1    2    0    0  0.19030991562E+02 -0.35948011352E+02 -0.20844168536E+02  0.45704677244E+02  0.00000000000E+00 0.  1.
</event>
<event>
 6    1  0.6597032E-006  0.1303424E+03  0.7561462E-02  0.1226948E+00
         -1   -1    0    0    0  501 -0.00000000000E+00  0.00000000000E+00  0.62255077663E+02  0.62255077663E+02  0.00000000000E+00 0.  1.
          1   -1    0    0  501    0  0.00000000000E+00 -0.00000000000E+00 -0.28905837102E+03  0.28905837102E+03  0.00000000000E+00 0. -1.
          5    1    1    2  502    0 -0.52791052533E+02  0.41193627812E+00 -0.27734484163E+02  0.59780757195E+02  0.41800000000E+01 0. -1.
         -5    1    1    2    0  502  0.47569948586E+02 -0.79066017459E+02 -0.93416508526E+02  0.13137142608E+03  0.41800000000E+01 0. -1.
        -11    1    1    2    0    0  0.20838724117E+02 -0.11541582007E+02 -0.43251222051E+02  0.49377411302E+02  0.00000000000E+00 0.  1.
         11    1    1    2    0    0 -0.15617620170E+02  0.90195663188E+02 -0.62401078615E+02  0.11078385410E+03  0.00000000000E+00 0. -1.
</event>
<event>
 6    1  0.6597032E-006  0.1249870E+03  0.7561462E-02  0.1235090E+00
         -1   -1    0    0    0  501 -0.00000000000E+00  0.00000000000E+00  0.28660491317E+02  0.28660491317E+02  0.00000000000E+00 0.  1.
          1   -1    0    0  501    0  0.00000000000E+00 -0.00000000000E+00 -0.86624168193E+03  0.86624168193E+03  0.00000000000E+00 0. -1.
          5    1    1    2  502    0  0.71129976621E+01  0.62779686366E+02 -0.38341460648E+03  0.38860792145E+03  0.41800000000E+01 0. -1.
         -5    1    1    2    0  502  0.39096662787E+02 -0.89238376620E+02 -0.10906839743E+03  0.14630592818E+03  0.41800000000E+01 0.  1.
        -11    1    1    2    0    0 -0.12771235199E+02  0.47795107083E+02 -0.27527205927E+03  0.27968228997E+03  0.00000000000E+00 0. -1.
         11    1    1    2    0    0 -0.33438425250E+02 -0.21336416828E+02 -0.69826127444E+02  0.80306033647E+02  0.00000000000E+00 0.  1.
</event>
<event>
 6    1  0.6597032E-006  0.9682125E+02  0.7561462E-02  0.1287126E+00
          1   -1    0    0  501    0  0.00000000000E+00  0.00000000000E+00  0.99392192261E+02  0.99392192261E+02  0.00000000000E+00 0. -1.
         -1   -1    0    0    0  501 -0.00000000000E+00 -0.00000000000E+00 -0.16793081090E+03  0.16793081090E+03  0.00000000000E+00 0.  1.
          5    1    1    2  502    0 -0.64697725077E+02  0.18545493884E+02 -0.91201184744E+02  0.11342336387E+03  0.41800000000E+01 0. -1.
         -5    1    1    2    0  502  0.75117246668E+01 -0.40354977651E+02  0.16700957985E+02  0.44512297473E+02  0.41800000000E+01 0. -1.
        -11    1    1    2    0    0  0.19580454152E+02  0.38970478117E+02  0.37400934096E+02  0.57453652806E+02  0.00000000000E+00 0. -1.
         11    1    1    2    0    0  0.37605546258E+02 -0.17160994350E+02 -0.31439325980E+02  0.51933689013E+02  0.00000000000E+00 0.  1.
</event>
<event>
 6    1  0.6597032E-006  0.1619744E+03  0.7561462E-02  0.1186486E+00
         -2   -1    0    0    0  501 -0.00000000000E+00  0.00000000000E+00  0.20106167471E+03  0.20106167471E+03  0.00000000000E+00 0.  1.
          2   -1    0    0  501    0  0.00000000000E+00 -0.00000000000E+00 -0.17065009114E+03  0.17065009114E+03  0.00000000000E+00 0. -1.
          5    1    1    2  502    0 -0.53079722723E+02  0.63336416878E+01 -0.39127762210E+02  0.66377904132E+02  0.41800000000E+01 0. -1.
         -5    1    1    2    0  502 -0.79951775677E+02 -0.60334002017E+02  0.80297557794E+02  0.12844317195E+03  0.41800000000E+01 0. -1.
        -11    1    1    2    0    0  0.71674673611E+02 -0.19554017490E+02  0.18822446028E+02  0.76641391635E+02  0.00000000000E+00 0. -1.
         11    1    1    2    0    0  0.61356824789E+02  0.73554377819E+02 -0.29580658042E+02  0.10024929813E+03  0.00000000000E+00 0.  1.
</event>
<event>
 6    1  0.6597032E-006  0.9342664E+02  0.7561462E-02  0.1294760E+00
         -2   -1    0    0    0  501 -0.00000000000E+00  0.00000000000E+00  0.48781252359E+02  0.48781252359E+02  0.00000000000E+00 0. -1.
          2   -1    0    0  501    0  0.00000000000E+00 -0.00000000000E+00 -0.32182099911E+03  0.32182099911E+03  0.00000000000E+00 0.  1.
          5    1    1    2  502    0  0.20667233910E+01 -0.78409413266E+02 -0.27408580632E+02  0.83192608606E+02  0.41800000000E+01 0.  1.
         -5    1    1    2    0  502  0.23679056120E+02  0.22271530459E+02 -0.10181344145E+03  0.10695872113E+03  0.41800000000E+01 0.  1.
        -11    1    1    2    0    0  0.62962041372E+01  0.38387425291E+02 -0.13797977210E+03  0.14335848114E+03  0.00000000000E+00 0.  1.
         11    1    1    2    0    0 -0.32041983648E+02  0.17750457517E+02 -0.58379525707E+01  0.37092440582E+02  0.00000000000E+00 0. -1.
</event>
<event>
 6    1  0.6597032E-006  0.1182718E+03  0.7561462E-02  0.1245976E+00
          1   -1    0    0  501    0  0.00000000000E+00  0.00000000000E+00  0.77355752222E+02  0.77355752222E+02  0.00000000000E+00 0. -1.
         -1   -1    0    0    0  501 -0.00000000000E+00 -0.00000000000E+00 -0.30758860512E+03  0.30758860512E+03  0.00000000000E+00 0.  1.
          5    1    1    2  502    0 -0.76930453551E+02  0.26836033102E+02 -0.10106259606E+03  0.12988297840E+03  0.41800000000E+01 0. -1.
         -5    1    1    2    0  502  0.90532827199E+02 -0.16532723470E+02 -0.13023580540E+03  0.15952542479E+03  0.41800000000E+01 0.  1.
        -11    1    1    2    0    0  0.54339561831E+01  0.23456482191E+02  0.36032256954E+02  0.43336566290E+02  0.00000000000E+00 0. -1.
         11    1    1    2    0    0 -0.19036329831E+02 -0.33759791823E+02 -0.34966708394E+02  0.52199387863E+02  0.00000000000E+00 0.  1.
</event>
<event>
 6    1  0.6597032E-006  0.7731852E+02  0.7561462E-02  0.1336838E+00
          1   -1    0    0  501    0  0.00000000000E+00  0.00000000000E+00  0.11996469779E+03  0.11996469779E+03  0.00000000000E+00 0. -1.
         -1   -1    0    0    0  501 -0.00000000000E+00 -0.00000000000E+00 -0.10071159352E+03  0.10071159352E+03  0.00000000000E+00 0.  1.
          5    1    1    2  502    0  0.41461213143E+01 -0.76725849794E+02 -0.60860686276E+01  0.77191702792E+02  0.41800000000E+01 0. -1.
         -5    1    1    2    0  502 -0.75908423335E+00  0.46727299738E+02  0.24123322826E+02  0.52758163860E+02  0.41800000000E+01 0. -1.
        -11    1    1    2    0    0  0.70118933884E+00  0.19297095503E+02 -0.41888900703E+02  0.46125367895E+02  0.00000000000E+00 0.  1.
         11    1    1    2    0    0 -0.40882264198E+01  0.10701454553E+02  0.43104750773E+02  0.44601056759E+02  0.00000000000E+00 0. -1.
</event>
<event>
 6    1  0.6597032E-006  0.8096620E+02  0.7561462E-02  0.1326332E+00
          2   -1    0    0  501    0  0.00000000000E+00  0.00000000000E+00  0.10536889495E+03  0.10536889495E+03  0.00000000000E+00 0. -1.
         -2   -1    0    0    0  501 -0.00000000000E+00 -0.00000000000E+00 -0.12143392486E+03  0.12143392486E+03  0.00000000000E+00 0.  1.
          5    1    1    2  502    0  0.47506423455E+02  0.31132233158E+02  0.18517287408E+02  0.59886881233E+02  0.41800000000E+01 0.  1.
         -5    1    1    2    0  502 -0.41457303604E+02 -0.15719252342E+02 -0.56396931791E+02  0.71860206176E+02  0.41800000000E+01 0.  1.
        -11    1    1    2    0    0  0.54602006643E+01 -0.36240893965E+02  0.47530034615E+02  0.60019333362E+02  0.00000000000E+00 0. -1.
         11    1    1    2    0    0 -0.11509320515E+02  0.20827913150E+02 -0.25715420137E+02  0.35036399041E+02  0.00000000000E+00 0.  1.
</event>
<event>
 6    1  0.6597032E-006  0.1015573E+03  0.7561462E-02  0.1277055E+00
          2   -1    0    0  501    0  0.00000000000E+00  0.00000000000E+00  0.66219018099E+03  0.66219018099E+03  0.00000000000E+00 0. -1.
         -2   -1    0    0    0  501 -0.00000000000E+00 -0.00000000000E+00 -0.29248030121E+02  0.29248030121E+02  0.00000000000E+00 0.  1.
          5    1    1    2  502    0 -0.36702825827E+02  0.37939700073E+02  0.21639179010E+03  0.22277656405E+03  0.41800000000E+01 0.  1.
         -5    1    1    2    0  502 -0.42225808254E+02 -0.45366182703E+02  0.41795285919E+02  0.74869404571E+02  0.41800000000E+01 0.  1.
        -11    1    1    2    0    0  0.24752158014E+02 -0.15512760594E+02  0.23077476903E+02  0.37227476517E+02  0.00000000000E+00 0.  1.
         11    1    1    2    0    0  0.54176476066E+02  0.22939243225E+02  0.35167759794E+03  0.35656476598E+03  0.00000000000E+00 0. -1.
</event>
<event>
 6    1  0.6597032E-006  0.1228519E+03  0.7561462E-02  0.1238465E+00
          2   -1    0    0  501    0  0.00000000000E+00  0.00000000000E+00  0.25102299835E+03  0.25102299835E+03  0.00000000000E+00 0. -1.
         -2   -1    0    0    0  501 -0.00000000000E+00 -0.00000000000E+00 -0.11829578777E+03  0.11829578777E+03  0.00000000000E+00 0.  1.
          5    1    1    2  502    0  0.62821575777E+02 -0.74890866774E+02 -0.58953204565E+02  0.11422847735E+03  0.41800000000E+01 0.  1.
         -5    1    1    2    0  502 -0.10603974060E+02  0.35122034831E+02  0.44414426391E+01  0.37191402356E+02  0.41800000000E+01 0.  1.
        -11    1    1    2    0    0 -0.74272967346E+02  0.11617043202E+02  0.11680564246E+03  0.13890639827E+03  0.00000000000E+00 0. -1.
         11    1    1    2    0    0  0.22055365628E+02  0.28151788741E+02  0.70433330049E+02  0.78992508151E+02  0.00000000000E+00 0.  1.
</event>
<event>
 6    1  0.6597032E-006  0.1994858E+03  0.7561462E-02  0.1150174E+00
          2   -1    0    0  501    0  0.00000000000E+00  0.00000000000E+00  0.39987010027E+03  0.39987010027E+03  0.00000000000E+00 0. -1.
         -2   -1    0    0    0  501 -0.00000000000E+00 -0.00000000000E+00 -0.13785308863E+03  0.13785308863E+03  0.00000000000E+00 0.  1.
          5    1    1    2  502    0 -0.22431417990E+02 -0.55168532706E+02  0.48922831078E+02  0.77185823275E+02  0.41800000000E+01 0. -1.
         -5    1    1    2    0  502  0.80616041008E+02 -0.11852263468E+03 -0.26247514836E+02  0.14578396837E+03  0.41800000000E+01 0. -1.
        -11    1    1    2    0    0 -0.65177204103E+02  0.86041327971E+02  0.86085437239E+02  0.13806476943E+03  0.00000000000E+00 0.  1.
         11    1    1    2    0    0  0.69925810853E+01  0.87649839415E+02  0.15325625815E+03  0.17668862782E+03  0.00000000000E+00 0. -1.
</event>
<event>
 6    1  0.6597032E-006  0.1394056E+03  0.7561462E-02  0.1214131E+00
         -2   -1    0    0    0  501 -0.00000000000E+00  0.00000000000E+00  0.81551244215E+02  0.81551244215E+02  0.00000000000E+00 0.  1.
          2   -1    0    0  501    0  0.00000000000E+00 -0.00000000000E+00 -0.33216750791E+03  0.33216750791E+03  0.00000000000E+00 0. -1.
          5    1    1    2  502    0 -0.88014559002E+01 -0.45405568297E+02 -0.12985626029E+03  0.13791030417E+03  0.41800000000E+01 0.  1.
         -5    1    1    2    0  502 -0.43380126479E+02 -0.65287989467E+02  0.24770707455E+01  0.78536394248E+02  0.41800000000E+01 0.  1.
        -11    1    1    2    0    0  0.57933384571E+02  0.17521389112E+02 -0.52992744166E+02  0.80445677686E+02  0.00000000000E+00 0. -1.
         11    1    1    2    0    0 -0.57518021917E+01  0.93172168653E+02 -0.70244329981E+02  0.11682637602E+03  0.00000000000E+00 0.  1.
</event>
<event>
 6    1  0.6597032E-006  0.1544641E+03  0.7561462E-02  0.1195092E+00
         -1   -1    0    0    0  501 -0.00000000000E+00  0.00000000000E+00  0.82444582509E+02  0.82444582509E+02  0.00000000000E+00 0.  1.
          1   -1    0    0  501    0  0.00000000000E+00 -0.00000000000E+00 -0.37509818133E+03  0.37509818133E+03  0.00000000000E+00 0. -1.
          5    1    1    2  502    0  0.85995355297E+02  0.11586338092E+03 -0.71669557917E+02  0.16116302957E+03  0.41800000000E+01 0.  1.
         -5    1    1    2    0  502  0.13411774577E+02 -0.20973325512E+02 -0.64370507643E+02  0.69143262394E+02  0.41800000000E+01 0.  1.
        -11    1    1    2    0    0 -0.50839279903E+02 -0.32784824398E+02 -0.13107712878E+03  0.14436305199E+03  0.00000000000E+00 0.  1.
         11    1    1    2    0    0 -0.48567849970E+02 -0.62105231005E+02 -0.25536404488E+02  0.82873419883E+02  0.00000000000E+00 0. -1.
</event>
<event>
 6    1  0.6597032E-006  0.1018568E+03  0.7561462E-02  0.1276439E+00
          1   -1    0    0  501    0  0.00000000000E+00  0.00000000000E+00  0.17455284630E+03  0.17455284630E+03  0.00000000000E+00 0. -1.
         -1   -1    0    0    0  501 -0.00000000000E+00 -0.00000000000E+00 -0.88653034398E+02  0.88653034398E+02  0.00000000000E+00 0.  1.
          5    1    1    2  502    0 -0.17184594136E+02 -0.81330128289E+02 -0.88143078590E+01  0.83696263156E+02  0.41800000000E+01 0. -1.
         -5    1    1    2    0  502 -0.19547315894E+02  0.36095099034E+02  0.40663251781E+02  0.57930356277E+02  0.41800000000E+01 0. -1.
        -11    1    1    2    0    0 -0.70830522411E+01  0.32971071987E+02 -0.16567098400E+02  0.37572995175E+02  0.00000000000E+00 0.  1.
         11    1    1    2    0    0  0.43814962271E+02  0.12263957268E+02  0.70617966378E+02  0.84006266088E+02  0.00000000000E+00 0. -1.
</event>
<event>
 6    1  0.6597032E-006  0.1024488E+03  0.7561462E-02  0.1275229E+00
         -2   -1    0    0    0  501 -0.00000000000E+00  0.00000000000E+00  0.90206666400E+03  0.90206666400E+03  0.00000000000E+00 0. -1.
          2   -1    0    0  501    0  0.00000000000E+00 -0.00000000000E+00 -0.20821361947E+02  0.20821361947E+02  0.00000000000E+00 0.  1.
          5    1    1    2  502    0 -0.46387165413E+02 -0.51234003374E+02  0.61426140513E+03  0.61815146885E+03  0.41800000000E+01 0. -1.
         -5    1    1    2    0  502  0.15364670301E+01  0.43507074001E+02  0.11253824832E+03  0.12073754989E+03  0.41800000000E+01 0. -1.
        -11    1    1    2    0    0  0.16613830243E+02  0.43374405703E+02  0.41671060401E+02  0.62400606571E+02  0.00000000000E+00 0.  1.
         11    1    1    2    0    0  0.28236868140E+02 -0.35647476330E+02  0.11277458821E+03  0.12159840064E+03  0.00000000000E+00 0. -1.
</event>
<event>
 6    1  0.6597032E-006  0.1211759E+03  0.7561462E-02  0.1241170E+00
          2   -1    0    0  501    0  0.00000000000E+00  0.00000000000E+00  0.17493274370E+03  0.17493274370E+03  0.00000000000E+00 0. -1.
         -2   -1    0    0    0  501 -0.00000000000E+00 -0.00000000000E+00 -0.10812567552E+03  0.10812567552E+03  0.00000000000E+00 0.  1.
          5    1    1    2  502    0 -0.20527611824E+02 -0.14002394020E+02 -0.35000306908E+02  0.43127065390E+02  0.41800000000E+01 0. -1.
         -5    1    1    2    0  502  0.62439931228E+02  0.61491311329E+02  0.41975897426E+02  0.97259317011E+02  0.41800000000E+01 0. -1.
        -11    1    1    2    0    0 -0.94619352074E+01  0.37379583797E+02  0.20420367265E+02  0.43632016937E+02  0.00000000000E+00 0. -1.
         11    1    1    2    0    0 -0.32450384197E+02 -0.84868501107E+02  0.39411110404E+02  0.99040019881E+02  0.00000000000E+00 0.  1.
</event>
<event>
 6    1  0.6597032E-006  0.1104139E+03  0.7561462E-02  0.1259805E+00
          1   -1    0    0  501    0  0.00000000000E+00  0.00000000000E+00  0.53132798764E+03  0.53132798764E+03  0.00000000000E+00 0. -1.
         -1   -1    0    0    0  501 -0.00000000000E+00 -0.00000000000E+00 -0.26231198834E+02  0.26231198834E+02  0.00000000000E+00 0.  1.
          5    1    1    2  502    0 -0.16288616896E+01  0.62429672433E+02  0.90096902524E+02  0.10970433645E+03  0.41800000000E+01 0.  1.
         -5    1    1    2    0  502 -0.20715987805E+02 -0.60886176201E+02  0.98361167794E+02  0.11759536697E+03  0.41800000000E+01 0.  1.
        -11    1    1    2    0    0  0.56762022366E+02  0.96908348917E+01  0.18768420041E+03  0.19631912426E+03  0.00000000000E+00 0. -1.
         11    1    1    2    0    0 -0.34417172872E+02 -0.11234331124E+02  0.12895451807E+03  0.13394035880E+03  0.00000000000E+00 0.  1.
</event>
<event>
 6    1  0.6597032E-006  0.1195670E+03  0.7561462E-02  0.1243813E+00
         -2   -1    0    0    0  501 -0.00000000000E+00  0.00000000000E+00  0.60191312995E+02  0.60191312995E+02  0.00000000000E+00 0. -1.
          2   -1    0    0  501    0  0.00000000000E+00 -0.00000000000E+00 -0.29854025999E+03  0.29854025999E+03  0.00000000000E+00 0.  1.
          5    1    1    2  502    0 -0.29614025889E+02 -0.90713079107E+02 -0.32961639221E+02  0.10104353176E+03  0.41800000000E+01 0.  1.
         -5    1    1    2    0  502  0.34129532823E+02  0.23934600759E+02 -0.42339445859E+02  0.59563337715E+02  0.41800000000E+01 0.  1.
        -11    1    1    2    0    0 -0.12453127111E+02 -0.15036687735E+02 -0.75717896481E+02  0.78194515155E+02  0.00000000000E+00 0.  1.
         11    1    1    2    0    0  0.79376201771E+01  0.81815166084E+02 -0.87329965431E+02  0.11993018835E+03  0.00000000000E+00 0. -1.
</event>
<event>
 6    1  0.6597032E-006  0.6813584E+02  0.7561462E-02  0.1366549E+00
         -1   -1    0    0    0  501 -0.00000000000E+00  0.00000000000E+00  0.35174456485E+02  0.35174456485E+02  0.00000000000E+00 0.  1.
          1   -1    0    0  501    0  0.00000000000E+00 -0.00000000000E+00 -0.38792214934E+03  0.38792214934E+03  0.00000000000E+00 0. -1.
          5    1    1    2  502    0  0.29220696860E+02 -0.51514459211E+01  0.14592579346E+02  0.33328700725E+02  0.41800000000E+01 0.  1.
         -5    1    1    2    0  502  0.21328436711E+01 -0.95895346452E+01 -0.16493704310E+03  0.16528220952E+03  0.41800000000E+01 0.  1.
        -11    1    1    2    0    0 -0.61124445237E+02  0.22043477525E+02 -0.11829948082E+03  0.13496992209E+03  0.00000000000E+00 0. -1.
         11    1    1    2    0    0  0.29770904706E+02 -0.73024969583E+01 -0.84103748279E+02  0.89515773489E+02  0.00000000000E+00 0.  1.
</event>
<event>
 6    1  0.6597032E-006  0.4993634E+03  0.7561462E-02  0.1013945E+00
         -2   -1    0    0    0  501 -0.00000000000E+00  0.00000000000E+00  0.20299652309E+03  0.20299652309E+03  0.00000000000E+00 0.  1.
          2   -1    0    0  501    0  0.00000000000E+00 -0.00000000000E+00 -0.14570514295E+04  0.14570514295E+04  0.00000000000E+00 0. -1.
          5    1    1    2  502    0  0.66979094268E+02  0.11908395647E+03 -0.22440805270E+03  0.26276155403E+03  0.41800000000E+01 0. -1.
         -5    1    1    2    0  502  0.37906536416E+03  0.23139930321E+02 -0.18290403562E+03  0.42154165313E+03  0.41800000000E+01 0.  1.
        -11    1    1    2    0    0 -0.16118304895E+03  0.56561890953E+01 -0.33266320419E+03  0.36969822175E+03  0.00000000000E+00 0.  1.
         11    1    1    2    0    0 -0.28486140947E+03 -0.14788007589E+03 -0.51407961391E+03  0.60604652370E+03  0.00000000000E+00 0. -1.
</event>
<event>
 6    1  0.6597032E-006  0.8892093E+02  0.7561462E-02  0.1305486E+00
          2   -1    0    0  501    0  0.00000000000E+00  0.00000000000E+00  0.39651212678E+02  0.39651212678E+02  0.00000000000E+00 0. -1.
         -2   -1    0    0    0  501 -0.00000000000E+00 -0.00000000000E+00 -0.38197604672E+03  0.38197604672E+03  0.00000000000E+00 0.  1.
          5    1    1    2  502    0 -0.49297937983E+02 -0.36173174114E+02 -0.82096274073E+02  0.10245026028E+03  0.41800000000E+01 0.  1.
         -5    1    1    2    0  502  0.44751835589E+02  0.29023958894E+02 -0.18556891953E+03  0.19312797124E+03  0.41800000000E+01 0.  1.
        -11    1    1    2    0    0 -0.26580259698E+02 -0.88990760075E+01  0.13556113819E+02  0.31136345021E+02  0.00000000000E+00 0. -1.
         11    1    1    2    0    0  0.31126362092E+02  0.16048291227E+02 -0.88215754258E+02  0.94912682861E+02  0.00000000000E+00 0.  1.
</event>
<event>
 6    1  0.6597032E-006  0.9010337E+02  0.7561462E-02  0.1302602E+00
          1   -1    0    0  501    0  0.00000000000E+00  0.00000000000E+00  0.69912239981E+03  0.69912239981E+03  0.00000000000E+00 0. -1.
         -1   -1    0    0    0  501 -0.00000000000E+00 -0.00000000000E+00 -0.19617766454E+02  0.19617766454E+02  0.00000000000E+00 0.  1.
          5    1    1    2  502    0 -0.25758226495E+02  0.43428955274E+02  0.60881076353E+02  0.79205670544E+02  0.41800000000E+01 0. -1.
         -5    1    1    2    0  502  0.17234195410E+02 -0.35909375004E+02  0.30547115616E+03  0.30808537835E+03  0.41800000000E+01 0. -1.
        -11    1    1    2    0    0 -0.64861615802E+01 -0.46900385966E+02  0.68976433156E+02  0.83662804320E+02  0.00000000000E+00 0.  1.
         11    1    1    2    0    0  0.15010192666E+02  0.39380805695E+02  0.24417596769E+03  0.24778631305E+03  0.00000000000E+00 0. -1.
</event>
<event>
 6    1  0.6597032E-006  0.9501075E+02  0.7561462E-02  0.1291152E+00
          1   -1    0    0  501    0  0.00000000000E+00  0.00000000000E+00  0.58778104755E+02  0.58778104755E+02  0.00000000000E+00 0. -1.
         -1   -1    0    0    0  501 -0.00000000000E+00 -0.00000000000E+00 -0.22006874209E+03  0.22006874209E+03  0.00000000000E+00 0.  1.
          5    1    1    2  502    0  0.46636538849E+02 -0.62299152276E+02 -0.44320377279E+02  0.89654444242E+02  0.41800000000E+01 0. -1.
         -5    1    1    2    0  502 -0.26068917343E+02  0.37135449755E+02 -0.66340603917E+02  0.80480918286E+02  0.41800000000E+01 0. -1.
        -11    1    1    2    0    0  0.82504067733E+01  0.35087863483E+02  0.12871887809E+02  0.38274180220E+02  0.00000000000E+00 0. -1.
         11    1    1    2    0    0 -0.28818028279E+02 -0.99241609620E+01 -0.63501543948E+02  0.70437304098E+02  0.00000000000E+00 0.  1.
</event>
<event>
 6    1  0.6597032E-006  0.1029005E+03  0.7561462E-02  0.1274312E+00
         -2   -1    0    0    0  501 -0.00000000000E+00  0.00000000000E+00  0.55208127280E+03  0.55208127280E+03  0.00000000000E+00 0.  1.
          2   -1    0    0  501    0  0.00000000000E+00 -0.00000000000E+00 -0.29634385272E+02  0.29634385272E+02  0.00000000000E+00 0. -1.
          5    1    1    2  502    0 -0.20555404773E+02  0.75683072120E+02  0.31065760386E+03  0.32043107107E+03  0.41800000000E+01 0. -1.
         -5    1    1    2    0  502 -0.80214798726E+01 -0.13730944424E+02 -0.46831734066E+01  0.17096417382E+02  0.41800000000E+01 0. -1.
        -11    1    1    2    0    0  0.45484387498E+02  0.11454976316E+01  0.66161250150E+02  0.80296031610E+02  0.00000000000E+00 0. -1.
         11    1    1    2    0    0 -0.16907502852E+02 -0.63097625328E+02  0.15031120693E+03  0.16389213801E+03  0.00000000000E+00 0.  1.
</event>
<event>
 6    1  0.6597032E-006  0.1500021E+03  0.7561462E-02  0.1200470E+00
         -2   -1    0    0    0  501 -0.00000000000E+00  0.00000000000E+00  0.73355741509E+02  0.73355741509E+02  0.00000000000E+00 0.  1.
          2   -1    0    0  501    0  0.00000000000E+00 -0.00000000000E+00 -0.33975317401E+03  0.33975317401E+03  0.00000000000E+00 0. -1.
          5    1    1    2  502    0 -0.47526507506E+02  0.39352752023E+02 -0.69913188758E+02  0.93342028957E+02  0.41800000000E+01 0.  1.
         -5    1    1    2    0  502 -0.53759291931E+02 -0.92100410376E+02 -0.90256755503E+02  0.13977231977E+03  0.41800000000E+01 0.  1.
        -11    1    1    2    0    0  0.10173364145E+02 -0.14838622420E+02 -0.50487054447E+02  0.53596872298E+02  0.00000000000E+00 0. -1.
         11    1    1    2    0    0  0.91112435291E+02  0.67586280774E+02 -0.55740433789E+02  0.12639769449E+03  0.00000000000E+00 0.  1.
</event>
<event>
 6    1  0.6597032E-006  0.9785968E+02  0.7561462E-02  0.1284862E+00
         -1   -1    0    0    0  501 -0.00000000000E+00  0.00000000000E+00  0.54440418319E+03  0.54440418319E+03  0.00000000000E+00 0. -1.
          1   -1    0    0  501    0  0.00000000000E+00 -0.00000000000E+00 -0.21510514959E+02  0.21510514959E+02  0.00000000000E+00 0.  1.
          5    1    1    2  502    0  0.31967260374E+02  0.59900513473E+02  0.21474777066E+03  0.22526441053E+03  0.41800000000E+01 0.  1.
         -5    1    1    2    0  502 -0.27201822619E+02 -0.49418843603E+02  0.13560672774E+03  0.14693133860E+03  0.41800000000E+01 0.  1.
        -11    1    1    2    0    0  0.22654595523E+02  0.19935275516E+02  0.21052952610E+02  0.36795009469E+02  0.00000000000E+00 0.  1.
         11    1    1    2    0    0 -0.27420033278E+02 -0.30416945386E+02  0.15148621723E+03  0.15692393954E+03  0.00000000000E+00 0. -1.
</event>
<event>
 6    1  0.6597032E-006  0.3003213E+03  0.7561462E-02  0.1085080E+00
          1   -1    0    0  501    0  0.00000000000E+00  0.00000000000E+00  0.26143420025E+04  0.26143420025E+04  0.00000000000E+00 0. -1.
         -1   -1    0    0    0  501 -0.00000000000E+00 -0.00000000000E+00 -0.37419478080E+02  0.37419478080E+02  0.00000000000E+00 0.  1.
          5    1    1    2  502    0 -0.58135563320E+02 -0.22661231588E+01  0.55829573948E+03  0.56133455635E+03  0.41800000000E+01 0. -1.
         -5    1    1    2    0  502 -0.22856240736E+03  0.59344339104E+02  0.83319775251E+03  0.86602453304E+03  0.41800000000E+01 0. -1.
        -11    1    1    2    0    0  0.19586744776E+03 -0.81393768053E+02  0.79472974914E+03  0.82254749209E+03  0.00000000000E+00 0.  1.
         11    1    1    2    0    0  0.90830522914E+02  0.24315552108E+02  0.39069928334E+03  0.40185489914E+03  0.00000000000E+00 0. -1.
</event>
<event>
 6    1  0.6597032E-006  0.1727965E+03  0.7561462E-02  0.1174963E+00
          1   -1    0    0  501    0  0.00000000000E+00  0.00000000000E+00  0.26657413248E+03  0.26657413248E+03  0.00000000000E+00 0. -1.
         -1   -1    0    0    0  501 -0.00000000000E+00 -0.00000000000E+00 -0.18602184991E+03  0.18602184991E+03  0.00000000000E+00 0.  1.
          5    1    1    2  502    0  0.13055459713E+02 -0.11367125740E+03 -0.90249902475E+02  0.14578791817E+03  0.41800000000E+01 0.  1.
         -5    1    1    2    0  502 -0.61464439522E+02 -0.21777709028E+02 -0.52309043420E+00  0.65344410318E+02  0.41800000000E+01 0.  1.
        -11    1    1    2    0    0  0.31698847036E+02  0.25398605630E+01  0.13752614791E+02  0.34646821047E+02  0.00000000000E+00 0.  1.
         11    1    1    2    0    0  0.16710132773E+02  0.13290910586E+03  0.15757266068E+03  0.20681683286E+03  0.00000000000E+00 0. -1.
</event>
<event>
 6    1  0.6597032E-006  0.1649206E+03  0.7561462E-02  0.1183251E+00
         -2   -1    0    0    0  501 -0.00000000000E+00  0.00000000000E+00  0.23216495131E+02  0.23216495131E+02  0.00000000000E+00 0.  1.
          2   -1    0    0  501    0  0.00000000000E+00 -0.00000000000E+00 -0.13501857867E+04  0.13501857867E+04  0.00000000000E+00 0. -1.
          5    1    1    2  502    0 -0.14496466113E+03  0.60985564443E+02 -0.47520439141E+03  0.50057035276E+03  0.41800000000E+01 0.  1.
         -5    1    1    2    0  502  0.18244907020E+02 -0.17869942905E+02 -0.79987880116E+02  0.84069880796E+02  0.41800000000E+01 0.  1.
        -11    1    1    2    0    0  0.10774204626E+03 -0.58143530570E+02 -0.73222829693E+03  0.74239295356E+03  0.00000000000E+00 0. -1.
         11    1    1    2    0    0  0.18977707849E+02  0.15027909031E+02 -0.39548723166E+02  0.46369094763E+02  0.00000000000E+00 0.  1.
</event>
<event>
 6    1  0.6597032E-006  0.9786129E+02  0.7561462E-02  0.1284859E+00
          1   -1    0    0  501    0  0.00000000000E+00  0.00000000000E+00  0.49811012493E+03  0.49811012493E+03  0.00000000000E+00 0. -1.
         -1   -1    0    0    0  501 -0.00000000000E+00 -0.00000000000E+00 -0.30629113198E+02  0.30629113198E+02  0.00000000000E+00 0.  1.
          5    1    1    2  502    0  0.54245300402E+02  0.62782197685E+02  0.10027900658E+03  0.13022099878E+03  0.41800000000E+01 0. -1.
         -5    1    1    2    0  502 -0.22839604505E+02 -0.41359313809E+02  0.66853522156E+02  0.81970154308E+02  0.41800000000E+01 0. -1.
        -11    1    1    2    0    0 -0.46409212825E+02 -0.18320781515E+02  0.29661060146E+03  0.30077784986E+03  0.00000000000E+00 0. -1.
         11    1    1    2    0    0  0.15003516928E+02 -0.31021023613E+01  0.37378815375E+01  0.15770235180E+02  0.00000000000E+00 0.  1.
</event>
<event>
 6    1  0.6597032E-006  0.8363963E+02  0.7561462E-02  0.1319029E+00
         -2   -1    0    0    0  501 -0.00000000000E+00  0.00000000000E+00  0.34929157473E+03  0.34929157473E+03  0.00000000000E+00 0.  1.
          2   -1    0    0  501    0  0.00000000000E+00 -0.00000000000E+00 -0.42298805150E+02  0.42298805150E+02  0.00000000000E+00 0. -1.
          5    1    1    2  502    0 -0.20840336409E+02  0.54022985004E+01  0.19512306963E+03  0.19635169761E+03  0.41800000000E+01 0.  1.
         -5    1    1    2    0  502  0.39638070742E+02  0.37978958566E+02  0.23364596653E+02  0.59807647694E+02  0.41800000000E+01 0.  1.
        -11    1    1    2    0    0 -0.47651274252E+02 -0.15343235385E+02  0.16076920169E+02  0.52578761606E+02  0.00000000000E+00 0. -1.
         11    1    1    2    0    0  0.28853539918E+02 -0.28038021682E+02  0.72428183130E+02  0.82852272976E+02  0.00000000000E+00 0.  1.
</event>
<event>
 6    1  0.6597032E-006  0.1340320E+03  0.7561462E-02  0.1221593E+00
          1   -1    0    0  501    0  0.00000000000E+00  0.00000000000E+00  0.45734620347E+03  0.45734620347E+03  0.00000000000E+00 0. -1.
         -1   -1    0    0    0  501 -0.00000000000E+00 -0.00000000000E+00 -0.48818295803E+02  0.48818295803E+02  0.00000000000E+00 0.  1.
          5    1    1    2  502    0  0.51760403855E+02 -0.23673751115E+02  0.16669674514E+02  0.59455330690E+02  0.41800000000E+01 0.  1.
         -5    1    1    2    0  502  0.17738845581E+02  0.82139729694E+02  0.12209055461E+03  0.14827399557E+03  0.41800000000E+01 0.  1.
        -11    1    1    2    0    0 -0.90195897890E+02 -0.38402570517E+02  0.19381153230E+03  0.21719338727E+03  0.00000000000E+00 0.  1.
         11    1    1    2    0    0  0.20696648454E+02 -0.20063408062E+02  0.75956146241E+02  0.81241785751E+02  0.00000000000E+00 0. -1.
</event>
<event>
 6    1  0.6597032E-006  0.9503862E+02  0.7561462E-02  0.1291089E+00
          2   -1    0    0  501    0  0.00000000000E+00  0.00000000000E+00  0.88956010172E+02  0.88956010172E+02  0.00000000000E+00 0. -1.
         -2   -1    0    0    0  501 -0.00000000000E+00 -0.00000000000E+00 -0.34704117168E+03  0.34704117168E+03  0.00000000000E+00 0.  1.
          5    1    1    2  502    0  0.39065752236E+01  0.42613126749E+02 -0.11183650643E+03  0.11981659514E+03  0.41800000000E+01 0. -1.
         -5    1    1    2    0  502  0.31327717789E+01 -0.72193985777E+02 -0.19263432246E+03  0.20578445139E+03  0.41800000000E+01 0.  1.
        -11    1    1    2    0    0  0.13042759734E+02  0.46590299234E+02  0.62878487545E+02  0.79337719655E+02  0.00000000000E+00 0. -1.
         11    1    1    2    0    0 -0.20082106736E+02 -0.17009440206E+02 -0.16492820166E+02  0.31058415673E+02  0.00000000000E+00 0.  1.
</event>
<event>
 6    1  0.6597032E-006  0.9481204E+02  0.7561462E-02  0.1291600E+00
          1   -1    0    0  501    0  0.00000000000E+00  0.00000000000E+00  0.37879243452E+03  0.37879243452E+03  0.00000000000E+00 0.  1.
         -1   -1    0    0    0  501 -0.00000000000E+00 -0.00000000000E+00 -0.45919886752E+02  0.45919886752E+02  0.00000000000E+00 0. -1.
          5    1    1    2  502    0 -0.36263592120E+00 -0.55844482050E+02  0.15636278276E+03  0.16608892170E+03  0.41800000000E+01 0.  1.
         -5    1    1    2    0  502  0.26525010966E+02 -0.88691318824E+01 -0.17628513846E+02  0.33323784412E+02  0.41800000000E+01 0.  1.
        -11    1    1    2    0    0  0.28457010901E+02  0.20517705496E+02  0.11119226554E+03  0.11659544426E+03  0.00000000000E+00 0.  1.
         11    1    1    2    0    0 -0.54619385946E+02  0.44195908436E+02  0.82946013318E+02  0.10870417089E+03  0.00000000000E+00 0. -1.
</event>
<event>
 6    1  0.6597032E-006  0.7925645E+02  0.7561462E-02  0.1331175E+00
         -2   -1    0    0    0  501 -0.00000000000E+00  0.00000000000E+00  0.31211334567E+03  0.31211334567E+03  0.00000000000E+00 0.  1.
          2   -1    0    0  501    0  0.00000000000E+00 -0.00000000000E+00 -0.43758144296E+02  0.43758144296E+02  0.00000000000E+00 0. -1.
          5    1    1    2  502    0  0.33985870018E+02  0.30447237486E+02  0.96981397828E+01  0.46835883110E+02  0.41800000000E+01 0.  1.
         -5    1    1    2    0  502 -0.61111924980E+02  0.66263506487E+01  0.14376931747E+03  0.15641504066E+03  0.41800000000E+01 0.  1.
        -11    1    1    2    0    0  0.31592244527E+01 -0.23145207899E+02  0.12182590410E+03  0.12404528310E+03  0.00000000000E+00 0.  1.
         11    1    1    2    0    0  0.23966830509E+02 -0.13928380235E+02 -0.69381599807E+01  0.28575283105E+02  0.00000000000E+00 0. -1.
</event>
<event>
 6    1  0.6597032E-006  0.1059593E+03  0.7561462E-02  0.1268241E+00
         -1   -1    0    0    0  501 -0.00000000000E+00  0.00000000000E+00  0.14700072669E+02  0.14700072669E+02  0.00000000000E+00 0.  1.
          1   -1    0    0  501    0  0.00000000000E+00 -0.00000000000E+00 -0.10969878978E+04  0.10969878978E+04  0.00000000000E+00 0. -1.
          5    1    1    2  502    0 -0.89091217854E+01  0.59790434799E+02 -0.12218438443E+03  0.13638462062E+03  0.41800000000E+01 0.  1.
         -5    1    1    2    0  502  0.53054383431E+02  0.12577444637E+02 -0.54302341950E+03  0.54576997558E+03  0.41800000000E+01 0.  1.
        -11    1    1    2    0    0  0.17763763071E+01 -0.40972313635E+02 -0.10875910752E+03  0.11623437299E+03  0.00000000000E+00 0.  1.
         11    1    1    2    0    0 -0.45921637952E+02 -0.31395565800E+02 -0.30832091372E+03  0.31329900131E+03  0.00000000000E+00 0. -1.
</event>
<event>
 6    1  0.6597032E-006  0.1178649E+03  0.7561462E-02  0.1246661E+00
         -1   -1    0    0    0  501 -0.00000000000E+00  0.00000000000E+00  0.10577502884E+04  0.10577502884E+04  0.00000000000E+00 0.  1.
          1   -1    0    0  501    0  0.00000000000E+00 -0.00000000000E+00 -0.14267595768E+02  0.14267595768E+02  0.00000000000E+00 0. -1.
          5    1    1    2  502    0  0.82767302738E+01 -0.38755083847E+02  0.12157018239E+03  0.12793452402E+03  0.41800000000E+01 0.  1.
         -5    1    1    2    0  502  0.10081729261E+02  0.94650796730E+02  0.47182919765E+03  0.48135296689E+03  0.41800000000E+01 0.  1.
        -11    1    1    2    0    0  0.12071741996E+02  0.17436610468E+02  0.42631241657E+02  0.47614967233E+02  0.00000000000E+00 0. -1.
         11    1    1    2    0    0 -0.30430201530E+02 -0.73332323351E+02  0.40745207092E+03  0.41511542601E+03  0.00000000000E+00 0.  1.
</event>
<event>
 6    1  0.6597032E-006  0.1140655E+03  0.7561462E-02  0.1253221E+00
          1   -1    0    0  501    0  0.00000000000E+00  0.00000000000E+00  0.73278820907E+03  0.73278820907E+03  0.00000000000E+00 0. -1.
         -1   -1    0    0    0  501 -0.00000000000E+00 -0.00000000000E+00 -0.27808302164E+02  0.27808302164E+02  0.00000000000E+00 0.  1.
          5    1    1    2  502    0  0.54196504994E+02 -0.72856959325E+00  0.28211709161E+02  0.61246754208E+02  0.41800000000E+01 0.  1.
         -5    1    1    2    0  502 -0.13869540080E+02  0.56883271360E+02  0.19637788501E+03  0.20496296452E+03  0.41800000000E+01 0.  1.
        -11    1    1    2    0    0 -0.37250076832E+02  0.17636694880E+02  0.13330975233E+03  0.13953534068E+03  0.00000000000E+00 0.  1.
         11    1    1    2    0    0 -0.30768880817E+01 -0.73791396647E+02  0.34708056040E+03  0.35485145183E+03  0.00000000000E+00 0. -1.
</event>
<event>
 6    1  0.6597032E-006  0.1191282E+03  0.7561462E-02  0.1244542E+00
          1   -1    0    0  501    0  0.00000000000E+00  0.00000000000E+00  0.67420777258E+03  0.67420777258E+03  0.00000000000E+00 0. -1.
         -1   -1    0    0    0  501 -0.00000000000E+00 -0.00000000000E+00 -0.24099754272E+02  0.24099754272E+02  0.00000000000E+00 0.  1.
          5    1    1    2  502    0 -0.87589940785E+02 -0.90077301763E+01  0.18247054134E+03  0.20264774310E+03  0.41800000000E+01 0.  1.
         -5    1    1    2    0  502  0.43046990553E+02 -0.11811612533E+02  0.64938206093E+02  0.78911346439E+02  0.41800000000E+01 0.  1.
        -11    1    1    2    0    0  0.21331116626E+02  0.57799732223E+02  0.19467473509E+03  0.20419127813E+03  0.00000000000E+00 0.  1.
         11    1    1    2    0    0  0.23211833605E+02 -0.36980389513E+02  0.20802453579E+03  0.21255715918E+03  0.00000000000E+00 0. -1.
</event>
<event>
 6    1  0.6597032E-006  0.8909890E+02  0.7561462E-02  0.1305049E+00
          2   -1    0    0  501    0  0.00000000000E+00  0.00000000000E+00  0.13855774648E+03  0.13855774648E+03  0.00000000000E+00 0.  1.
         -2   -1    0    0    0  501 -0.00000000000E+00 -0.00000000000E+00 -0.11803215767E+03  0.11803215767E+03  0.00000000000E+00 0. -1.
          5    1    1    2  502    0  0.26728068325E+02  0.86782623641E+01  0.53928844569E+02  0.60954856661E+02  0.41800000000E+01 0. -1.
         -5    1    1    2    0  502  0.35225403425E+02 -0.18841255554E+02 -0.68991174414E+02  0.79831550807E+02  0.41800000000E+01 0. -1.
        -11    1    1    2    0    0  0.18576625680E+02 -0.16444237618E+02  0.31866560067E+01  0.25013171510E+02  0.00000000000E+00 0.  1.
         11    1    1    2    0    0 -0.80530097429E+02  0.26607230808E+02  0.32401262655E+02  0.90790325172E+02  0.00000000000E+00 0. -1.
</event>
<event>
 6    1  0.6597032E-006  0.8941741E+02  0.7561462E-02  0.1304269E+00
          1   -1    0    0  501    0  0.00000000000E+00  0.00000000000E+00  0.26448696942E+02  0.26448696942E+02  0.00000000000E+00 0. -1.
         -1   -1    0    0    0  501 -0.00000000000E+00 -0.00000000000E+00 -0.57102617245E+03  0.57102617245E+03  0.00000000000E+00 0.  1.
          5    1    1    2  502    0  0.11841259663E+02  0.10194681035E+02  0.18249313307E+01  0.16277276374E+02  0.41800000000E+01 0.  1.
         -5    1    1    2    0  502 -0.55252701441E+02 -0.36087611743E+02 -0.36950606266E+03  0.37537631716E+03  0.41800000000E+01 0.  1.
        -11    1    1    2    0    0  0.37907259833E+02 -0.24958323379E+02 -0.43133639735E+02  0.62613010874E+02  0.00000000000E+00 0. -1.
         11    1    1    2    0    0  0.55041819455E+01  0.50851254087E+02 -0.13376270444E+03  0.14320826499E+03  0.00000000000E+00 0.  1.
</event>
<event>
 6    1  0.6597032E-006  0.1115925E+03  0.7561462E-02  0.1257649E+00
          2   -1    0    0  501    0  0.00000000000E+00  0.00000000000E+00  0.56258703604E+03  0.56258703604E+03  0.00000000000E+00 0. -1.
         -2   -1    0    0    0  501 -0.00000000000E+00 -0.00000000000E+00 -0.18175117819E+03  0.18175117819E+03  0.00000000000E+00 0.  1.
          5    1    1    2  502    0  0.22345174643E+01  0.31166558647E+02  0.13992168415E+02  0.34490587458E+02  0.41800000000E+01 0. -1.
         -5    1    1    2    0  502  0.55749060811E+02 -0.58706133264E+02 -0.15580104858E+03  0.17562974407E+03  0.41800000000E+01 0.  1.
        -11    1    1    2    0    0 -0.33743944249E+02  0.60741148891E+02  0.32698601955E+03  0.33428729848E+03  0.00000000000E+00 0.  1.
         11    1    1    2    0    0 -0.24239634026E+02 -0.33201574274E+02  0.19565871847E+03  0.19993058422E+03  0.00000000000E+00 0. -1.
</event>
<event>
 6    1  0.6597032E-006  0.4291790E+02  0.7561462E-02  0.1487775E+00
         -2   -1    0    0    0  501 -0.00000000000E+00  0.00000000000E+00  0.34715871159E+02  0.34715871159E+02  0.00000000000E+00 0. -1.
          2   -1    0    0  501    0  0.00000000000E+00 -0.00000000000E+00 -0.24480059714E+03  0.24480059714E+03  0.00000000000E+00 0.  1.
          5    1    1    2  502    0  0.19287532574E+02  0.13663083316E+02  0.23173642840E+02  0.33364335464E+02  0.41800000000E+01 0.  1.
         -5    1    1    2    0  502 -0.13967567835E+01 -0.13916416498E+02 -0.13377958695E+03  0.13457365219E+03  0.41800000000E+01 0.  1.
        -11    1    1    2    0    0 -0.10629165665E+02  0.21932189251E+02 -0.31308148223E+02  0.39676192272E+02  0.00000000000E+00 0.  1.
         11    1    1    2    0    0 -0.72616101255E+01 -0.21678856069E+02 -0.68170633645E+02  0.71902288376E+02  0.00000000000E+00 0. -1.
</event>
<event>
 6    1  0.6597032E-006  0.7597215E+02  0.7561462E-02  0.1340887E+00
         -1   -1    0    0    0  501 -0.00000000000E+00  0.00000000000E+00  0.17523724487E+03  0.17523724487E+03  0.00000000000E+00 0.  1.
          1   -1    0    0  501    0  0.00000000000E+00 -0.00000000000E+00 -0.78375187018E+02  0.78375187018E+02  0.00000000000E+00 0. -1.
          5    1    1    2  502    0 -0.76863047389E+01 -0.23813748379E+02 -0.21753912304E+02  0.33419739570E+02  0.41800000000E+01 0. -1.
         -5    1    1    2    0  502 -0.28688775857E+01  0.35311083799E+02  0.12358926398E+03  0.12863468300E+03  0.41800000000E+01 0. -1.
        -11    1    1    2    0    0 -0.39680907493E+02 -0.84626689948E+01  0.26338065444E+01  0.40658678322E+02  0.00000000000E+00 0.  1.
         11    1    1    2    0    0  0.50236089817E+02 -0.30346664251E+01 -0.76071003702E+01  0.50899331002E+02  0.00000000000E+00 0. -1.
</event>
<event>
 6    1  0.6597032E-006  0.1320842E+03  0.7561462E-02  0.1224396E+00
          2   -1    0    0  501    0  0.00000000000E+00  0.00000000000E+00  0.55239610649E+03  0.55239610649E+03  0.00000000000E+00 0. -1.
         -2   -1    0    0    0  501 -0.00000000000E+00 -0.00000000000E+00 -0.48198377288E+02  0.48198377288E+02  0.00000000000E+00 0.  1.
          5    1    1    2  502    0 -0.48091449256E+02 -0.45103871279E+02  0.82523507523E+02  0.10571068248E+03  0.41800000000E+01 0.  1.
         -5    1    1    2    0  502 -0.49780681682E+02  0.79870831073E+02  0.71748160716E+02  0.11841763758E+03  0.41800000000E+01 0.  1.
        -11    1    1    2    0    0  0.46188209698E+02 -0.17780979179E+02  0.45539292359E+02  0.67255788481E+02  0.00000000000E+00 0.  1.
         11    1    1    2    0    0  0.51683921240E+02 -0.16985980616E+02  0.30438676860E+03  0.30921037523E+03  0.00000000000E+00 0. -1.
</event>
<event>
 6    1  0.6597032E-006  0.9220070E+02  0.7561462E-02  0.1297608E+00
          2   -1    0    0  501    0  0.00000000000E+00  0.00000000000E+00  0.12640107292E+03  0.12640107292E+03  0.00000000000E+00 0. -1.
         -2   -1    0    0    0  501 -0.00000000000E+00 -0.00000000000E+00 -0.11715851215E+03  0.11715851215E+03  0.00000000000E+00 0.  1.
          5    1    1    2  502    0 -0.19826073650E+02 -0.54023840928E+02  0.30890059540E+02  0.65447053130E+02  0.41800000000E+01 0.  1.
         -5    1    1    2    0  502  0.29359020258E+02  0.13482262094E+02 -0.61966750328E+02  0.70007671064E+02  0.41800000000E+01 0.  1.
        -11    1    1    2    0    0  0.28150742237E+02 -0.11046998519E+02  0.31408274531E+02  0.43600231351E+02  0.00000000000E+00 0. -1.
         11    1    1    2    0    0 -0.37683688845E+02  0.51588577353E+02  0.89109770287E+01  0.64504629523E+02  0.00000000000E+00 0.  1.
</event>
<event>
 6    1  0.6597032E-006  0.1043170E+03  0.7561462E-02  0.1271471E+00
          1   -1    0    0  501    0  0.00000000000E+00  0.00000000000E+00  0.24684528216E+03  0.24684528216E+03  0.00000000000E+00 0. -1.
         -1   -1    0    0    0  501 -0.00000000000E+00 -0.00000000000E+00 -0.60020178447E+02  0.60020178447E+02  0.00000000000E+00 0.  1.
          5    1    1    2  502    0  0.22858062873E+02  0.60000307205E+02  0.60932523589E+02  0.88615871794E+02  0.41800000000E+01 0. -1.
         -5    1    1    2    0  502  0.62559901971E+01 -0.48807603987E+02 -0.93117409329E+01  0.50254358413E+02  0.41800000000E+01 0. -1.
        -11    1    1    2    0    0 -0.61603846325E+02 -0.47684247449E+01  0.61433537716E+02  0.87131230411E+02  0.00000000000E+00 0.  1.
         11    1    1    2    0    0  0.32489793255E+02 -0.64242784731E+01  0.73770783345E+02  0.80863999994E+02  0.00000000000E+00 0. -1.
</event>
<event>
 6    1  0.6597032E-006  0.1635241E+03  0.7561462E-02  0.1184775E+00
         -2   -1    0    0    0  501 -0.00000000000E+00  0.00000000000E+00  0.76523486278E+02  0.76523486278E+02  0.00000000000E+00 0.  1.
          2   -1    0    0  501    0  0.00000000000E+00 -0.00000000000E+00 -0.75317692108E+03  0.75317692108E+03  0.00000000000E+00 0. -1.
          5    1    1    2  502    0  0.11549223545E+02  0.15447848754E+03 -0.79950510685E+02  0.17437472362E+03  0.41800000000E+01 0. -1.
         -5    1    1    2    0  502 -0.13451824827E+02 -0.15906722495E+02  0.11865009211E+02  0.24335699195E+02  0.41800000000E+01 0. -1.
        -11    1    1    2    0    0  0.27488015962E+02 -0.37018386929E+02 -0.81684734335E+02  0.93799508611E+02  0.00000000000E+00 0. -1.
         11    1    1    2    0    0 -0.25585414679E+02 -0.10155337812E+03 -0.52688319900E+03  0.53719047594E+03  0.00000000000E+00 0.  1.
</event>
<event>
 6    1  0.6597032E-006  0.1173059E+03  0.7561462E-02  0.1247609E+00
          2   -1    0    0  501    0  0.00000000000E+00  0.00000000000E+00  0.36815576211E+03  0.36815576211E+03  0.00000000000E+00 0. -1.
         -2   -1    0    0    0  501 -0.00000000000E+00 -0.00000000000E+00 -0.57930395120E+02  0.57930395120E+02  0.00000000000E+00 0.  1.
          5    1    1    2  502    0 -0.33845573858E+02 -0.24058116342E+02 -0.15262004518E+02  0.44437788127E+02  0.41800000000E+01 0.  1.
         -5    1    1    2    0  502 -0.43742185740E+02  0.60107792729E+02  0.11494913900E+03  0.13695657165E+03  0.41800000000E+01 0.  1.
        -11    1    1    2    0    0  0.72711187000E+01  0.24543612880E+02  0.19104751910E+02  0.31941346964E+02  0.00000000000E+00 0.  1.
         11    1    1    2    0    0  0.70316640898E+02 -0.60593289267E+02  0.19143348060E+03  0.21275045049E+03  0.00000000000E+00 0. -1.
</event>
<event>
 6    1  0.6597032E-006  0.1719908E+03  0.7561462E-02  0.1175788E+00
          1   -1    0    0  501    0  0.00000000000E+00  0.00000000000E+00  0.25463873155E+03  0.25463873155E+03  0.00000000000E+00 0. -1.
         -1   -1    0    0    0  501 -0.00000000000E+00 -0.00000000000E+00 -0.13612209798E+03  0.13612209798E+03  0.00000000000E+00 0.  1.
          5    1    1    2  502    0  0.72114503499E+01  0.69298122223E+02  0.18203650704E+01  0.69821349806E+02  0.41800000000E+01 0.  1.
         -5    1    1    2    0  502 -0.11749214787E+03  0.34091748762E+02  0.56903035569E+02  0.13498918476E+03  0.41800000000E+01 0.  1.
        -11    1    1    2    0    0  0.17527679688E+02 -0.10137607126E+02 -0.22916045404E+02  0.30579989706E+02  0.00000000000E+00 0.  1.
         11    1    1    2    0    0  0.92753017834E+02 -0.93252263860E+02  0.82709278342E+02  0.15537030526E+03  0.00000000000E+00 0. -1.
</event>
<event>
 6    1  0.6597032E-006  0.8951845E+02  0.7561462E-02  0.1304022E+00
          2   -1    0    0  501    0  0.00000000000E+00  0.00000000000E+00  0.15459839555E+03  0.15459839555E+03  0.00000000000E+00 0. -1.
         -2   -1    0    0    0  501 -0.00000000000E+00 -0.00000000000E+00 -0.12093169660E+03  0.12093169660E+03  0.00000000000E+00 0.  1.
          5    1    1    2  502    0  0.30021301424E+02 -0.56552069298E+02 -0.72075056229E+02  0.96497156495E+02  0.41800000000E+01 0. -1.
         -5    1    1    2    0  502 -0.12923313777E+02  0.33145667949E+02  0.21194996119E+02  0.41621480071E+02  0.41800000000E+01 0. -1.
        -11    1    1    2    0    0 -0.37056622768E+01 -0.26818603339E+02 -0.10533364439E+02  0.29050321588E+02  0.00000000000E+00 0.  1.
         11    1    1    2    0    0 -0.13392325371E+02  0.50225004687E+02  0.95080123501E+02  0.10836113399E+03  0.00000000000E+00 0. -1.
</event>
<event>
 6    1  0.6597032E-006  0.7389050E+02  0.7561462E-02  0.1347342E+00
         -1   -1    0    0    0  501 -0.00000000000E+00  0.00000000000E+00  0.15595407461E+03  0.15595407461E+03  0.00000000000E+00 0.  1.
          1   -1    0    0  501    0  0.00000000000E+00 -0.00000000000E+00 -0.90285683603E+02  0.90285683603E+02  0.00000000000E+00 0. -1.
          5    1    1    2  502    0  0.30241255289E+01  0.40221911206E+02  0.98538133425E+02  0.10655601163E+03  0.41800000000E+01 0.  1.
         -5    1    1    2    0  502  0.24976972654E+02 -0.24509864053E+02 -0.23920165555E+02  0.42593770894E+02  0.41800000000E+01 0.  1.
        -11    1    1    2    0    0  0.74897754264E+01  0.20171216833E+02  0.27439372827E+02  0.34869670283E+02  0.00000000000E+00 0.  1.
         11    1    1    2    0    0 -0.35490873609E+02 -0.35883263987E+02 -0.36388949696E+02  0.62220305398E+02  0.00000000000E+00 0. -1.
</event>
<event>
 6    1  0.6597032E-006  0.7322787E+02  0.7561462E-02  0.1349448E+00
          2   -1    0    0  501    0  0.00000000000E+00  0.00000000000E+00  0.69220326622E+03  0.69220326622E+03  0.00000000000E+00 0. -1.
         -2   -1    0    0    0  501 -0.00000000000E+00 -0.00000000000E+00 -0.20283421764E+02  0.20283421764E+02  0.00000000000E+00 0.  1.
          5    1    1    2  502    0  0.33749940698E+02 -0.32477546805E+01  0.45480959227E+03  0.45609082871E+03  0.41800000000E+01 0. -1.
         -5    1    1    2    0  502 -0.54503333332E+01 -0.17255842762E+02 -0.95632731866E+00  0.18597236483E+02  0.41800000000E+01 0.  1.
        -11    1    1    2    0    0 -0.13444163793E+02 -0.34351982959E+02  0.10420700769E+03  0.11054367791E+03  0.00000000000E+00 0.  1.
         11    1    1    2    0    0 -0.14855443571E+02  0.54855580402E+02  0.11385957181E+03  0.12725494488E+03  0.00000000000E+00 0. -1.
</event>
<event>
 6    1  0.6597032E-006  0.1138559E+03  0.7561462E-02  0.1253592E+00
         -2   -1    0    0    0  501 -0.00000000000E+00  0.00000000000E+00  0.11812205324E+03  0.11812205324E+03  0.00000000000E+00 0.  1.
          2   -1    0    0  501    0  0.00000000000E+00 -0.00000000000E+00 -0.26034149983E+03  0.26034149983E+03  0.00000000000E+00 0. -1.
          5    1    1    2  502    0  0.95582332464E+02  0.16831619415E+02 -0.24017741556E+02  0.10006802687E+03  0.41800000000E+01 0. -1.
         -5    1    1    2    0  502 -0.91377328583E+01  0.27516626587E+02  0.53569402177E+02  0.61055844520E+02  0.41800000000E+01 0. -1.
        -11    1    1    2    0    0 -0.27146119886E+02  0.13437629787E+00 -0.12885717534E+03  0.13168561622E+03  0.00000000000E+00 0. -1.
         11    1    1    2    0    0 -0.59298479719E+02 -0.44482622299E+02 -0.42913931865E+02  0.85654065472E+02  0.00000000000E+00 0.  1.
</event>
<event>
 6    1  0.6597032E-006  0.4505213E+02  0.7561462E-02  0.1474016E+00
         -2   -1    0    0    0  501 -0.00000000000E+00  0.00000000000E+00  0.16991125007E+03  0.16991125007E+03  0.00000000000E+00 0.  1.
          2   -1    0    0  501    0  0.00000000000E+00 -0.00000000000E+00 -0.71301029780E+02  0.71301029780E+02  0.00000000000E+00 0. -1.
          5    1    1    2  502    0  0.98711338297E+01  0.21819005567E+02 -0.18226967785E+02  0.30384256477E+02  0.41800000000E+01 0. -1.
         -5    1    1    2    0  502 -0.14883313711E+02 -0.86359236593E+01  0.11719248156E+03  0.11852275030E+03  0.41800000000E+01 0.  1.
        -11    1    1    2    0    0  0.14389179847E+02  0.13544824780E+02 -0.39394345151E+02  0.44072953213E+02  0.00000000000E+00 0.  1.
         11    1    1    2    0    0 -0.93769999648E+01 -0.26727906687E+02  0.39039051673E+02  0.48232319867E+02  0.00000000000E+00 0. -1.
</event>
<event>
 6    1  0.6597032E-006  0.2091133E+03  0.7561462E-02  0.1142270E+00
          3   -1    0    0  501    0  0.00000000000E+00  0.00000000000E+00  0.14192059686E+04  0.14192059686E+04  0.00000000000E+00 0. -1.
         -3   -1    0    0    0  501 -0.00000000000E+00 -0.00000000000E+00 -0.37923038057E+02  0.37923038057E+02  0.00000000000E+00 0.  1.
          5    1    1    2  502    0  0.20023497381E+03  0.12972832079E+01  0.57216261075E+03  0.60620396998E+03  0.41800000000E+01 0.  1.
         -5    1    1    2    0  502 -0.98155076077E+00 -0.51918005743E+01 -0.46282732400E+01  0.81738331451E+01  0.41800000000E+01 0.  1.
        -11    1    1    2    0    0 -0.84724447002E+02  0.36311876779E+02  0.47066515297E+03  0.47960657891E+03  0.00000000000E+00 0.  1.
         11    1    1    2    0    0 -0.11452897604E+03 -0.32417359412E+02  0.34308344006E+03  0.36314462462E+03  0.00000000000E+00 0. -1.
</event>
<event>
 6    1  0.6597032E-006  0.7173223E+02  0.7561462E-02  0.1354300E+00
         -2   -1    0    0    0  501 -0.00000000000E+00  0.00000000000E+00  0.12101341148E+03  0.12101341148E+03  0.00000000000E+00 0.  1.
          2   -1    0    0  501    0  0.00000000000E+00 -0.00000000000E+00 -0.11986340081E+03  0.11986340081E+03  0.00000000000E+00 0. -1.
          5    1    1    2  502    0  0.56162676519E+02  0.44006115338E+02 -0.49229458233E+02  0.86785922700E+02  0.41800000000E+01 0.  1.
         -5    1    1    2    0  502 -0.13978469289E+02 -0.95513572284E+01  0.46513525548E+02  0.49675008681E+02  0.41800000000E+01 0.  1.
        -11    1    1    2    0    0 -0.17107619737E+02 -0.15942120808E+02  0.46237599824E+02  0.51814452679E+02  0.00000000000E+00 0.  1.
         11    1    1    2    0    0 -0.25076587493E+02 -0.18512637301E+02 -0.42371656467E+02  0.52601428231E+02  0.00000000000E+00 0. -1.
</event>
<event>
 6    1  0.6597032E-006  0.3021752E+03  0.7561462E-02  0.1084158E+00
         -2   -1    0    0    0  501 -0.00000000000E+00  0.00000000000E+00  0.36195217309E+03  0.36195217309E+03  0.00000000000E+00 0.  1.
          2   -1    0    0  501    0  0.00000000000E+00 -0.00000000000E+00 -0.27202639937E+03  0.27202639937E+03  0.00000000000E+00 0. -1.
          5    1    1    2  502    0 -0.19000300079E+03  0.93882269504E+02  0.87570776512E+02  0.22934937134E+03  0.41800000000E+01 0. -1.
         -5    1    1    2    0  502 -0.62766236630E+02  0.55961053504E+02 -0.40557700860E+02  0.93453943036E+02  0.41800000000E+01 0. -1.
        -11    1    1    2    0    0  0.12332508462E+03 -0.20178166374E+02  0.15697542821E+02  0.12594700372E+03  0.00000000000E+00 0. -1.
         11    1    1    2    0    0  0.12944415280E+03 -0.12966515663E+03  0.27215155251E+02  0.18522825436E+03  0.00000000000E+00 0.  1.
</event>
<event>
 6    1  0.6597032E-006  0.5878542E+02  0.7561462E-02  0.1403001E+00
          1   -1    0    0  501    0  0.00000000000E+00  0.00000000000E+00  0.10521204306E+04  0.10521204306E+04  0.00000000000E+00 0. -1.
         -1   -1    0    0    0  501 -0.00000000000E+00 -0.00000000000E+00 -0.11437368082E+02  0.11437368082E+02  0.00000000000E+00 0.  1.
          5    1    1    2  502    0  0.18042150733E+01  0.13196354445E+02  0.56261074778E+03  0.56278390603E+03  0.41800000000E+01 0. -1.
         -5    1    1    2    0  502 -0.10040769179E+02  0.40587002721E+01 -0.21317030100E+01  0.11802823871E+02  0.41800000000E+01 0. -1.
        -11    1    1    2    0    0  0.28184792126E+02 -0.47817593722E+02  0.30428364877E+03  0.30930477476E+03  0.00000000000E+00 0.  1.
         11    1    1    2    0    0 -0.19948238020E+02  0.30562539004E+02  0.17592036898E+03  0.17966629404E+03  0.00000000000E+00 0. -1.
</event>
<event>
 6    1  0.6597032E-006  0.9984400E+02  0.7561462E-02  0.1280624E+00
          3   -1    0    0  501    0  0.00000000000E+00  0.00000000000E+00  0.21582761849E+03  0.21582761849E+03  0.00000000000E+00 0. -1.
         -3   -1    0    0    0  501 -0.00000000000E+00 -0.00000000000E+00 -0.67813794683E+02  0.67813794683E+02  0.00000000000E+00 0.  1.
          5    1    1    2  502    0  0.64801412931E+02 -0.24978894104E+02 -0.10667020243E+02  0.70387683506E+02  0.41800000000E+01 0. -1.
         -5    1    1    2    0  502 -0.28355963847E+02  0.37195351024E+02  0.44690707219E+02  0.64825045586E+02  0.41800000000E+01 0. -1.
        -11    1    1    2    0    0  0.21838155577E+02 -0.11902424423E+02  0.58010886750E+01  0.25538703490E+02  0.00000000000E+00 0.  1.
         11    1    1    2    0    0 -0.58283604661E+02 -0.31403249736E+00  0.10818904816E+03  0.12288998059E+03  0.00000000000E+00 0. -1.
</event>
<event>
 6    1  0.6597032E-006  0.1015405E+03  0.7561462E-02  0.1277089E+00
         -1   -1    0    0    0  501 -0.00000000000E+00  0.00000000000E+00  0.17703109393E+03  0.17703109393E+03  0.00000000000E+00 0.  1.
          1   -1    0    0  501    0  0.00000000000E+00 -0.00000000000E+00 -0.11319575476E+03  0.11319575476E+03  0.00000000000E+00 0. -1.
          5    1    1    2  502    0  0.53926037502E+02  0.29037763909E+02  0.73468002983E+02  0.95740425713E+02  0.41800000000E+01 0.  1.
         -5    1    1    2    0  502 -0.65711197501E+02  0.26291952776E+02  0.34122554896E+02  0.78683221912E+02  0.41800000000E+01 0.  1.
        -11    1    1    2    0    0  0.24184273740E+02 -0.14674218918E+02  0.23139971023E+02  0.36546820055E+02  0.00000000000E+00 0.  1.
         11    1    1    2    0    0 -0.12399113740E+02 -0.40655497767E+02 -0.66895189735E+02  0.79256381004E+02  0.00000000000E+00 0. -1.
</event>
<event>
 6    1  0.6597032E-006  0.1459466E+03  0.7561462E-02  0.1205544E+00
         -2   -1    0    0    0  501 -0.00000000000E+00  0.00000000000E+00  0.10571569574E+03  0.10571569574E+03  0.00000000000E+00 0. -1.
          2   -1    0    0  501    0  0.00000000000E+00 -0.00000000000E+00 -0.31490844471E+03  0.31490844471E+03  0.00000000000E+00 0.  1.
          5    1    1    2  502    0  0.34129348028E+01  0.27076409331E+02  0.19432617342E+02  0.33762095358E+02  0.41800000000E+01 0. -1.
         -5    1    1    2    0  502 -0.69669104209E+02 -0.10877504497E+03 -0.12335770697E+02  0.12982849505E+03  0.41800000000E+01 0. -1.
        -11    1    1    2    0    0 -0.12238652492E+02  0.48147376049E+02 -0.11007898021E+03  0.12076976575E+03  0.00000000000E+00 0.  1.
         11    1    1    2    0    0  0.78494821898E+02  0.33551259590E+02 -0.10621061540E+03  0.13626378429E+03  0.00000000000E+00 0. -1.
</event>
<event>
 6    1  0.6597032E-006  0.1107583E+03  0.7561462E-02  0.1259172E+00
          4   -1    0    0  501    0  0.00000000000E+00  0.00000000000E+00  0.25118569949E+03  0.25118569949E+03  0.00000000000E+00 0.  1.
         -4   -1    0    0    0  501 -0.00000000000E+00 -0.00000000000E+00 -0.55329098071E+02  0.55329098071E+02  0.00000000000E+00 0. -1.
          5    1    1    2  502    0  0.48521939453E+02 -0.71821022728E+02  0.48960952347E+02  0.99635762498E+02  0.41800000000E+01 0.  1.
         -5    1    1    2    0  502 -0.13871063181E+02  0.42494185594E+02  0.42627286685E+02  0.61908966824E+02  0.41800000000E+01 0.  1.
        -11    1    1    2    0    0  0.21835671323E+02  0.24998900250E+02  0.73163007386E+02  0.80340321169E+02  0.00000000000E+00 0.  1.
         11    1    1    2    0    0 -0.56486547595E+02  0.43279368851E+01  0.31105355005E+02  0.64629747074E+02  0.00000000000E+00 0. -1.
</event>
<event>
 6    1  0.6597032E-006  0.1576163E+03  0.7561462E-02  0.1191415E+00
         -1   -1    0    0    0  501 -0.00000000000E+00  0.00000000000E+00  0.24677025323E+03  0.24677025323E+03  0.00000000000E+00 0.  1.
          1   -1    0    0  501    0  0.00000000000E+00 -0.00000000000E+00 -0.14240994640E+03  0.14240994640E+03  0.00000000000E+00 0. -1.
          5    1    1    2  502    0  0.70415079603E+02  0.97443500236E+02  0.83140867569E+02  0.14623062413E+03  0.41800000000E+01 0.  1.
         -5    1    1    2    0  502  0.40936150301E+02 -0.37606450222E+02  0.61488975069E+02  0.82996264704E+02  0.41800000000E+01 0.  1.
        -11    1    1    2    0    0 -0.37783640792E+02  0.85604354692E+01  0.19179473258E+02  0.43228888042E+02  0.00000000000E+00 0. -1.
         11    1    1    2    0    0 -0.73567589112E+02 -0.68397485483E+02 -0.59449009072E+02  0.11672442276E+03  0.00000000000E+00 0.  1.
</event>
<event>
 6    1  0.6597032E-006  0.1206791E+03  0.7561462E-02  0.1241981E+00
         -2   -1    0    0    0  501 -0.00000000000E+00  0.00000000000E+00  0.54029507539E+02  0.54029507539E+02  0.00000000000E+00 0.  1.
          2   -1    0    0  501    0  0.00000000000E+00 -0.00000000000E+00 -0.33915086821E+03  0.33915086821E+03  0.00000000000E+00 0. -1.
          5    1    1    2  502    0 -0.90450725893E+01 -0.20495613575E+02  0.35418712100E+01  0.23062973911E+02  0.41800000000E+01 0. -1.
         -5    1    1    2    0  502  0.40951932661E+02  0.86901005046E+02 -0.16458667075E+03  0.19061765410E+03  0.41800000000E+01 0.  1.
        -11    1    1    2    0    0  0.34718495120E+02 -0.13181375568E+02 -0.12745102956E+02  0.39262707683E+02  0.00000000000E+00 0.  1.
         11    1    1    2    0    0 -0.66625355192E+02 -0.53224015903E+02 -0.11133145817E+03  0.14023704005E+03  0.00000000000E+00 0. -1.
</event>
<event>
 6    1  0.6597032E-006  0.2364015E+03  0.7561462E-02  0.1122214E+00
          1   -1    0    0  501    0  0.00000000000E+00  0.00000000000E+00  0.26110537804E+03  0.26110537804E+03  0.00000000000E+00 0. -1.
         -1   -1    0    0    0  501 -0.00000000000E+00 -0.00000000000E+00 -0.25248439145E+03  0.25248439145E+03  0.00000000000E+00 0.  1.
          5    1    1    2  502    0  0.17776533866E+02  0.13983498113E+02 -0.40678359812E+02  0.46730554595E+02  0.41800000000E+01 0.  1.
         -5    1    1    2    0  502  0.18972045394E+03 -0.10389510055E+03 -0.96794755871E+01  0.21656224788E+03  0.41800000000E+01 0.  1.
        -11    1    1    2    0    0 -0.34958903719E+02 -0.68713725963E+01  0.36812597483E+02  0.51229952607E+02  0.00000000000E+00 0. -1.
         11    1    1    2    0    0 -0.17253808408E+03  0.96782975032E+02  0.22166224514E+02  0.19906701441E+03  0.00000000000E+00 0.  1.
</event>
<event>
 6    1  0.6597032E-006  0.1055835E+03  0.7561462E-02  0.1268974E+00
          1   -1    0    0  501    0  0.00000000000E+00  0.00000000000E+00  0.92432143376E+02  0.92432143376E+02  0.00000000000E+00 0. -1.
         -1   -1    0    0    0  501 -0.00000000000E+00 -0.00000000000E+00 -0.13618347767E+03  0.13618347767E+03  0.00000000000E+00 0.  1.
          5    1    1    2  502    0 -0.60244952713E+02 -0.45677165555E+02 -0.27107751193E+02  0.80424873983E+02  0.41800000000E+01 0. -1.
         -5    1    1    2    0  502  0.34312698796E+02  0.38316063875E+02 -0.77562305058E+01  0.52183460609E+02  0.41800000000E+01 0. -1.
        -11    1    1    2    0    0  0.50439788470E+02 -0.12880706038E+02  0.17263655897E+02  0.54846318599E+02  0.00000000000E+00 0. -1.
         11    1    1    2    0    0 -0.24507534552E+02  0.20241807718E+02 -0.26151008490E+02  0.41160967853E+02  0.00000000000E+00 0.  1.
</event>
<event>
 6    1  0.6597032E-006  0.2287251E+03  0.7561462E-02  0.1127540E+00
          2   -1    0    0  501    0  0.00000000000E+00  0.00000000000E+00  0.48540396745E+03  0.48540396745E+03  0.00000000000E+00 0. -1.
         -2   -1    0    0    0  501 -0.00000000000E+00 -0.00000000000E+00 -0.23090664865E+03  0.23090664865E+03  0.00000000000E+00 0.  1.
          5    1    1    2  502    0 -0.10641949088E+03  0.31094553985E+02 -0.17852263641E+02  0.11237506416E+03  0.41800000000E+01 0. -1.
         -5    1    1    2    0  502 -0.92178861959E+02 -0.67347776689E+02 -0.92517349979E+02  0.14700203422E+03  0.41800000000E+01 0.  1.
        -11    1    1    2    0    0  0.80159964822E+02 -0.41816064325E+02  0.33391328560E+02  0.96380413046E+02  0.00000000000E+00 0.  1.
         11    1    1    2    0    0  0.11843838802E+03  0.78069287030E+02  0.33147560386E+03  0.36055310467E+03  0.00000000000E+00 0. -1.
</event>
<event>
 6    1  0.6597032E-006  0.2744155E+03  0.7561462E-02  0.1098779E+00
          1   -1    0    0  501    0  0.00000000000E+00  0.00000000000E+00  0.10519519781E+03  0.10519519781E+03  0.00000000000E+00 0. -1.
         -1   -1    0    0    0  501 -0.00000000000E+00 -0.00000000000E+00 -0.93168900867E+03  0.93168900867E+03  0.00000000000E+00 0.  1.
          5    1    1    2  502    0  0.19555559965E+03 -0.52486965281E+01 -0.44482762046E+03  0.48596154754E+03  0.41800000000E+01 0.  1.
         -5    1    1    2    0  502  0.44354319348E+02 -0.73525525098E+02 -0.21136154303E+03  0.22817642902E+03  0.41800000000E+01 0.  1.
        -11    1    1    2    0    0 -0.17250279003E+03  0.12970787373E+02 -0.74382794470E+02  0.18830362186E+03  0.00000000000E+00 0. -1.
         11    1    1    2    0    0 -0.67407128968E+02  0.65803434252E+02 -0.95921852902E+02  0.13444260805E+03  0.00000000000E+00 0.  1.
</event>
<event>
 6    1  0.6597032E-006  0.1630080E+03  0.7561462E-02  0.1185342E+00
         -2   -1    0    0    0  501 -0.00000000000E+00  0.00000000000E+00  0.13103417656E+03  0.13103417656E+03  0.00000000000E+00 0.  1.
          2   -1    0    0  501    0  0.00000000000E+00 -0.00000000000E+00 -0.27276887424E+03  0.27276887424E+03  0.00000000000E+00 0. -1.
          5    1    1    2  502    0  0.22713248917E+02 -0.15202660628E+03 -0.44410117611E+02  0.16005533930E+03  0.41800000000E+01 0. -1.
         -5    1    1    2    0  502  0.19954911072E+02  0.12811701244E+02  0.22748701723E+02  0.33125730102E+02  0.41800000000E+01 0. -1.
        -11    1    1    2    0    0 -0.86276530637E+01  0.74926287708E+02 -0.64362737945E+01  0.75695512466E+02  0.00000000000E+00 0. -1.
         11    1    1    2    0    0 -0.34040506926E+02  0.64288617328E+02 -0.11363700800E+03  0.13492646893E+03  0.00000000000E+00 0.  1.
</event>
<event>
 6    1  0.6597032E-006  0.1397920E+03  0.7561462E-02  0.1213609E+00
          2   -1    0    0  501    0  0.00000000000E+00  0.00000000000E+00  0.10240257830E+04  0.10240257830E+04  0.00000000000E+00 0. -1.
         -2   -1    0    0    0  501 -0.00000000000E+00 -0.00000000000E+00 -0.21118020424E+02  0.21118020424E+02  0.00000000000E+00 0.  1.
          5    1    1    2  502    0  0.28732264658E+02 -0.11577937221E+03  0.47505755156E+03  0.48982400488E+03  0.41800000000E+01 0. -1.
         -5    1    1    2    0  502  0.21083733598E+02  0.32398434334E+02  0.14057203721E+03  0.14584975974E+03  0.41800000000E+01 0. -1.
        -11    1    1    2    0    0  0.10374578862E+02 -0.71683435292E+01  0.80451735619E+01  0.14958002981E+02  0.00000000000E+00 0.  1.
         11    1    1    2    0    0 -0.60190577118E+02  0.90549281409E+02  0.37923300024E+03  0.39451203582E+03  0.00000000000E+00 0. -1.
</event>
<event>
 6    1  0.6597032E-006  0.1264531E+03  0.7561462E-02  0.1232816E+00
          4   -1    0    0  501    0  0.00000000000E+00  0.00000000000E+00  0.50178214593E+02  0.50178214593E+02  0.00000000000E+00 0. -1.
         -4   -1    0    0    0  501 -0.00000000000E+00 -0.00000000000E+00 -0.47131667625E+03  0.47131667625E+03  0.00000000000E+00 0.  1.
          5    1    1    2  502    0  0.22777923842E+01  0.20521117606E+02 -0.41466130570E+01  0.21470244661E+02  0.41800000000E+01 0. -1.
         -5    1    1    2    0  502  0.32601557269E+02 -0.11462760694E+03 -0.28987937557E+03  0.31344836032E+03  0.41800000000E+01 0. -1.
        -11    1    1    2    0    0  0.10684814808E+02  0.36181368051E+01  0.10688447310E+02  0.15540240903E+02  0.00000000000E+00 0. -1.
         11    1    1    2    0    0 -0.45564164461E+02  0.90488352532E+02 -0.13780092034E+03  0.17103604495E+03  0.00000000000E+00 0.  1.
</event>
<event>
 6    1  0.6597032E-006  0.6698130E+02  0.7561462E-02  0.1370670E+00
          1   -1    0    0  501    0  0.00000000000E+00  0.00000000000E+00  0.22813527303E+02  0.22813527303E+02  0.00000000000E+00 0. -1.
         -1   -1    0    0    0  501 -0.00000000000E+00 -0.00000000000E+00 -0.55480490484E+03  0.55480490484E+03  0.00000000000E+00 0.  1.
          5    1    1    2  502    0  0.36195922633E+02 -0.32022628540E+02 -0.40750234062E+02  0.63353354528E+02  0.41800000000E+01 0. -1.
         -5    1    1    2    0  502 -0.23849339282E+01  0.32099967096E+02 -0.29099659928E+03  0.29280127901E+03  0.41800000000E+01 0. -1.
        -11    1    1    2    0    0 -0.37262183739E+02 -0.13119561408E+02 -0.20373405966E+03  0.20752869752E+03  0.00000000000E+00 0.  1.
         11    1    1    2    0    0  0.34511950336E+01  0.13042222851E+02  0.34895154648E+01  0.13935101085E+02  0.00000000000E+00 0. -1.
</event>
<event>
 6    1  0.6597032E-006  0.9299925E+02  0.7561462E-02  0.1295747E+00
          2   -1    0    0  501    0  0.00000000000E+00  0.00000000000E+00  0.97141394986E+02  0.97141394986E+02  0.00000000000E+00 0. -1.
         -2   -1    0    0    0  501 -0.00000000000E+00 -0.00000000000E+00 -0.16791454756E+03  0.16791454756E+03  0.00000000000E+00 0.  1.
          5    1    1    2  502    0  0.14946790405E+02  0.23649690574E+02  0.27967509852E+02  0.39778994646E+02  0.41800000000E+01 0. -1.
         -5    1    1    2    0  502 -0.23207888054E+02 -0.48657167278E+02 -0.10802989769E+03  0.12080586571E+03  0.41800000000E+01 0.  1.
        -11    1    1    2    0    0  0.35357019467E+02  0.53624040148E+02  0.12131118681E+01  0.64242728365E+02  0.00000000000E+00 0.  1.
         11    1    1    2    0    0 -0.27095921818E+02 -0.28616563445E+02  0.80761233934E+01  0.40228353827E+02  0.00000000000E+00 0. -1.
</event>
<event>
 6    1  0.6597032E-006  0.1108078E+03  0.7561462E-02  0.1259081E+00
          1   -1    0    0  501    0  0.00000000000E+00  0.00000000000E+00  0.18559431490E+03  0.18559431490E+03  0.00000000000E+00 0. -1.
         -1   -1    0    0    0  501 -0.00000000000E+00 -0.00000000000E+00 -0.71589188772E+02  0.71589188772E+02  0.00000000000E+00 0.  1.
          5    1    1    2  502    0 -0.25776203679E+02 -0.63601159959E+02  0.84574632788E+01  0.69271359950E+02  0.41800000000E+01 0. -1.
         -5    1    1    2    0  502  0.46752366559E+02  0.35593413462E+02  0.30517295355E+02  0.66343444111E+02  0.41800000000E+01 0. -1.
        -11    1    1    2    0    0 -0.41176386594E+02  0.49547979413E+02  0.61574161541E+02  0.89117195009E+02  0.00000000000E+00 0.  1.
         11    1    1    2    0    0  0.20200223714E+02 -0.21540232916E+02  0.13456205954E+02  0.32451504601E+02  0.00000000000E+00 0. -1.
</event>
<event>
 6    1  0.6597032E-006  0.8523737E+02  0.7561462E-02  0.1314813E+00
          1   -1    0    0  501    0  0.00000000000E+00  0.00000000000E+00  0.15232196663E+03  0.15232196663E+03  0.00000000000E+00 0. -1.
         -1   -1    0    0    0  501 -0.00000000000E+00 -0.00000000000E+00 -0.10543282582E+03  0.10543282582E+03  0.00000000000E+00 0.  1.
          5    1    1    2  502    0  0.23127647923E+02  0.19375688739E+02 -0.54862309658E+02  0.62750703849E+02  0.41800000000E+01 0.  1.
         -5    1    1    2    0  502  0.20653238374E+02  0.28245019484E+02  0.70648321976E+02  0.78949320321E+02  0.41800000000E+01 0.  1.
        -11    1    1    2    0    0  0.14813622702E+02  0.13545400417E+02 -0.94012510624E+01  0.22165396715E+02  0.00000000000E+00 0.  1.
         11    1    1    2    0    0 -0.58594508999E+02 -0.61166108640E+02  0.40504379553E+02  0.93889371571E+02  0.00000000000E+00 0. -1.
</event>
<event>
 6    1  0.6597032E-006  0.1037633E+03  0.7561462E-02  0.1272576E+00
          1   -1    0    0  501    0  0.00000000000E+00  0.00000000000E+00  0.18887840746E+02  0.18887840746E+02  0.00000000000E+00 0.  1.
         -1   -1    0    0    0  501 -0.00000000000E+00 -0.00000000000E+00 -0.10559313318E+04  0.10559313318E+04  0.00000000000E+00 0. -1.
          5    1    1    2  502    0 -0.79474847510E+01 -0.52174799084E+02 -0.89184339059E+02  0.10371446816E+03  0.41800000000E+01 0. -1.
         -5    1    1    2    0  502  0.16685001681E+02 -0.27961553751E+02 -0.62237834993E+03  0.62324354840E+03  0.41800000000E+01 0. -1.
        -11    1    1    2    0    0 -0.44694320084E+02  0.14625778353E+02 -0.14792163864E+03  0.15521696691E+03  0.00000000000E+00 0.  1.
         11    1    1    2    0    0  0.35956803154E+02  0.65510574482E+02 -0.17755916342E+03  0.19264418905E+03  0.00000000000E+00 0. -1.
</event>
<event>
 6    1  0.6597032E-006  0.8916531E+02  0.7561462E-02  0.1304886E+00
          1   -1    0    0  501    0  0.00000000000E+00  0.00000000000E+00  0.42457407892E+03  0.42457407892E+03  0.00000000000E+00 0. -1.
         -1   -1    0    0    0  501 -0.00000000000E+00 -0.00000000000E+00 -0.37533648996E+02  0.37533648996E+02  0.00000000000E+00 0.  1.
          5    1    1    2  502    0 -0.27770656367E+02 -0.14479748989E+02  0.13018998561E+03  0.13396931454E+03  0.41800000000E+01 0.  1.
         -5    1    1    2    0  502  0.41013235211E+02 -0.23958301778E+02 -0.45842473027E+01  0.47901705710E+02  0.41800000000E+01 0.  1.
        -11    1    1    2    0    0 -0.21872913766E+02 -0.26035260810E+02  0.65728643595E+02  0.74003471208E+02  0.00000000000E+00 0.  1.
         11    1    1    2    0    0  0.86303349218E+01  0.64473311578E+02  0.19570604802E+03  0.20623323645E+03  0.00000000000E+00 0. -1.
</event>
<event>
 6    1  0.6597032E-006  0.1249208E+03  0.7561462E-02  0.1235193E+00
         -1   -1    0    0    0  501 -0.00000000000E+00  0.00000000000E+00  0.60762676641E+02  0.60762676641E+02  0.00000000000E+00 0.  1.
          1   -1    0    0  501    0  0.00000000000E+00 -0.00000000000E+00 -0.26995772608E+03  0.26995772608E+03  0.00000000000E+00 0. -1.
          5    1    1    2  502    0  0.12747397598E+02 -0.54531086995E+02 -0.58712135072E+02  0.81244832445E+02  0.41800000000E+01 0. -1.
         -5    1    1    2    0  502 -0.75165617442E+02  0.32064436020E+02 -0.37963862840E+02  0.90203799169E+02  0.41800000000E+01 0. -1.
        -11    1    1    2    0    0  0.28562594797E+02  0.56839475108E+02 -0.73632717291E+02  0.97305317469E+02  0.00000000000E+00 0.  1.
         11    1    1    2    0    0  0.33855625047E+02 -0.34372824133E+02 -0.38886334238E+02  0.61966453640E+02  0.00000000000E+00 0. -1.
</event>
<event>
 6    1  0.6597032E-006  0.1197241E+03  0.7561462E-02  0.1243553E+00
          1   -1    0    0  501    0  0.00000000000E+00  0.00000000000E+00  0.46699637329E+03  0.46699637329E+03  0.00000000000E+00 0. -1.
         -1   -1    0    0    0  501 -0.00000000000E+00 -0.00000000000E+00 -0.35225390011E+02  0.35225390011E+02  0.00000000000E+00 0.  1.
          5    1    1    2  502    0 -0.55685664722E+02 -0.56101236123E+02  0.10454755618E+03  0.13113316077E+03  0.41800000000E+01 0. -1.
         -5    1    1    2    0  502  0.30826751549E+02  0.71083324922E+02  0.15585658084E+03  0.17410305536E+03  0.41800000000E+01 0.  1.
        -11    1    1    2    0    0  0.40596088376E+02  0.19320532938E+02  0.39572798822E+02  0.59894338556E+02  0.00000000000E+00 0.  1.
         11    1    1    2    0    0 -0.15737175202E+02 -0.34302621736E+02  0.13179404744E+03  0.13709120862E+03  0.00000000000E+00 0. -1.
</event>
<event>
 6    1  0.6597032E-006  0.1445965E+03  0.7561462E-02  0.1207274E+00
         -1   -1    0    0    0  501 -0.00000000000E+00  0.00000000000E+00  0.14089501621E+03  0.14089501621E+03  0.00000000000E+00 0.  1.
          1   -1    0    0  501    0  0.00000000000E+00 -0.00000000000E+00 -0.22840017889E+03  0.22840017889E+03  0.00000000000E+00 0. -1.
          5    1    1    2  502    0 -0.16976592104E+01  0.12084461353E+02  0.40374475516E+02  0.42384984678E+02  0.41800000000E+01 0.  1.
         -5    1    1    2    0  502  0.72619550365E+01  0.12994820102E+03 -0.74461526380E+02  0.15000420744E+03  0.41800000000E+01 0.  1.
        -11    1    1    2    0    0 -0.19076837028E+02 -0.10347976709E+03 -0.76398658909E+02  0.13003362254E+03  0.00000000000E+00 0.  1.
         11    1    1    2    0    0  0.13512541202E+02 -0.38552895283E+02  0.22980547091E+02  0.46872380450E+02  0.00000000000E+00 0. -1.
</event>
<event>
 6    1  0.6597032E-006  0.9218184E+02  0.7561462E-02  0.1297652E+00
         -1   -1    0    0    0  501 -0.00000000000E+00  0.00000000000E+00  0.30805514000E+02  0.30805514000E+02  0.00000000000E+00 0.  1.
          1   -1    0    0  501    0  0.00000000000E+00 -0.00000000000E+00 -0.41571246373E+03  0.41571246373E+03  0.00000000000E+00 0. -1.
          5    1    1    2  502    0  0.17868284534E+00  0.41564284032E+02 -0.29926060748E+02  0.51387383145E+02  0.41800000000E+01 0.  1.
         -5    1    1    2    0  502  0.15867791509E+02 -0.69751047634E+02 -0.19881341419E+03  0.21133206457E+03  0.41800000000E+01 0.  1.
        -11    1    1    2    0    0  0.18145647374E+02 -0.91370846885E+01 -0.73273061975E+00  0.20329479319E+02  0.00000000000E+00 0.  1.
         11    1    1    2    0    0 -0.34192121729E+02  0.37323848291E+02 -0.15543474418E+03  0.16346905070E+03  0.00000000000E+00 0. -1.
</event>
<event>
 6    1  0.6597032E-006  0.9593004E+02  0.7561462E-02  0.1289095E+00
         -1   -1    0    0    0  501 -0.00000000000E+00  0.00000000000E+00  0.20808195890E+03  0.20808195890E+03  0.00000000000E+00 0.  1.
          1   -1    0    0  501    0  0.00000000000E+00 -0.00000000000E+00 -0.11405369154E+03  0.11405369154E+03  0.00000000000E+00 0. -1.
          5    1    1    2  502    0  0.11755743084E+02 -0.21438641175E+02 -0.90602723878E+01  0.26407835326E+02  0.41800000000E+01 0.  1.
         -5    1    1    2    0  502 -0.32200581978E+00  0.82948162187E+02  0.15424193539E+03  0.17518147257E+03  0.41800000000E+01 0.  1.
        -11    1    1    2    0    0  0.21507900063E+02 -0.12279520442E+02  0.17158227392E+02  0.30129406808E+02  0.00000000000E+00 0.  1.
         11    1    1    2    0    0 -0.32941637327E+02 -0.49230000570E+02 -0.68311623038E+02  0.90416935737E+02  0.00000000000E+00 0. -1.
</event>
<event>
 6    1  0.6597032E-006  0.1730869E+03  0.7561462E-02  0.1174666E+00
          1   -1    0    0  501    0  0.00000000000E+00  0.00000000000E+00  0.41136275748E+03  0.41136275748E+03  0.00000000000E+00 0. -1.
         -1   -1    0    0    0  501 -0.00000000000E+00 -0.00000000000E+00 -0.91176541002E+02  0.91176541002E+02  0.00000000000E+00 0.  1.
          5    1    1    2  502    0  0.69368387222E+02  0.56814642745E+01  0.13979856337E+03  0.15622215881E+03  0.41800000000E+01 0. -1.
         -5    1    1    2    0  502  0.77657385398E+02  0.55022462606E+02  0.10515353881E+02  0.95844592781E+02  0.41800000000E+01 0. -1.
        -11    1    1    2    0    0 -0.33159852166E+02 -0.58558717025E+02  0.42413396613E+02  0.79546183739E+02  0.00000000000E+00 0.  1.
         11    1    1    2    0    0 -0.11386592045E+03 -0.21452098556E+01  0.12745890262E+03  0.17092636316E+03  0.00000000000E+00 0. -1.
</event>
<event>
 6    1  0.6597032E-006  0.1146006E+03  0.7561462E-02  0.1252280E+00
          2   -1    0    0  501    0  0.00000000000E+00  0.00000000000E+00  0.24763739831E+02  0.24763739831E+02  0.00000000000E+00 0. -1.
         -2   -1    0    0    0  501 -0.00000000000E+00 -0.00000000000E+00 -0.85700440244E+03  0.85700440244E+03  0.00000000000E+00 0.  1.
          5    1    1    2  502    0 -0.45501216174E+02 -0.32927355523E+02 -0.38585196557E+03  0.38994074313E+03  0.41800000000E+01 0. -1.
         -5    1    1    2    0  502  0.58866892835E+02 -0.52553776867E+02 -0.19283081352E+03  0.20839483097E+03  0.41800000000E+01 0. -1.
        -11    1    1    2    0    0  0.11575195954E+02  0.43615610297E+02 -0.28983219719E+02  0.53631461365E+02  0.00000000000E+00 0. -1.
         11    1    1    2    0    0 -0.24940872614E+02  0.41865522094E+02 -0.22457466380E+03  0.22980110680E+03  0.00000000000E+00 0.  1.
</event>
<event>
 6    1  0.6597032E-006  0.9858028E+02  0.7561462E-02  0.1283310E+00
          2   -1    0    0  501    0  0.00000000000E+00  0.00000000000E+00  0.21477874756E+03  0.21477874756E+03  0.00000000000E+00 0.  1.
         -2   -1    0    0    0  501 -0.00000000000E+00 -0.00000000000E+00 -0.68127165151E+02  0.68127165151E+02  0.00000000000E+00 0. -1.
          5    1    1    2  502    0  0.29630299587E+02 -0.26532945527E+02 -0.17030750765E+02  0.43468042555E+02  0.41800000000E+01 0. -1.
         -5    1    1    2    0  502  0.10771501121E+01  0.67942293503E+02  0.82122369143E+02  0.10667179296E+03  0.41800000000E+01 0. -1.
        -11    1    1    2    0    0  0.22350675021E+02 -0.25036551288E+02  0.67658974779E+02  0.75525614479E+02  0.00000000000E+00 0.  1.
         11    1    1    2    0    0 -0.53058124719E+02 -0.16372796687E+02  0.13900989250E+02  0.57240462718E+02  0.00000000000E+00 0. -1.
</event>
<event>
 6    1  0.6597032E-006  0.9219584E+02  0.7561462E-02  0.1297620E+00
          1   -1    0    0  501    0  0.00000000000E+00  0.00000000000E+00  0.40107080591E+02  0.40107080591E+02  0.00000000000E+00 0. -1.
         -1   -1    0    0    0  501 -0.00000000000E+00 -0.00000000000E+00 -0.35296832150E+03  0.35296832150E+03  0.00000000000E+00 0.  1.
          5    1    1    2  502    0 -0.44826703057E+02 -0.22531218065E+02 -0.47217643221E+02  0.69022223419E+02  0.41800000000E+01 0.  1.
         -5    1    1    2    0  502  0.49300255016E+02  0.41225937563E+02 -0.17842510923E+03  0.18969207964E+03  0.41800000000E+01 0.  1.
        -11    1    1    2    0    0  0.30624257586E+02 -0.17570396550E+01  0.78089479559E+01  0.31652993685E+02  0.00000000000E+00 0. -1.
         11    1    1    2    0    0 -0.35097809545E+02 -0.16937679843E+02 -0.95027436410E+02  0.10270810535E+03  0.00000000000E+00 0.  1.
</event>
<event>
 6    1  0.1959757E-005  0.4732194E+03  0.7561462E-02  0.1021015E+00
          2   -1    0    0  501    0  0.00000000000E+00  0.00000000000E+00  0.20853377415E+04  0.20853377415E+04  0.00000000000E+00 0. -1.
         -2   -1    0    0    0  501 -0.00000000000E+00 -0.00000000000E+00 -0.10997226174E+03  0.10997226174E+03  0.00000000000E+00 0.  1.
          5    1    1    2  502    0 -0.13866055086E+03  0.10443134593E+03  0.28378576088E+03  0.33269277848E+03  0.41800000000E+01 0.  1.
         -5    1    1    2    0  502 -0.30129676721E+03  0.30567564046E+02  0.54566174821E+03  0.62408199282E+03  0.41800000000E+01 0.  1.
        -11    1    1    2    0    0  0.24681471727E+03 -0.12465943676E+03  0.67807197737E+03  0.73228347402E+03  0.00000000000E+00 0.  1.
         11    1    1    2    0    0  0.19314260079E+03 -0.10339473221E+02  0.46784599328E+03  0.50625175790E+03  0.00000000000E+00 0. -1.
</event>
<event>
 6    1  0.6597032E-006  0.6375929E+02  0.7561462E-02  0.1382700E+00
         -1   -1    0    0    0  501 -0.00000000000E+00  0.00000000000E+00  0.36727113359E+02  0.36727113359E+02  0.00000000000E+00 0.  1.
          1   -1    0    0  501    0  0.00000000000E+00 -0.00000000000E+00 -0.55079255187E+03  0.55079255187E+03  0.00000000000E+00 0. -1.
          5    1    1    2  502    0  0.59171209580E+01 -0.86496321540E+01 -0.23042047716E+03  0.23069654777E+03  0.41800000000E+01 0. -1.
         -5    1    1    2    0  502  0.16671979946E+01  0.30520197933E+02  0.21431255519E+02  0.37563721117E+02  0.41800000000E+01 0.  1.
        -11    1    1    2    0    0  0.35977328525E+02  0.13871652327E+01 -0.19927458499E+03  0.20250099412E+03  0.00000000000E+00 0.  1.
         11    1    1    2    0    0 -0.43561647478E+02 -0.23257731012E+02 -0.10580163188E+03  0.11675840223E+03  0.00000000000E+00 0. -1.
</event>
<event>
 6    1  0.6597032E-006  0.1014045E+03  0.7561462E-02  0.1277370E+00
         -1   -1    0    0    0  501 -0.00000000000E+00  0.00000000000E+00  0.16380410121E+03  0.16380410121E+03  0.00000000000E+00 0.  1.
          1   -1    0    0  501    0  0.00000000000E+00 -0.00000000000E+00 -0.67507813681E+02  0.67507813681E+02  0.00000000000E+00 0. -1.
          5    1    1    2  502    0 -0.22669557322E+02  0.83681233487E+02  0.28687722992E+02  0.91416166609E+02  0.41800000000E+01 0. -1.
         -5    1    1    2    0  502  0.36593045828E+02 -0.44477046293E+02  0.56006452096E+02  0.80445346206E+02  0.41800000000E+01 0.  1.
        -11    1    1    2    0    0 -0.26063342281E+02 -0.37979158081E+02  0.10104352729E+02  0.47157313361E+02  0.00000000000E+00 0. -1.
         11    1    1    2    0    0  0.12139853775E+02 -0.12250291132E+01  0.14977597137E+01  0.12293088715E+02  0.00000000000E+00 0.  1.
</event>
<event>
 6    1  0.6597032E-006  0.9895749E+02  0.7561462E-02  0.1282504E+00
          1   -1    0    0  501    0  0.00000000000E+00  0.00000000000E+00  0.37350328668E+03  0.37350328668E+03  0.00000000000E+00 0. -1.
         -1   -1    0    0    0  501 -0.00000000000E+00 -0.00000000000E+00 -0.50965133353E+02  0.50965133353E+02  0.00000000000E+00 0.  1.
          5    1    1    2  502    0  0.48452291440E+02  0.43348142185E+02 -0.96049626134E+01  0.65851451642E+02  0.41800000000E+01 0. -1.
         -5    1    1    2    0  502 -0.34232853781E+02 -0.12411857373E+02  0.66068375335E+02  0.75554252699E+02  0.41800000000E+01 0. -1.
        -11    1    1    2    0    0 -0.47530863737E+02  0.41779228325E+01  0.14604419282E+03  0.15364095907E+03  0.00000000000E+00 0. -1.
         11    1    1    2    0    0  0.33311426078E+02 -0.35114207644E+02  0.12003054778E+03  0.12942175662E+03  0.00000000000E+00 0.  1.
</event>
<event>
 6    1  0.6597032E-006  0.1075995E+03  0.7561462E-02  0.1265081E+00
          1   -1    0    0  501    0  0.00000000000E+00  0.00000000000E+00  0.63858054853E+02  0.63858054853E+02  0.00000000000E+00 0. -1.
         -1   -1    0    0    0  501 -0.00000000000E+00 -0.00000000000E+00 -0.23170992316E+03  0.23170992316E+03  0.00000000000E+00 0.  1.
          5    1    1    2  502    0  0.44600083328E+02  0.50920774670E+02 -0.18938168756E+02  0.70414624629E+02  0.41800000000E+01 0.  1.
         -5    1    1    2    0  502 -0.29754773739E+01 -0.39850672916E+02 -0.98917155745E+02  0.10676612617E+03  0.41800000000E+01 0.  1.
        -11    1    1    2    0    0 -0.46880862616E+02  0.36453610944E+02 -0.24994873263E+02  0.64431550656E+02  0.00000000000E+00 0.  1.
         11    1    1    2    0    0  0.52562566614E+01 -0.47523712697E+02 -0.25001670547E+02  0.53955676557E+02  0.00000000000E+00 0. -1.
</event>
<event>
 6    1  0.6597032E-006  0.1674208E+03  0.7561462E-02  0.1180565E+00
         -2   -1    0    0    0  501 -0.00000000000E+00  0.00000000000E+00  0.22583572020E+03  0.22583572020E+03  0.00000000000E+00 0. -1.
          2   -1    0    0  501    0  0.00000000000E+00 -0.00000000000E+00 -0.19644404121E+03  0.19644404121E+03  0.00000000000E+00 0.  1.
          5    1    1    2  502    0 -0.27482188347E+02  0.12085201973E+02  0.66599351468E+01  0.31034656745E+02  0.41800000000E+01 0. -1.
         -5    1    1    2    0  502  0.12565684119E+03  0.71959303980E+02  0.13334544894E+03  0.19689150393E+03  0.41800000000E+01 0. -1.
        -11    1    1    2    0    0 -0.55510640452E+02  0.99939854222E+01 -0.35231746621E+02  0.66502533170E+02  0.00000000000E+00 0. -1.
         11    1    1    2    0    0 -0.42664012388E+02 -0.94038491376E+02 -0.75381958474E+02  0.12785106756E+03  0.00000000000E+00 0.  1.
</event>
<event>
 6    1  0.6597032E-006  0.1179352E+03  0.7561462E-02  0.1246543E+00
          2   -1    0    0  501    0  0.00000000000E+00  0.00000000000E+00  0.22305326474E+03  0.22305326474E+03  0.00000000000E+00 0. -1.
         -2   -1    0    0    0  501 -0.00000000000E+00 -0.00000000000E+00 -0.10249291536E+03  0.10249291536E+03  0.00000000000E+00 0.  1.
          5    1    1    2  502    0 -0.57804929996E+02  0.72859986870E+02  0.78159025953E+01  0.93426700423E+02  0.41800000000E+01 0. -1.
         -5    1    1    2    0  502  0.25031637699E+02 -0.21789311626E+02 -0.34694801809E+02  0.48192931635E+02  0.41800000000E+01 0. -1.
        -11    1    1    2    0    0  0.25179380928E+02  0.23454682239E+02  0.37547591384E+02  0.50930785990E+02  0.00000000000E+00 0. -1.
         11    1    1    2    0    0  0.75939113696E+01 -0.74525357482E+02  0.10989165722E+03  0.13299576205E+03  0.00000000000E+00 0.  1.
</event>
<event>
 6    1  0.6597032E-006  0.1129400E+03  0.7561462E-02  0.1255220E+00
         -2   -1    0    0    0  501 -0.00000000000E+00  0.00000000000E+00  0.50946925346E+02  0.50946925346E+02  0.00000000000E+00 0.  1.
          2   -1    0    0  501    0  0.00000000000E+00 -0.00000000000E+00 -0.42071393465E+03  0.42071393465E+03  0.00000000000E+00 0. -1.
          5    1    1    2  502    0  0.47746882287E+02  0.16231414436E+02 -0.86262607234E+02  0.10000966648E+03  0.41800000000E+01 0.  1.
         -5    1    1    2    0  502 -0.98062558815E+00 -0.88816595878E+02 -0.39614888711E+02  0.97345575849E+02  0.41800000000E+01 0.  1.
        -11    1    1    2    0    0 -0.37074094465E+02  0.58506960576E+02 -0.24735171440E+03  0.25686654810E+03  0.00000000000E+00 0. -1.
         11    1    1    2    0    0 -0.96921622335E+01  0.14078220865E+02  0.34622010357E+01  0.17439069571E+02  0.00000000000E+00 0.  1.
</event>
<event>
 6    1  0.6597032E-006  0.1160067E+03  0.7561462E-02  0.1249834E+00
         -1   -1    0    0    0  501 -0.00000000000E+00  0.00000000000E+00  0.45163255631E+02  0.45163255631E+02  0.00000000000E+00 0.  1.
          1   -1    0    0  501    0  0.00000000000E+00 -0.00000000000E+00 -0.31562043192E+03  0.31562043192E+03  0.00000000000E+00 0. -1.
          5    1    1    2  502    0  0.18035135771E+02 -0.39659818140E+02 -0.22551043847E+02  0.49236056663E+02  0.41800000000E+01 0.  1.
         -5    1    1    2    0  502 -0.65103708170E+02  0.53247987174E+02 -0.12046496501E+03  0.14698000255E+03  0.41800000000E+01 0.  1.
        -11    1    1    2    0    0 -0.17969930645E+02 -0.31772897506E+02 -0.47936181036E+02  0.60252077770E+02  0.00000000000E+00 0. -1.
         11    1    1    2    0    0  0.65038503044E+02  0.18184728472E+02 -0.79504986400E+02  0.10431555057E+03  0.00000000000E+00 0.  1.
</event>
<event>
 6    1  0.6597032E-006  0.1161859E+03  0.7561462E-02  0.1249525E+00
          2   -1    0    0  501    0  0.00000000000E+00  0.00000000000E+00  0.85214847710E+02  0.85214847710E+02  0.00000000000E+00 0. -1.
         -2   -1    0    0    0  501 -0.00000000000E+00 -0.00000000000E+00 -0.24244301045E+03  0.24244301045E+03  0.00000000000E+00 0.  1.
          5    1    1    2  502    0 -0.13466663473E+02 -0.44016473268E+02 -0.87808553946E+02  0.99230113827E+02  0.41800000000E+01 0.  1.
         -5    1    1    2    0  502  0.56955602793E+02  0.61293101869E+02 -0.87224695971E+02  0.12093967510E+03  0.41800000000E+01 0.  1.
        -11    1    1    2    0    0  0.23377189871E+02  0.15359349188E+02 -0.73922310091E+01  0.28931776527E+02  0.00000000000E+00 0.  1.
         11    1    1    2    0    0 -0.66866129191E+02 -0.32635977788E+02  0.25197318189E+02  0.78556292702E+02  0.00000000000E+00 0. -1.
</event>
<event>
 6    1  0.6597032E-006  0.2066752E+03  0.7561462E-02  0.1144226E+00
         -2   -1    0    0    0  501 -0.00000000000E+00  0.00000000000E+00  0.37785012223E+02  0.37785012223E+02  0.00000000000E+00 0.  1.
          2   -1    0    0  501    0  0.00000000000E+00 -0.00000000000E+00 -0.14667375004E+04  0.14667375004E+04  0.00000000000E+00 0. -1.
          5    1    1    2  502    0 -0.91871387600E+02  0.36342043163E+02 -0.29529990350E+03  0.31141708586E+03  0.41800000000E+01 0.  1.
         -5    1    1    2    0  502 -0.91906166822E+02 -0.59973290665E+02 -0.13999317990E+03  0.17793004780E+03  0.41800000000E+01 0.  1.
        -11    1    1    2    0    0  0.69318516133E+02 -0.33189404349E+02 -0.29023963083E+03  0.30024262946E+03  0.00000000000E+00 0.  1.
         11    1    1    2    0    0  0.11445903829E+03  0.56820651851E+02 -0.70341977394E+03  0.71493274949E+03  0.00000000000E+00 0. -1.
</event>
<event>
 6    1  0.6597032E-006  0.1634453E+03  0.7561462E-02  0.1184861E+00
          1   -1    0    0  501    0  0.00000000000E+00  0.00000000000E+00  0.87926238372E+03  0.87926238372E+03  0.00000000000E+00 0. -1.
         -1   -1    0    0    0  501 -0.00000000000E+00 -0.00000000000E+00 -0.41191376544E+02  0.41191376544E+02  0.00000000000E+00 0.  1.
          5    1    1    2  502    0 -0.78507290764E+02 -0.77519807216E+02  0.10324711952E+03  0.15116267827E+03  0.41800000000E+01 0. -1.
         -5    1    1    2    0  502 -0.52968232591E+02  0.16649025521E+02  0.19860431278E+03  0.20626189462E+03  0.41800000000E+01 0. -1.
        -11    1    1    2    0    0  0.84637226901E+02  0.73710259840E+02  0.45279582481E+03  0.46649836178E+03  0.00000000000E+00 0. -1.
         11    1    1    2    0    0  0.46838296454E+02 -0.12839478145E+02  0.83423750064E+02  0.96530825587E+02  0.00000000000E+00 0.  1.
</event>
<event>
 6    1  0.6597032E-006  0.6163702E+02  0.7561462E-02  0.1391088E+00
         -1   -1    0    0    0  501 -0.00000000000E+00  0.00000000000E+00  0.12074095497E+03  0.12074095497E+03  0.00000000000E+00 0.  1.
          1   -1    0    0  501    0  0.00000000000E+00 -0.00000000000E+00 -0.10383998431E+03  0.10383998431E+03  0.00000000000E+00 0. -1.
          5    1    1    2  502    0 -0.51749692139E+01  0.28398817302E+02  0.65846414433E+02  0.72017330026E+02  0.41800000000E+01 0.  1.
         -5    1    1    2    0  502  0.32049434235E+02 -0.18388339690E+02 -0.44598641807E+02  0.58067275831E+02  0.41800000000E+01 0.  1.
        -11    1    1    2    0    0  0.41670363846E+01 -0.22924573957E+02  0.35435779747E+02  0.42409842839E+02  0.00000000000E+00 0.  1.
         11    1    1    2    0    0 -0.31041501406E+02  0.12914096346E+02 -0.39782581712E+02  0.52086490587E+02  0.00000000000E+00 0. -1.
</event>
<event>
 6    1  0.6597032E-006  0.1968034E+03  0.7561462E-02  0.1152464E+00
          4   -1    0    0  501    0  0.00000000000E+00  0.00000000000E+00  0.24485529393E+03  0.24485529393E+03  0.00000000000E+00 0. -1.
         -4   -1    0    0    0  501 -0.00000000000E+00 -0.00000000000E+00 -0.19161056177E+03  0.19161056177E+03  0.00000000000E+00 0.  1.
          5    1    1    2  502    0 -0.28842508300E+02 -0.17852806871E+03 -0.64044306145E+02  0.19189399978E+03  0.41800000000E+01 0. -1.
         -5    1    1    2    0  502 -0.15068493963E+02  0.12229689372E+02  0.16750795971E+02  0.25974725756E+02  0.41800000000E+01 0. -1.
        -11    1    1    2    0    0  0.58100792548E+02  0.16874249535E+03  0.85892064192E+02  0.19805852297E+03  0.00000000000E+00 0.  1.
         11    1    1    2    0    0 -0.14189790285E+02 -0.24441160058E+01  0.14646178140E+02  0.20538607195E+02  0.00000000000E+00 0. -1.
</event>
<event>
 6    1  0.6597032E-006  0.1035755E+03  0.7561462E-02  0.1272952E+00
         -2   -1    0    0    0  501 -0.00000000000E+00  0.00000000000E+00  0.38237120182E+02  0.38237120182E+02  0.00000000000E+00 0.  1.
          2   -1    0    0  501    0  0.00000000000E+00 -0.00000000000E+00 -0.36772013541E+03  0.36772013541E+03  0.00000000000E+00 0. -1.
          5    1    1    2  502    0  0.56097789897E+02  0.18378321851E+02 -0.77279768620E+02  0.97336323042E+02  0.41800000000E+01 0. -1.
         -5    1    1    2    0  502 -0.50273017016E+02 -0.34714548870E+02 -0.29176936012E+02  0.67832456377E+02  0.41800000000E+01 0. -1.
        -11    1    1    2    0    0 -0.13006567225E+02  0.50333752668E+02 -0.96920018886E+02  0.10998248729E+03  0.00000000000E+00 0. -1.
         11    1    1    2    0    0  0.71817943439E+01 -0.33997525648E+02 -0.12610629171E+03  0.13080598889E+03  0.00000000000E+00 0.  1.
</event>
<event>
 6    1  0.6597032E-006  0.9805655E+02  0.7561462E-02  0.1284437E+00
         -1   -1    0    0    0  501 -0.00000000000E+00  0.00000000000E+00  0.65876870604E+02  0.65876870604E+02  0.00000000000E+00 0.  1.
          1   -1    0    0  501    0  0.00000000000E+00 -0.00000000000E+00 -0.22542975176E+03  0.22542975176E+03  0.00000000000E+00 0. -1.
          5    1    1    2  502    0  0.35985366013E+02 -0.17657137154E+02 -0.37856933484E+02  0.55293226279E+02  0.41800000000E+01 0. -1.
         -5    1    1    2    0  502 -0.73346947702E+02  0.21584180313E+02  0.12974059349E+02  0.77662411712E+02  0.41800000000E+01 0. -1.
        -11    1    1    2    0    0 -0.81930891891E+01 -0.26971954697E+02 -0.73233869902E+02  0.78471732180E+02  0.00000000000E+00 0. -1.
         11    1    1    2    0    0  0.45554670878E+02  0.23044911538E+02 -0.61436137119E+02  0.79879252192E+02  0.00000000000E+00 0.  1.
</event>
<event>
 6    1  0.6597032E-006  0.1273302E+03  0.7561462E-02  0.1231472E+00
          2   -1    0    0  501    0  0.00000000000E+00  0.00000000000E+00  0.31307642516E+03  0.31307642516E+03  0.00000000000E+00 0. -1.
         -2   -1    0    0    0  501 -0.00000000000E+00 -0.00000000000E+00 -0.88050624045E+02  0.88050624045E+02  0.00000000000E+00 0.  1.
          5    1    1    2  502    0 -0.47063963946E+02  0.22870678410E+01  0.74149593309E+02  0.87953862732E+02  0.41800000000E+01 0. -1.
         -5    1    1    2    0  502 -0.35562492999E+02  0.64871892007E+02 -0.33427478481E+02  0.81289125954E+02  0.41800000000E+01 0. -1.
        -11    1    1    2    0    0 -0.26903169899E+01 -0.45040222154E+02  0.30003168116E+02  0.54185325635E+02  0.00000000000E+00 0.  1.
         11    1    1    2    0    0  0.85316773935E+02 -0.22118737694E+02  0.15430051817E+03  0.17769873489E+03  0.00000000000E+00 0. -1.
</event>
<event>
 6    1  0.6597032E-006  0.9370874E+02  0.7561462E-02  0.1294111E+00
          1   -1    0    0  501    0  0.00000000000E+00  0.00000000000E+00  0.15174892403E+03  0.15174892403E+03  0.00000000000E+00 0. -1.
         -1   -1    0    0    0  501 -0.00000000000E+00 -0.00000000000E+00 -0.14919704701E+03  0.14919704701E+03  0.00000000000E+00 0.  1.
          5    1    1    2  502    0 -0.32239910934E+02 -0.33105968953E+02  0.41354509807E+02  0.62153720072E+02  0.41800000000E+01 0. -1.
         -5    1    1    2    0  502  0.29320333784E+01 -0.29615537306E+02 -0.10323388227E+03  0.10751922488E+03  0.41800000000E+01 0.  1.
        -11    1    1    2    0    0  0.58314636281E+02  0.25167548350E+02  0.20860654495E+02  0.66851845154E+02  0.00000000000E+00 0. -1.
         11    1    1    2    0    0 -0.29006758725E+02  0.37553957909E+02  0.43570594987E+02  0.64421180941E+02  0.00000000000E+00 0.  1.
</event>
<event>
 6    1  0.6597032E-006  0.1499765E+03  0.7561462E-02  0.1200502E+00
         -1   -1    0    0    0  501 -0.00000000000E+00  0.00000000000E+00  0.54360394784E+02  0.54360394784E+02  0.00000000000E+00 0.  1.
          1   -1    0    0  501    0  0.00000000000E+00 -0.00000000000E+00 -0.71915157781E+03  0.71915157781E+03  0.00000000000E+00 0. -1.
          5    1    1    2  502    0 -0.39188019181E+02 -0.11595991666E+03 -0.71695871574E+02  0.14191607915E+03  0.41800000000E+01 0.  1.
         -5    1    1    2    0  502 -0.27670273808E+02  0.31592739303E+02 -0.32325671915E+02  0.53161703265E+02  0.41800000000E+01 0.  1.
        -11    1    1    2    0    0  0.10990229486E+02  0.78311964503E+02 -0.23757725851E+03  0.25039269696E+03  0.00000000000E+00 0.  1.
         11    1    1    2    0    0  0.55868063502E+02  0.60552128576E+01 -0.32319238103E+03  0.32804149322E+03  0.00000000000E+00 0. -1.
</event>
<event>
 6    1  0.6597032E-006  0.8909477E+02  0.7561462E-02  0.1305059E+00
          3   -1    0    0  501    0  0.00000000000E+00  0.00000000000E+00  0.78583114170E+02  0.78583114170E+02  0.00000000000E+00 0.  1.
         -3   -1    0    0    0  501 -0.00000000000E+00 -0.00000000000E+00 -0.50651425365E+03  0.50651425365E+03  0.00000000000E+00 0. -1.
          5    1    1    2  502    0 -0.34394320798E+02  0.92822097931E+01 -0.36749103728E+03  0.36923740818E+03  0.41800000000E+01 0.  1.
         -5    1    1    2    0  502 -0.56879945058E+01  0.60774285302E+02 -0.70410577013E+02  0.93279090855E+02  0.41800000000E+01 0.  1.
        -11    1    1    2    0    0  0.30423737507E+02 -0.45346070829E+02 -0.38850510515E+02  0.67016655473E+02  0.00000000000E+00 0. -1.
         11    1    1    2    0    0  0.96585777963E+01 -0.24710424267E+02  0.48820985326E+02  0.55564213309E+02  0.00000000000E+00 0.  1.
</event>
<event>
 6    1  0.6597032E-006  0.9089321E+02  0.7561462E-02  0.1300703E+00
          1   -1    0    0  501    0  0.00000000000E+00  0.00000000000E+00  0.12720133939E+03  0.12720133939E+03  0.00000000000E+00 0. -1.
         -1   -1    0    0    0  501 -0.00000000000E+00 -0.00000000000E+00 -0.13053686862E+03  0.13053686862E+03  0.00000000000E+00 0.  1.
          5    1    1    2  502    0  0.32239981941E+02  0.70756219014E+02  0.53046308011E+01  0.78047872954E+02  0.41800000000E+01 0. -1.
         -5    1    1    2    0  502 -0.13694364698E+02 -0.28160378167E+02 -0.57377753253E+02  0.65499782376E+02  0.41800000000E+01 0.  1.
        -11    1    1    2    0    0 -0.37761633141E+02 -0.35543795487E+02  0.68380704690E+02  0.85820878049E+02  0.00000000000E+00 0. -1.
         11    1    1    2    0    0  0.19216015898E+02 -0.70520453596E+01 -0.19643111472E+02  0.28369674638E+02  0.00000000000E+00 0.  1.
</event>
<event>
 6    1  0.6597032E-006  0.1000790E+03  0.7561462E-02  0.1280130E+00
         -2   -1    0    0    0  501 -0.00000000000E+00  0.00000000000E+00  0.40906320910E+02  0.40906320910E+02  0.00000000000E+00 0.  1.
          2   -1    0    0  501    0  0.00000000000E+00 -0.00000000000E+00 -0.37435876679E+03  0.37435876679E+03  0.00000000000E+00 0. -1.
          5    1    1    2  502    0 -0.90472871783E+02  0.72149850662E+01 -0.91261980587E+02  0.12877739724E+03  0.41800000000E+01 0. -1.
         -5    1    1    2    0  502  0.29486297440E+02  0.63885050308E+01 -0.12571825849E+03  0.12935535417E+03  0.41800000000E+01 0. -1.
        -11    1    1    2    0    0  0.17632771305E+02  0.17996492069E+02 -0.96745564798E+02  0.99972459502E+02  0.00000000000E+00 0. -1.
         11    1    1    2    0    0  0.43353803038E+02 -0.31599982166E+02 -0.19726642003E+02  0.57159876798E+02  0.00000000000E+00 0.  1.
</event>
<event>
 6    1  0.6597032E-006  0.1126868E+03  0.7561462E-02  0.1255674E+00
          2   -1    0    0  501    0  0.00000000000E+00  0.00000000000E+00  0.72768576240E+02  0.72768576240E+02  0.00000000000E+00 0. -1.
         -2   -1    0    0    0  501 -0.00000000000E+00 -0.00000000000E+00 -0.20100911871E+03  0.20100911871E+03  0.00000000000E+00 0.  1.
          5    1    1    2  502    0  0.42872148101E+02  0.26372134499E+02 -0.28836529390E+02  0.58159508148E+02  0.41800000000E+01 0. -1.
         -5    1    1    2    0  502 -0.35207275005E+02 -0.76770420993E+02 -0.49256494100E+02  0.97861761499E+02  0.41800000000E+01 0. -1.
        -11    1    1    2    0    0 -0.39899861125E+02  0.15521904076E+02  0.70749400661E+01  0.43393354339E+02  0.00000000000E+00 0. -1.
         11    1    1    2    0    0  0.32234988029E+02  0.34876382418E+02 -0.57222459050E+02  0.74363070967E+02  0.00000000000E+00 0.  1.
</event>
<event>
 6    1  0.6597032E-006  0.8011150E+02  0.7561462E-02  0.1328735E+00
         -1   -1    0    0    0  501 -0.00000000000E+00  0.00000000000E+00  0.49841607717E+02  0.49841607717E+02  0.00000000000E+00 0.  1.
          1   -1    0    0  501    0  0.00000000000E+00 -0.00000000000E+00 -0.21446745485E+03  0.21446745485E+03  0.00000000000E+00 0. -1.
          5    1    1    2  502    0 -0.68839721441E+02 -0.23607194529E+02 -0.84751910776E+02  0.11178803899E+03  0.41800000000E+01 0.  1.
         -5    1    1    2    0  502  0.42015649244E+02  0.10986689527E+02 -0.27096476134E+01  0.43713118378E+02  0.41800000000E+01 0.  1.
        -11    1    1    2    0    0  0.30683642056E+02  0.19123147362E+00 -0.13261026695E+00  0.30684524516E+02  0.00000000000E+00 0.  1.
         11    1    1    2    0    0 -0.38595698594E+01  0.12429273528E+02 -0.77031678479E+02  0.78123380683E+02  0.00000000000E+00 0. -1.
</event>
<event>
 6    1  0.6597032E-006  0.8281844E+02  0.7561462E-02  0.1321238E+00
          1   -1    0    0  501    0  0.00000000000E+00  0.00000000000E+00  0.10314518126E+03  0.10314518126E+03  0.00000000000E+00 0. -1.
         -1   -1    0    0    0  501 -0.00000000000E+00 -0.00000000000E+00 -0.12924996298E+03  0.12924996298E+03  0.00000000000E+00 0.  1.
          5    1    1    2  502    0  0.40425572810E+01 -0.49954366267E+02  0.29649352647E+02  0.58380968568E+02  0.41800000000E+01 0. -1.
         -5    1    1    2    0  502  0.80078607073E+01  0.24070168605E+02 -0.72472818493E+02  0.76897858684E+02  0.41800000000E+01 0. -1.
        -11    1    1    2    0    0 -0.33002377063E+02 -0.20422120104E+02 -0.94577477689E+01  0.39945824239E+02  0.00000000000E+00 0.  1.
         11    1    1    2    0    0  0.20951959074E+02  0.46306317766E+02  0.26176431903E+02  0.57170492750E+02  0.00000000000E+00 0. -1.
</event>
<event>
 6    1  0.6597032E-006  0.3511116E+03  0.7561462E-02  0.1062160E+00
          2   -1    0    0  501    0  0.00000000000E+00  0.00000000000E+00  0.11467803454E+04  0.11467803454E+04  0.00000000000E+00 0. -1.
         -2   -1    0    0    0  501 -0.00000000000E+00 -0.00000000000E+00 -0.14388111980E+03  0.14388111980E+03  0.00000000000E+00 0.  1.
          5    1    1    2  502    0  0.14575045645E+03 -0.57463996599E+02  0.33930199279E+02  0.16035597053E+03  0.41800000000E+01 0.  1.
         -5    1    1    2    0  502  0.19369047281E+03 -0.24960844481E+02  0.19280939462E+03  0.27446671577E+03  0.41800000000E+01 0.  1.
        -11    1    1    2    0    0 -0.14535028768E+03  0.47784702711E+02  0.24046470396E+03  0.28501466242E+03  0.00000000000E+00 0. -1.
         11    1    1    2    0    0 -0.19409064158E+03  0.34640138368E+02  0.53569492771E+03  0.57082411644E+03  0.00000000000E+00 0.  1.
</event>
<event>
 6    1  0.6597032E-006  0.7954665E+02  0.7561462E-02  0.1330343E+00
          2   -1    0    0  501    0  0.00000000000E+00  0.00000000000E+00  0.29853160887E+03  0.29853160887E+03  0.00000000000E+00 0. -1.
         -2   -1    0    0    0  501 -0.00000000000E+00 -0.00000000000E+00 -0.53881406082E+02  0.53881406082E+02  0.00000000000E+00 0.  1.
          5    1    1    2  502    0  0.55912242426E+02  0.22637971058E+02  0.18933924910E+03  0.19875985569E+03  0.41800000000E+01 0. -1.
         -5    1    1    2    0  502  0.50621722932E+01 -0.57743839642E+01 -0.19550454376E+02  0.21416390097E+02  0.41800000000E+01 0. -1.
        -11    1    1    2    0    0  0.10365578388E+02  0.92721800372E+01 -0.10893782382E+02  0.17666155002E+02  0.00000000000E+00 0.  1.
         11    1    1    2    0    0 -0.71339993107E+02 -0.26135767131E+02  0.85755190452E+02  0.11457061416E+03  0.00000000000E+00 0. -1.
</event>
<event>
 6    1  0.6597032E-006  0.8200989E+02  0.7561462E-02  0.1323443E+00
          3   -1    0    0  501    0  0.00000000000E+00  0.00000000000E+00  0.16475655606E+03  0.16475655606E+03  0.00000000000E+00 0. -1.
         -3   -1    0    0    0  501 -0.00000000000E+00 -0.00000000000E+00 -0.86960693612E+02  0.86960693612E+02  0.00000000000E+00 0.  1.
          5    1    1    2  502    0 -0.42267916821E+02  0.95143830998E+01 -0.32299199667E+02  0.54201577258E+02  0.41800000000E+01 0.  1.
         -5    1    1    2    0  502  0.59936363861E+02 -0.23210951271E+02  0.34119613827E+02  0.72888520492E+02  0.41800000000E+01 0.  1.
        -11    1    1    2    0    0 -0.33191167285E+02 -0.29506810856E+01  0.91297885450E+02  0.97188805900E+02  0.00000000000E+00 0. -1.
         11    1    1    2    0    0  0.15522720245E+02  0.16647249257E+02 -0.15322437165E+02  0.27438346020E+02  0.00000000000E+00 0.  1.
</event>
<event>
 6    1  0.6597032E-006  0.1073928E+03  0.7561462E-02  0.1265476E+00
          2   -1    0    0  501    0  0.00000000000E+00  0.00000000000E+00  0.28924526008E+03  0.28924526008E+03  0.00000000000E+00 0. -1.
         -2   -1    0    0    0  501 -0.00000000000E+00 -0.00000000000E+00 -0.49288001230E+02  0.49288001230E+02  0.00000000000E+00 0.  1.
          5    1    1    2  502    0  0.44553882826E+02  0.24723454855E+02  0.52870508018E+02  0.73546316787E+02  0.41800000000E+01 0. -1.
         -5    1    1    2    0  502 -0.51878833541E+02 -0.47203404479E+02  0.19627601154E+02  0.72954025872E+02  0.41800000000E+01 0. -1.
        -11    1    1    2    0    0  0.42989662846E+02  0.35168222274E+02  0.88808419303E+02  0.10474660046E+03  0.00000000000E+00 0.  1.
         11    1    1    2    0    0 -0.35664712131E+02 -0.12688272650E+02  0.78650730377E+02  0.87286318189E+02  0.00000000000E+00 0. -1.
</event>
<event>
 6    1  0.6597032E-006  0.1994723E+03  0.7561462E-02  0.1150185E+00
          2   -1    0    0  501    0  0.00000000000E+00  0.00000000000E+00  0.53880279711E+03  0.53880279711E+03  0.00000000000E+00 0. -1.
         -2   -1    0    0    0  501 -0.00000000000E+00 -0.00000000000E+00 -0.12279722314E+03  0.12279722314E+03  0.00000000000E+00 0.  1.
          5    1    1    2  502    0  0.11742587904E+03 -0.12193472442E+03  0.42802773390E+02  0.17466099707E+03  0.41800000000E+01 0.  1.
         -5    1    1    2    0  502  0.24309778747E+02  0.19532170407E+02 -0.26245089103E+02  0.40972528913E+02  0.41800000000E+01 0.  1.
        -11    1    1    2    0    0 -0.14406091802E+03  0.60614606218E+02  0.30744628597E+03  0.34489258812E+03  0.00000000000E+00 0.  1.
         11    1    1    2    0    0  0.23252602315E+01  0.41787947793E+02  0.92001603720E+02  0.10107390614E+03  0.00000000000E+00 0. -1.
</event>
<event>
 6    1  0.6597032E-006  0.1121958E+03  0.7561462E-02  0.1256557E+00
         -2   -1    0    0    0  501 -0.00000000000E+00  0.00000000000E+00  0.45818168194E+02  0.45818168194E+02  0.00000000000E+00 0.  1.
          2   -1    0    0  501    0  0.00000000000E+00 -0.00000000000E+00 -0.39937236786E+03  0.39937236786E+03  0.00000000000E+00 0. -1.
          5    1    1    2  502    0 -0.32637956134E+02 -0.58646980588E+02 -0.15351004232E+02  0.68977026926E+02  0.41800000000E+01 0. -1.
         -5    1    1    2    0  502 -0.13629879001E+02  0.53843940593E+02 -0.69935589017E+02  0.89405830634E+02  0.41800000000E+01 0. -1.
        -11    1    1    2    0    0  0.15595904665E+02 -0.42385847827E+02 -0.11964318283E+03  0.12788386738E+03  0.00000000000E+00 0. -1.
         11    1    1    2    0    0  0.30671930469E+02  0.47188887822E+02 -0.14862442359E+03  0.15892381111E+03  0.00000000000E+00 0.  1.
</event>
<event>
 6    1  0.6597032E-006  0.8964628E+02  0.7561462E-02  0.1303711E+00
          4   -1    0    0  501    0  0.00000000000E+00  0.00000000000E+00  0.75432023226E+02  0.75432023226E+02  0.00000000000E+00 0. -1.
         -4   -1    0    0    0  501 -0.00000000000E+00 -0.00000000000E+00 -0.25531435073E+03  0.25531435073E+03  0.00000000000E+00 0.  1.
          5    1    1    2  502    0 -0.59846088070E+02  0.43101969950E+02 -0.39557959157E+02  0.83795218262E+02  0.41800000000E+01 0.  1.
         -5    1    1    2    0  502 -0.35549325754E+01 -0.41639621538E+02 -0.12799670366E+03  0.13471126224E+03  0.41800000000E+01 0.  1.
        -11    1    1    2    0    0  0.44733589403E+02 -0.13899028565E+01 -0.51872004066E+02  0.68510806860E+02  0.00000000000E+00 0.  1.
         11    1    1    2    0    0  0.18667431243E+02 -0.72445555345E-01  0.39544339376E+02  0.43729086593E+02  0.00000000000E+00 0. -1.
</event>
<event>
 6    1  0.6597032E-006  0.1075376E+03  0.7561462E-02  0.1265199E+00
         -2   -1    0    0    0  501 -0.00000000000E+00  0.00000000000E+00  0.43890269467E+02  0.43890269467E+02  0.00000000000E+00 0.  1.
          2   -1    0    0  501    0  0.00000000000E+00 -0.00000000000E+00 -0.44336339907E+03  0.44336339907E+03  0.00000000000E+00 0. -1.
          5    1    1    2  502    0  0.27312517313E+02 -0.18834275130E+02  0.71099584082E+01  0.34186655733E+02  0.41800000000E+01 0. -1.
         -5    1    1    2    0  502  0.55162142434E+02 -0.11548264562E+02 -0.22499161342E+03  0.23198043642E+03  0.41800000000E+01 0. -1.
        -11    1    1    2    0    0  0.55806413991E+01  0.36435222110E+02 -0.41471617694E+02  0.55484809118E+02  0.00000000000E+00 0.  1.
         11    1    1    2    0    0 -0.88055301146E+02 -0.60526824181E+01 -0.14011985689E+03  0.16560176726E+03  0.00000000000E+00 0. -1.
</event>
<event>
 6    1  0.6597032E-006  0.1370747E+03  0.7561462E-02  0.1217320E+00
         -1   -1    0    0    0  501 -0.00000000000E+00  0.00000000000E+00  0.32907803971E+03  0.32907803971E+03  0.00000000000E+00 0.  1.
          1   -1    0    0  501    0  0.00000000000E+00 -0.00000000000E+00 -0.88355382778E+02  0.88355382778E+02  0.00000000000E+00 0. -1.
          5    1    1    2  502    0  0.74342438406E+01 -0.70478721364E+02  0.10237949340E+02  0.71727304098E+02  0.41800000000E+01 0.  1.
         -5    1    1    2    0  502  0.14426018250E+01 -0.51324209787E+02  0.17744955818E+03  0.18477573896E+03  0.41800000000E+01 0.  1.
        -11    1    1    2    0    0  0.37992683536E+02  0.81130663389E+02  0.36267602082E+02  0.96648680823E+02  0.00000000000E+00 0.  1.
         11    1    1    2    0    0 -0.46869529202E+02  0.40672267762E+02  0.16767547335E+02  0.64281698610E+02  0.00000000000E+00 0. -1.
</event>
<event>
 6    1  0.6597032E-006  0.9615365E+02  0.7561462E-02  0.1288599E+00
         -2   -1    0    0    0  501 -0.00000000000E+00  0.00000000000E+00  0.46567287411E+03  0.46567287411E+03  0.00000000000E+00 0.  1.
          2   -1    0    0  501    0  0.00000000000E+00 -0.00000000000E+00 -0.32919285954E+02  0.32919285954E+02  0.00000000000E+00 0. -1.
          5    1    1    2  502    0  0.93501659299E+01 -0.28063960201E+02  0.25228567265E+03  0.25404831133E+03  0.41800000000E+01 0. -1.
         -5    1    1    2    0  502 -0.45424701715E+02  0.46510348253E+02  0.79121294986E+02  0.10249032999E+03  0.41800000000E+01 0. -1.
        -11    1    1    2    0    0  0.13111901793E+02 -0.53664634162E+02  0.72135013018E+02  0.90858544075E+02  0.00000000000E+00 0.  1.
         11    1    1    2    0    0  0.22962633993E+02  0.35218246110E+02  0.29211607503E+02  0.51194974674E+02  0.00000000000E+00 0. -1.
</event>
<event>
 6    1  0.6597032E-006  0.6742495E+02  0.7561462E-02  0.1369075E+00
          4   -1    0    0  501    0  0.00000000000E+00  0.00000000000E+00  0.70260666760E+02  0.70260666760E+02  0.00000000000E+00 0. -1.
         -4   -1    0    0    0  501 -0.00000000000E+00 -0.00000000000E+00 -0.21317753759E+03  0.21317753759E+03  0.00000000000E+00 0.  1.
          5    1    1    2  502    0  0.13482825933E+02  0.52946047765E+01 -0.11175742932E+03  0.11276974258E+03  0.41800000000E+01 0.  1.
         -5    1    1    2    0  502 -0.56200995630E+02 -0.29150897271E+02 -0.23794928839E+01  0.63493787947E+02  0.41800000000E+01 0.  1.
        -11    1    1    2    0    0  0.17220913599E+02  0.25504542289E+02 -0.59639080368E+02  0.67110814700E+02  0.00000000000E+00 0.  1.
         11    1    1    2    0    0  0.25497256098E+02 -0.16482497952E+01  0.30859131738E+02  0.40063859119E+02  0.00000000000E+00 0. -1.
</event>
<event>
 6    1  0.6597032E-006  0.9115886E+02  0.7561462E-02  0.1300069E+00
         -2   -1    0    0    0  501 -0.00000000000E+00  0.00000000000E+00  0.25856846857E+03  0.25856846857E+03  0.00000000000E+00 0.  1.
          2   -1    0    0  501    0  0.00000000000E+00 -0.00000000000E+00 -0.53534933561E+02  0.53534933561E+02  0.00000000000E+00 0. -1.
          5    1    1    2  502    0 -0.24229430072E+02 -0.54831604626E+02  0.15123303009E+03  0.16273436004E+03  0.41800000000E+01 0.  1.
         -5    1    1    2    0  502 -0.15271036318E+02  0.43117400216E+02  0.12912962730E+02  0.47713014556E+02  0.41800000000E+01 0.  1.
        -11    1    1    2    0    0 -0.70055220688E+01 -0.19207850503E+02 -0.12853899667E+02  0.24150395381E+02  0.00000000000E+00 0. -1.
         11    1    1    2    0    0  0.46505988459E+02  0.30922054914E+02  0.53741441854E+02  0.77505632151E+02  0.00000000000E+00 0.  1.
</event>
<event>
 6    1  0.6597032E-006  0.1264424E+03  0.7561462E-02  0.1232832E+00
          1   -1    0    0  501    0  0.00000000000E+00  0.00000000000E+00  0.82387691341E+02  0.82387691341E+02  0.00000000000E+00 0. -1.
         -1   -1    0    0    0  501 -0.00000000000E+00 -0.00000000000E+00 -0.27788957266E+03  0.27788957266E+03  0.00000000000E+00 0.  1.
          5    1    1    2  502    0  0.94945289238E+02  0.46634017916E+02 -0.30321772209E+02  0.11011912570E+03  0.41800000000E+01 0. -1.
         -5    1    1    2    0  502  0.15100583355E+01 -0.80243403378E+01 -0.94315251414E+02  0.94760273128E+02  0.41800000000E+01 0. -1.
        -11    1    1    2    0    0 -0.14278234811E+02 -0.52588261324E+02 -0.21939415133E+02  0.58742924295E+02  0.00000000000E+00 0. -1.
         11    1    1    2    0    0 -0.82177112763E+02  0.13978583745E+02 -0.48925442560E+02  0.96654940873E+02  0.00000000000E+00 0.  1.
</event>
<event>
 6    1  0.6597032E-006  0.1183723E+03  0.7561462E-02  0.1245807E+00
          2   -1    0    0  501    0  0.00000000000E+00  0.00000000000E+00  0.36792045493E+03  0.36792045493E+03  0.00000000000E+00 0.  1.
         -2   -1    0    0    0  501 -0.00000000000E+00 -0.00000000000E+00 -0.46554355900E+02  0.46554355900E+02  0.00000000000E+00 0. -1.
          5    1    1    2  502    0  0.14429001689E+02  0.76594851710E+02  0.15058269585E+03  0.16961010609E+03  0.41800000000E+01 0.  1.
         -5    1    1    2    0  502 -0.51704728901E+02 -0.18043705466E+02  0.36689395537E+02  0.66049515082E+02  0.41800000000E+01 0.  1.
        -11    1    1    2    0    0  0.61357613025E+02 -0.38540475102E+02  0.12775039874E+03  0.14686827185E+03  0.00000000000E+00 0.  1.
         11    1    1    2    0    0 -0.24081885812E+02 -0.20010671142E+02  0.63436089037E+01  0.31946917813E+02  0.00000000000E+00 0. -1.
</event>
<event>
 6    1  0.6597032E-006  0.1857610E+03  0.7561462E-02  0.1162341E+00
         -2   -1    0    0    0  501 -0.00000000000E+00  0.00000000000E+00  0.10412259424E+03  0.10412259424E+03  0.00000000000E+00 0.  1.
          2   -1    0    0  501    0  0.00000000000E+00 -0.00000000000E+00 -0.49787509155E+03  0.49787509155E+03  0.00000000000E+00 0. -1.
          5    1    1    2  502    0 -0.42301111333E+02 -0.12323561988E+03 -0.86559228640E+02  0.15648122728E+03  0.41800000000E+01 0. -1.
         -5    1    1    2    0  502 -0.58848164039E+02  0.18496937749E+01  0.26572533254E+02  0.64730979456E+02  0.41800000000E+01 0.  1.
        -11    1    1    2    0    0 -0.16109035232E+02  0.27716202741E+02 -0.76485454019E+02  0.82931981690E+02  0.00000000000E+00 0.  1.
         11    1    1    2    0    0  0.11725831060E+03  0.93669723363E+02 -0.25728034791E+03  0.29785349738E+03  0.00000000000E+00 0. -1.
</event>
<event>
 6    1  0.6597032E-006  0.1160975E+03  0.7561462E-02  0.1249677E+00
         -2   -1    0    0    0  501 -0.00000000000E+00  0.00000000000E+00  0.84000088594E+03  0.84000088594E+03  0.00000000000E+00 0.  1.
          2   -1    0    0  501    0  0.00000000000E+00 -0.00000000000E+00 -0.42513423265E+02  0.42513423265E+02  0.00000000000E+00 0. -1.
          5    1    1    2  502    0 -0.85241897198E+02 -0.42194294545E+02  0.66125566187E+03  0.66807414430E+03  0.41800000000E+01 0. -1.
         -5    1    1    2    0  502 -0.18373337915E+02  0.16199304505E+02  0.17658564855E+02  0.30484329176E+02  0.41800000000E+01 0. -1.
        -11    1    1    2    0    0  0.58651383550E+02  0.31942250232E+02  0.12135160387E+03  0.13851535621E+03  0.00000000000E+00 0.  1.
         11    1    1    2    0    0  0.44963851564E+02 -0.59472601922E+01 -0.27783679178E+01  0.45440479526E+02  0.00000000000E+00 0. -1.
</event>
<event>
 6    1  0.6597032E-006  0.1146101E+03  0.7561462E-02  0.1252263E+00
         -2   -1    0    0    0  501 -0.00000000000E+00  0.00000000000E+00  0.59885293916E+02  0.59885293916E+02  0.00000000000E+00 0.  1.
          2   -1    0    0  501    0  0.00000000000E+00 -0.00000000000E+00 -0.25147955239E+03  0.25147955239E+03  0.00000000000E+00 0. -1.
          5    1    1    2  502    0 -0.81770695332E+02  0.80190352581E+01 -0.11702906004E+03  0.14305252474E+03  0.41800000000E+01 0.  1.
         -5    1    1    2    0  502  0.35591252792E+02 -0.26375560386E+02 -0.19207139379E+02  0.48464358698E+02  0.41800000000E+01 0.  1.
        -11    1    1    2    0    0  0.44832953989E+02 -0.30087082618E+02 -0.13124156943E+02  0.55565005167E+02  0.00000000000E+00 0.  1.
         11    1    1    2    0    0  0.13464885515E+01  0.48443607746E+02 -0.42233902116E+02  0.64282957701E+02  0.00000000000E+00 0. -1.
</event>
<event>
 6    1  0.6597032E-006  0.1502434E+03  0.7561462E-02  0.1200174E+00
          2   -1    0    0  501    0  0.00000000000E+00  0.00000000000E+00  0.93139605580E+02  0.93139605580E+02  0.00000000000E+00 0. -1.
         -2   -1    0    0    0  501 -0.00000000000E+00 -0.00000000000E+00 -0.34405900307E+03  0.34405900307E+03  0.00000000000E+00 0.  1.
          5    1    1    2  502    0  0.14657556399E+02  0.11772505825E+02 -0.76214170480E+02  0.78609846934E+02  0.41800000000E+01 0.  1.
         -5    1    1    2    0  502 -0.50888117807E+02 -0.13604947448E+03 -0.12834898470E+03  0.19388139239E+03  0.41800000000E+01 0.  1.
        -11    1    1    2    0    0  0.43676424409E+02  0.81243017986E+02  0.10696952804E+02  0.92857325074E+02  0.00000000000E+00 0. -1.
         11    1    1    2    0    0 -0.74458630014E+01  0.43033950673E+02 -0.57053195112E+02  0.71850044251E+02  0.00000000000E+00 0.  1.
</event>
<event>
 6    1  0.6597032E-006  0.1035952E+03  0.7561462E-02  0.1272912E+00
         -1   -1    0    0    0  501 -0.00000000000E+00  0.00000000000E+00  0.69502891847E+02  0.69502891847E+02  0.00000000000E+00 0. -1.
          1   -1    0    0  501    0  0.00000000000E+00 -0.00000000000E+00 -0.19010629740E+03  0.19010629740E+03  0.00000000000E+00 0.  1.
          5    1    1    2  502    0  0.10428682903E+01  0.63535494228E+02  0.14002857858E+01  0.63696780149E+02  0.41800000000E+01 0. -1.
         -5    1    1    2    0  502 -0.31609383929E+02 -0.41793001873E+02 -0.59035980720E+02  0.79047628538E+02  0.41800000000E+01 0. -1.
        -11    1    1    2    0    0  0.24420731670E+02  0.30086476459E+02 -0.49684546469E+02  0.63008906980E+02  0.00000000000E+00 0.  1.
         11    1    1    2    0    0  0.61457839683E+01 -0.51828968814E+02 -0.13283164146E+02  0.53855873576E+02  0.00000000000E+00 0. -1.
</event>
<event>
 6    1  0.6597032E-006  0.2865126E+03  0.7561462E-02  0.1092184E+00
          2   -1    0    0  501    0  0.00000000000E+00  0.00000000000E+00  0.11285110821E+04  0.11285110821E+04  0.00000000000E+00 0. -1.
         -2   -1    0    0    0  501 -0.00000000000E+00 -0.00000000000E+00 -0.15579831687E+03  0.15579831687E+03  0.00000000000E+00 0.  1.
          5    1    1    2  502    0 -0.89343337139E+02  0.58177619724E+02 -0.37362897403E+02  0.11305010319E+03  0.41800000000E+01 0.  1.
         -5    1    1    2    0  502 -0.10667968143E+03  0.14609009294E+03  0.85735408530E+02  0.20022712693E+03  0.41800000000E+01 0.  1.
        -11    1    1    2    0    0  0.16233614142E+03 -0.14730753676E+03  0.80779302293E+03  0.83700782618E+03  0.00000000000E+00 0. -1.
         11    1    1    2    0    0  0.33686877146E+02 -0.56960175898E+02  0.11654723113E+03  0.13402434262E+03  0.00000000000E+00 0.  1.
</event>
<event>
 6    1  0.6597032E-006  0.1789079E+03  0.7561462E-02  0.1168864E+00
          1   -1    0    0  501    0  0.00000000000E+00  0.00000000000E+00  0.10196088118E+03  0.10196088118E+03  0.00000000000E+00 0. -1.
         -1   -1    0    0    0  501 -0.00000000000E+00 -0.00000000000E+00 -0.40801403238E+03  0.40801403238E+03  0.00000000000E+00 0.  1.
          5    1    1    2  502    0 -0.52478243508E+02 -0.28184656653E+02 -0.24382622754E+02  0.64500586081E+02  0.41800000000E+01 0. -1.
         -5    1    1    2    0  502  0.28037622729E+01 -0.11913178644E+03 -0.22738763949E+03  0.25675446368E+03  0.41800000000E+01 0. -1.
        -11    1    1    2    0    0  0.73543866184E+02  0.86547061228E+02 -0.47401710722E+02  0.12306915227E+03  0.00000000000E+00 0.  1.
         11    1    1    2    0    0 -0.23869384948E+02  0.60769381869E+02 -0.68811782357E+01  0.65650711531E+02  0.00000000000E+00 0. -1.
</event>
<event>
 6    1  0.6597032E-006  0.1026826E+03  0.7561462E-02  0.1274754E+00
          1   -1    0    0  501    0  0.00000000000E+00  0.00000000000E+00  0.67156347332E+02  0.67156347332E+02  0.00000000000E+00 0. -1.
         -1   -1    0    0    0  501 -0.00000000000E+00 -0.00000000000E+00 -0.21996785736E+03  0.21996785736E+03  0.00000000000E+00 0.  1.
          5    1    1    2  502    0  0.29809203320E+02  0.12607321037E+02  0.95486304569E+01  0.34002674746E+02  0.41800000000E+01 0. -1.
         -5    1    1    2    0  502 -0.37726331321E+02 -0.67699549553E+02 -0.12074566740E+03  0.14353917124E+03  0.41800000000E+01 0.  1.
        -11    1    1    2    0    0 -0.30021148185E+02  0.23038181325E+01 -0.31878959418E+02  0.43850256213E+02  0.00000000000E+00 0.  1.
         11    1    1    2    0    0  0.37938276187E+02  0.52788410384E+02 -0.97355136592E+01  0.65732102485E+02  0.00000000000E+00 0. -1.
</event>
<event>
 6    1  0.6597032E-006  0.1284353E+03  0.7561462E-02  0.1229796E+00
          4   -1    0    0  501    0  0.00000000000E+00  0.00000000000E+00  0.22429770519E+03  0.22429770519E+03  0.00000000000E+00 0. -1.
         -4   -1    0    0    0  501 -0.00000000000E+00 -0.00000000000E+00 -0.12613624578E+03  0.12613624578E+03  0.00000000000E+00 0.  1.
          5    1    1    2  502    0  0.44403596085E+02 -0.80124786381E+02  0.76407542298E+02  0.11936182664E+03  0.41800000000E+01 0.  1.
         -5    1    1    2    0  502  0.28076346002E+02 -0.21004070583E+02 -0.47736170108E+02  0.59377323302E+02  0.41800000000E+01 0.  1.
        -11    1    1    2    0    0 -0.69304006723E+02  0.69778615031E+02  0.90639451642E+02  0.13374457244E+03  0.00000000000E+00 0. -1.
         11    1    1    2    0    0 -0.31759353645E+01  0.31350241933E+02 -0.21149364422E+02  0.37950228591E+02  0.00000000000E+00 0.  1.
</event>
<event>
 6    1  0.6597032E-006  0.1772637E+03  0.7561462E-02  0.1170478E+00
         -1   -1    0    0    0  501 -0.00000000000E+00  0.00000000000E+00  0.46777827663E+02  0.46777827663E+02  0.00000000000E+00 0.  1.
          1   -1    0    0  501    0  0.00000000000E+00 -0.00000000000E+00 -0.81705572738E+03  0.81705572738E+03  0.00000000000E+00 0. -1.
          5    1    1    2  502    0 -0.67186790657E+01  0.54657155047E+02 -0.16522023587E+03  0.17420603889E+03  0.41800000000E+01 0. -1.
         -5    1    1    2    0  502 -0.69662840985E+02 -0.12515070299E+03 -0.14710610637E+03  0.20536136151E+03  0.41800000000E+01 0.  1.
        -11    1    1    2    0    0 -0.26386744733E+01 -0.28905163746E+02 -0.11355456182E+03  0.11720541627E+03  0.00000000000E+00 0.  1.
         11    1    1    2    0    0  0.79020194524E+02  0.99398711684E+02 -0.34439699566E+03  0.36706073836E+03  0.00000000000E+00 0. -1.
</event>
<event>
 6    1  0.6597032E-006  0.1222336E+03  0.7561462E-02  0.1239457E+00
          2   -1    0    0  501    0  0.00000000000E+00  0.00000000000E+00  0.53291257983E+03  0.53291257983E+03  0.00000000000E+00 0. -1.
         -2   -1    0    0    0  501 -0.00000000000E+00 -0.00000000000E+00 -0.45629669074E+02  0.45629669074E+02  0.00000000000E+00 0.  1.
          5    1    1    2  502    0 -0.43603578340E+01 -0.38455297542E+01  0.15335614279E+03  0.15352322219E+03  0.41800000000E+01 0. -1.
         -5    1    1    2    0  502 -0.84136448244E+02  0.64234097558E+02  0.83107620272E+02  0.13464512676E+03  0.41800000000E+01 0. -1.
        -11    1    1    2    0    0  0.64621874004E+02  0.19139480250E+01  0.59908346378E+02  0.88140000922E+02  0.00000000000E+00 0.  1.
         11    1    1    2    0    0  0.23874932074E+02 -0.62302515829E+02  0.19091080132E+03  0.20223389904E+03  0.00000000000E+00 0. -1.
</event>
<event>
 6    1  0.6597032E-006  0.8416960E+02  0.7561462E-02  0.1317619E+00
         -3   -1    0    0    0  501 -0.00000000000E+00  0.00000000000E+00  0.47506804140E+02  0.47506804140E+02  0.00000000000E+00 0.  1.
          3   -1    0    0  501    0  0.00000000000E+00 -0.00000000000E+00 -0.36551090327E+03  0.36551090327E+03  0.00000000000E+00 0. -1.
          5    1    1    2  502    0  0.34914671407E+02  0.72359748084E+01 -0.12197026984E+03  0.12714406292E+03  0.41800000000E+01 0.  1.
         -5    1    1    2    0  502 -0.33577980122E+01  0.44571273831E+02  0.16012056351E+02  0.47662685688E+02  0.41800000000E+01 0.  1.
        -11    1    1    2    0    0  0.14163264038E+02 -0.36790728872E+02 -0.16934892115E+03  0.17387700501E+03  0.00000000000E+00 0. -1.
         11    1    1    2    0    0 -0.45720137433E+02 -0.15016519767E+02 -0.42696964491E+02  0.64333953784E+02  0.00000000000E+00 0.  1.
</event>
<event>
 6    1  0.6597032E-006  0.9841184E+02  0.7561462E-02  0.1283672E+00
          4   -1    0    0  501    0  0.00000000000E+00  0.00000000000E+00  0.13459952131E+03  0.13459952131E+03  0.00000000000E+00 0. -1.
         -4   -1    0    0    0  501 -0.00000000000E+00 -0.00000000000E+00 -0.15034450106E+03  0.15034450106E+03  0.00000000000E+00 0.  1.
          5    1    1    2  502    0  0.96835465035E+01  0.55910214260E+02 -0.83984125837E+02  0.10144224428E+03  0.41800000000E+01 0. -1.
         -5    1    1    2    0  502 -0.45673194187E+02  0.14405567303E+02  0.29283159922E+02  0.56289758319E+02  0.41800000000E+01 0. -1.
        -11    1    1    2    0    0  0.45806787444E+02 -0.42997868853E+02  0.63404891644E+02  0.89259502499E+02  0.00000000000E+00 0.  1.
         11    1    1    2    0    0 -0.98171397607E+01 -0.27317912711E+02 -0.24448905485E+02  0.37952517273E+02  0.00000000000E+00 0. -1.
</event>
<event>
 6    1  0.6597032E-006  0.1099517E+03  0.7561462E-02  0.1260659E+00
         -1   -1    0    0    0  501 -0.00000000000E+00  0.00000000000E+00  0.12567888184E+03  0.12567888184E+03  0.00000000000E+00 0.  1.
          1   -1    0    0  501    0  0.00000000000E+00 -0.00000000000E+00 -0.11248317320E+03  0.11248317320E+03  0.00000000000E+00 0. -1.
          5    1    1    2  502    0  0.39707023328E+02 -0.45812968823E+02 -0.10974940293E+02  0.61752712721E+02  0.41800000000E+01 0.  1.
         -5    1    1    2    0  502 -0.71096419304E+02  0.89183500143E+01  0.93029999988E+01  0.72375797155E+02  0.41800000000E+01 0.  1.
        -11    1    1    2    0    0 -0.15105537395E+02  0.37955963442E+02 -0.20404547285E+02  0.45663748978E+02  0.00000000000E+00 0. -1.
         11    1    1    2    0    0  0.46494933372E+02 -0.10613446336E+01  0.35272196220E+02  0.58369796195E+02  0.00000000000E+00 0.  1.
</event>
<event>
 6    1  0.6597032E-006  0.9705338E+02  0.7561462E-02  0.1286617E+00
          1   -1    0    0  501    0  0.00000000000E+00  0.00000000000E+00  0.10112072718E+03  0.10112072718E+03  0.00000000000E+00 0. -1.
         -1   -1    0    0    0  501 -0.00000000000E+00 -0.00000000000E+00 -0.14876997245E+03  0.14876997245E+03  0.00000000000E+00 0.  1.
          5    1    1    2  502    0  0.34900531054E+02 -0.38044029197E+02  0.26676957483E+02  0.58262575346E+02  0.41800000000E+01 0. -1.
         -5    1    1    2    0  502 -0.47207641498E+02 -0.65443794902E+01 -0.76028345014E+02  0.89828569867E+02  0.41800000000E+01 0.  1.
        -11    1    1    2    0    0  0.42731828193E+02  0.28619007520E+01  0.19661420388E+02  0.47125057754E+02  0.00000000000E+00 0. -1.
         11    1    1    2    0    0 -0.30424717749E+02  0.41726507935E+02 -0.17959278126E+02  0.54674496663E+02  0.00000000000E+00 0.  1.
</event>
<event>
 6    1  0.6597032E-006  0.1579016E+03  0.7561462E-02  0.1191086E+00
         -1   -1    0    0    0  501 -0.00000000000E+00  0.00000000000E+00  0.16354227706E+04  0.16354227706E+04  0.00000000000E+00 0.  1.
          1   -1    0    0  501    0  0.00000000000E+00 -0.00000000000E+00 -0.46447740122E+02  0.46447740122E+02  0.00000000000E+00 0. -1.
          5    1    1    2  502    0 -0.18084451147E+01  0.75549092244E+02  0.27124811357E+03  0.28160956540E+03  0.41800000000E+01 0. -1.
         -5    1    1    2    0  502  0.92953685328E+02  0.21174595238E+02  0.11929783925E+04  0.11967888989E+04  0.41800000000E+01 0.  1.
        -11    1    1    2    0    0 -0.14694384206E+02  0.66409433980E+01  0.54772959835E+02  0.57097322052E+02  0.00000000000E+00 0. -1.
         11    1    1    2    0    0 -0.76450856007E+02 -0.10336463088E+03  0.69975564562E+02  0.14637472438E+03  0.00000000000E+00 0.  1.
</event>
<event>
 6    1  0.6597032E-006  0.1336592E+03  0.7561462E-02  0.1222125E+00
          2   -1    0    0  501    0  0.00000000000E+00  0.00000000000E+00  0.25088218275E+03  0.25088218275E+03  0.00000000000E+00 0. -1.
         -2   -1    0    0    0  501 -0.00000000000E+00 -0.00000000000E+00 -0.87490241013E+02  0.87490241013E+02  0.00000000000E+00 0.  1.
          5    1    1    2  502    0  0.10798602102E+03  0.60251577399E+02  0.31730858989E+02  0.12773234957E+03  0.41800000000E+01 0. -1.
         -5    1    1    2    0  502 -0.27531786094E+02 -0.48961624560E+01  0.33524736498E+02  0.43856037322E+02  0.41800000000E+01 0. -1.
        -11    1    1    2    0    0 -0.24542526546E+02 -0.54081146852E+02  0.69244798275E+01  0.59791759257E+02  0.00000000000E+00 0.  1.
         11    1    1    2    0    0 -0.55911708378E+02 -0.12742680907E+01  0.91211866426E+02  0.10699227762E+03  0.00000000000E+00 0. -1.
</event>
<event>
 6    1  0.6597032E-006  0.1189444E+03  0.7561462E-02  0.1244849E+00
          2   -1    0    0  501    0  0.00000000000E+00  0.00000000000E+00  0.18295285350E+03  0.18295285350E+03  0.00000000000E+00 0. -1.
         -2   -1    0    0    0  501 -0.00000000000E+00 -0.00000000000E+00 -0.94937535821E+02  0.94937535821E+02  0.00000000000E+00 0.  1.
          5    1    1    2  502    0  0.82638921363E+02  0.43856517789E+02 -0.56031142605E+01  0.93816058145E+02  0.41800000000E+01 0. -1.
         -5    1    1    2    0  502 -0.25939475412E+02  0.48136213319E+01  0.53097920645E+02  0.59438109928E+02  0.41800000000E+01 0. -1.
        -11    1    1    2    0    0 -0.61110198448E+02  0.71567824180E+01  0.25909860480E+02  0.66760742649E+02  0.00000000000E+00 0. -1.
         11    1    1    2    0    0  0.44107524972E+01 -0.55826921539E+02  0.14610650818E+02  0.57875478602E+02  0.00000000000E+00 0.  1.
</event>
<event>
 6    1  0.6597032E-006  0.8339853E+02  0.7561462E-02  0.1319674E+00
          2   -1    0    0  501    0  0.00000000000E+00  0.00000000000E+00  0.37655436414E+02  0.37655436414E+02  0.00000000000E+00 0. -1.
         -2   -1    0    0    0  501 -0.00000000000E+00 -0.00000000000E+00 -0.38279198787E+03  0.38279198787E+03  0.00000000000E+00 0.  1.
          5    1    1    2  502    0 -0.49243957372E+01 -0.48883620510E+02 -0.18038461566E+02  0.52504442890E+02  0.41800000000E+01 0. -1.
         -5    1    1    2    0  502 -0.42747387196E+02  0.28773085776E+02 -0.18076624946E+03  0.18801366685E+03  0.41800000000E+01 0. -1.
        -11    1    1    2    0    0  0.29187477382E+02  0.32388715008E+02 -0.15107234034E+03  0.15723800339E+03  0.00000000000E+00 0.  1.
         11    1    1    2    0    0  0.18484305551E+02 -0.12278180275E+02  0.47404999077E+01  0.22691311155E+02  0.00000000000E+00 0. -1.
</event>
<event>
 6    1  0.6597032E-006  0.7713389E+02  0.7561462E-02  0.1337388E+00
         -1   -1    0    0    0  501 -0.00000000000E+00  0.00000000000E+00  0.28354992977E+02  0.28354992977E+02  0.00000000000E+00 0.  1.
          1   -1    0    0  501    0  0.00000000000E+00 -0.00000000000E+00 -0.48437968120E+03  0.48437968120E+03  0.00000000000E+00 0. -1.
          5    1    1    2  502    0  0.40284999223E+01  0.39932588469E+02 -0.25438976529E+03  0.25757031179E+03  0.41800000000E+01 0.  1.
         -5    1    1    2    0  502 -0.34568937486E+02 -0.48736806534E+01 -0.69083199020E+01  0.35832408319E+02  0.41800000000E+01 0.  1.
        -11    1    1    2    0    0 -0.18442736751E+02  0.12908264934E+00 -0.34384028319E+01  0.18760965200E+02  0.00000000000E+00 0.  1.
         11    1    1    2    0    0  0.48983174315E+02 -0.35187990465E+02 -0.19128820020E+03  0.20057098887E+03  0.00000000000E+00 0. -1.
</event>
<event>
 6    1  0.6597032E-006  0.1350282E+03  0.7561462E-02  0.1220180E+00
         -1   -1    0    0    0  501 -0.00000000000E+00  0.00000000000E+00  0.58880233291E+02  0.58880233291E+02  0.00000000000E+00 0. -1.
          1   -1    0    0  501    0  0.00000000000E+00 -0.00000000000E+00 -0.39576613473E+03  0.39576613473E+03  0.00000000000E+00 0.  1.
          5    1    1    2  502    0  0.12920199931E+03  0.97469847437E+01 -0.12952246116E+03  0.18325310552E+03  0.41800000000E+01 0. -1.
         -5    1    1    2    0  502 -0.23993477084E+02 -0.24047842170E+02 -0.28363702185E+02  0.44451745266E+02  0.41800000000E+01 0. -1.
        -11    1    1    2    0    0 -0.58318943290E+02  0.69650128278E+01 -0.16835017270E+03  0.17830140548E+03  0.00000000000E+00 0.  1.
         11    1    1    2    0    0 -0.46889578934E+02  0.73358445981E+01 -0.10649565402E+02  0.48640111758E+02  0.00000000000E+00 0. -1.
</event>
<event>
 6    1  0.6597032E-006  0.1126516E+03  0.7561462E-02  0.1255737E+00
          1   -1    0    0  501    0  0.00000000000E+00  0.00000000000E+00  0.17809755374E+03  0.17809755374E+03  0.00000000000E+00 0. -1.
         -1   -1    0    0    0  501 -0.00000000000E+00 -0.00000000000E+00 -0.11273940037E+03  0.11273940037E+03  0.00000000000E+00 0.  1.
          5    1    1    2  502    0 -0.62923707173E+02 -0.45031922976E+02 -0.37216684587E+02  0.85964068209E+02  0.41800000000E+01 0.  1.
         -5    1    1    2    0  502  0.49742593000E+02  0.13299569419E+02 -0.14205903351E+02  0.53576899827E+02  0.41800000000E+01 0.  1.
        -11    1    1    2    0    0  0.31921297793E+02 -0.22316144037E+02  0.45238287491E+02  0.59694909269E+02  0.00000000000E+00 0.  1.
         11    1    1    2    0    0 -0.18740183620E+02  0.54048497594E+02  0.71542453812E+02  0.91601076804E+02  0.00000000000E+00 0. -1.
</event>
<event>
 6    1  0.6597032E-006  0.8998416E+02  0.7561462E-02  0.1302890E+00
         -3   -1    0    0    0  501 -0.00000000000E+00  0.00000000000E+00  0.44403836987E+03  0.44403836987E+03  0.00000000000E+00 0.  1.
          3   -1    0    0  501    0  0.00000000000E+00 -0.00000000000E+00 -0.28780053380E+02  0.28780053380E+02  0.00000000000E+00 0. -1.
          5    1    1    2  502    0 -0.56851745020E+02 -0.26624086618E+02  0.17409616299E+03  0.18511593467E+03  0.41800000000E+01 0.  1.
         -5    1    1    2    0  502  0.46510422518E+02  0.40100881624E+02  0.11789984605E+03  0.13300054966E+03  0.41800000000E+01 0.  1.
        -11    1    1    2    0    0  0.16104003885E+02 -0.32149600333E+02  0.67790774088E+01  0.36590868167E+02  0.00000000000E+00 0. -1.
         11    1    1    2    0    0 -0.57626813834E+01  0.18672805327E+02  0.11648323003E+03  0.11811107075E+03  0.00000000000E+00 0.  1.
</event>
<event>
 6    1  0.6597032E-006  0.1634805E+03  0.7561462E-02  0.1184822E+00
         -1   -1    0    0    0  501 -0.00000000000E+00  0.00000000000E+00  0.82901689918E+02  0.82901689918E+02  0.00000000000E+00 0.  1.
          1   -1    0    0  501    0  0.00000000000E+00 -0.00000000000E+00 -0.42667678150E+03  0.42667678150E+03  0.00000000000E+00 0. -1.
          5    1    1    2  502    0  0.47722139576E+02 -0.10223114166E+03 -0.15880593674E+03  0.19484713720E+03  0.41800000000E+01 0. -1.
         -5    1    1    2    0  502  0.51151412736E+01 -0.38029525151E+02  0.21163155229E+02  0.44020006732E+02  0.41800000000E+01 0. -1.
        -11    1    1    2    0    0  0.21599555244E+02  0.69429950688E+02 -0.83463859525E+02  0.11069451064E+03  0.00000000000E+00 0.  1.
         11    1    1    2    0    0 -0.74436836094E+02  0.70830716122E+02 -0.12266845055E+03  0.16001681685E+03  0.00000000000E+00 0. -1.
</event>
<event>
 6    1  0.6597032E-006  0.1861027E+03  0.7561462E-02  0.1162024E+00
          1   -1    0    0  501    0  0.00000000000E+00  0.00000000000E+00  0.26410746619E+03  0.26410746619E+03  0.00000000000E+00 0. -1.
         -1   -1    0    0    0  501 -0.00000000000E+00 -0.00000000000E+00 -0.14574565488E+03  0.14574565488E+03  0.00000000000E+00 0.  1.
          5    1    1    2  502    0  0.27333161953E+02 -0.43791888955E+02  0.38323508697E+02  0.64428215864E+02  0.41800000000E+01 0. -1.
         -5    1    1    2    0  502  0.13323841908E+03  0.48019142594E+02 -0.54697521893E+01  0.14179458722E+03  0.41800000000E+01 0. -1.
        -11    1    1    2    0    0 -0.37640824407E+02  0.33234683967E+02  0.17713870682E+01  0.50244538933E+02  0.00000000000E+00 0.  1.
         11    1    1    2    0    0 -0.12293075663E+03 -0.37461937607E+02  0.83736667731E+02  0.15338577906E+03  0.00000000000E+00 0. -1.
</event>
<event>
 6    1  0.6597032E-006  0.1839340E+03  0.7561462E-02  0.1164049E+00
         -3   -1    0    0    0  501 -0.00000000000E+00  0.00000000000E+00  0.16554048545E+03  0.16554048545E+03  0.00000000000E+00 0.  1.
          3   -1    0    0  501    0  0.00000000000E+00 -0.00000000000E+00 -0.42927211443E+03  0.42927211443E+03  0.00000000000E+00 0. -1.
          5    1    1    2  502    0 -0.16231666092E+02 -0.46720358420E+02 -0.48755598738E+01  0.49874867009E+02  0.41800000000E+01 0. -1.
         -5    1    1    2    0  502 -0.14487145133E+03  0.28541795941E+02  0.71055789670E+02  0.16391695816E+03  0.41800000000E+01 0.  1.
        -11    1    1    2    0    0  0.62949759933E+02 -0.18692516223E+02 -0.51289054504E+02  0.83322563272E+02  0.00000000000E+00 0.  1.
         11    1    1    2    0    0  0.98153357489E+02  0.36871078702E+02 -0.27862280427E+03  0.29769821143E+03  0.00000000000E+00 0. -1.
</event>
<event>
 6    1  0.6597032E-006  0.1774528E+03  0.7561462E-02  0.1170291E+00
         -1   -1    0    0    0  501 -0.00000000000E+00  0.00000000000E+00  0.22945445916E+03  0.22945445916E+03  0.00000000000E+00 0.  1.
          1   -1    0    0  501    0  0.00000000000E+00 -0.00000000000E+00 -0.21553589606E+03  0.21553589606E+03  0.00000000000E+00 0. -1.
          5    1    1    2  502    0 -0.29048273386E+02 -0.41577123150E+02  0.26189032744E+02  0.57234580388E+02  0.41800000000E+01 0. -1.
         -5    1    1    2    0  502  0.12352424406E+03 -0.80892372218E+02  0.98332541154E+02  0.17745020655E+03  0.41800000000E+01 0. -1.
        -11    1    1    2    0    0 -0.17372970298E+02  0.38860610025E+02 -0.82986795380E+02  0.93267225304E+02  0.00000000000E+00 0. -1.
         11    1    1    2    0    0 -0.77103000375E+02  0.83608885343E+02 -0.27616215416E+02  0.11703834299E+03  0.00000000000E+00 0.  1.
</event>
<event>
 6    1  0.6597032E-006  0.1387232E+03  0.7561462E-02  0.1215057E+00
          1   -1    0    0  501    0  0.00000000000E+00  0.00000000000E+00  0.74216566690E+03  0.74216566690E+03  0.00000000000E+00 0. -1.
         -1   -1    0    0    0  501 -0.00000000000E+00 -0.00000000000E+00 -0.48269042965E+02  0.48269042965E+02  0.00000000000E+00 0.  1.
          5    1    1    2  502    0 -0.82908117862E+02  0.18643022155E+02  0.54543630379E+02  0.10106333805E+03  0.41800000000E+01 0. -1.
         -5    1    1    2    0  502 -0.57274279109E+01 -0.82690912337E+02  0.92010968728E+02  0.12391158614E+03  0.41800000000E+01 0.  1.
        -11    1    1    2    0    0  0.73676244317E+02  0.52348706189E+02  0.53551273639E+03  0.54308605842E+03  0.00000000000E+00 0.  1.
         11    1    1    2    0    0  0.14959301457E+02  0.11699183992E+02  0.11829288432E+02  0.22373727248E+02  0.00000000000E+00 0. -1.
</event>
<event>
 6    1  0.1538551E-005  0.2890828E+03  0.7561462E-02  0.1090829E+00
         -1   -1    0    0    0  501 -0.00000000000E+00  0.00000000000E+00  0.10281391034E+03  0.10281391034E+03  0.00000000000E+00 0.  1.
          1   -1    0    0  501    0  0.00000000000E+00 -0.00000000000E+00 -0.90578586082E+03  0.90578586082E+03  0.00000000000E+00 0. -1.
          5    1    1    2  502    0 -0.95272659638E+02  0.22204323418E+03 -0.20829037020E+03  0.31903358481E+03  0.41800000000E+01 0.  1.
         -5    1    1    2    0  502 -0.17932202751E+02  0.36987736346E+02 -0.14325413139E+03  0.14909351124E+03  0.41800000000E+01 0.  1.
        -11    1    1    2    0    0 -0.27887930373E+01 -0.90835228531E+02 -0.16907791317E+03  0.19195352779E+03  0.00000000000E+00 0.  1.
         11    1    1    2    0    0  0.11599365543E+03 -0.16819574199E+03 -0.28234953572E+03  0.34851914732E+03  0.00000000000E+00 0. -1.
</event>
<event>
 6    1  0.6597032E-006  0.1092213E+03  0.7561462E-02  0.1262019E+00
         -2   -1    0    0    0  501 -0.00000000000E+00  0.00000000000E+00  0.13727079164E+02  0.13727079164E+02  0.00000000000E+00 0.  1.
          2   -1    0    0  501    0  0.00000000000E+00 -0.00000000000E+00 -0.10383507036E+04  0.10383507036E+04  0.00000000000E+00 0. -1.
          5    1    1    2  502    0 -0.65699552607E+02  0.10058392056E+02 -0.40700073113E+03  0.41241322724E+03  0.41800000000E+01 0. -1.
         -5    1    1    2    0  502  0.31429690087E+02 -0.45799990677E+02 -0.13512436844E+03  0.14615584802E+03  0.41800000000E+01 0. -1.
        -11    1    1    2    0    0  0.28169669806E+02  0.62575480237E+02 -0.41467956717E+03  0.42031936008E+03  0.00000000000E+00 0. -1.
         11    1    1    2    0    0  0.61001927141E+01 -0.26833881615E+02 -0.67818957697E+02  0.73189347428E+02  0.00000000000E+00 0.  1.
</event>
<event>
 6    1  0.6597032E-006  0.1797781E+03  0.7561462E-02  0.1168018E+00
          1   -1    0    0  501    0  0.00000000000E+00  0.00000000000E+00  0.17481022303E+03  0.17481022303E+03  0.00000000000E+00 0. -1.
         -1   -1    0    0    0  501 -0.00000000000E+00 -0.00000000000E+00 -0.29479530136E+03  0.29479530136E+03  0.00000000000E+00 0.  1.
          5    1    1    2  502    0  0.22846346586E+02 -0.16295100383E+02 -0.84191021256E+02  0.88843043110E+02  0.41800000000E+01 0.  1.
         -5    1    1    2    0  502 -0.70518828828E+02 -0.14204805473E+03 -0.92945098652E+02  0.18386630696E+03  0.41800000000E+01 0.  1.
        -11    1    1    2    0    0  0.30453148993E+02  0.28988494617E+02  0.51219300289E+02  0.66265706258E+02  0.00000000000E+00 0. -1.
         11    1    1    2    0    0  0.17219333249E+02  0.12935466050E+03  0.59317412907E+01  0.13063046806E+03  0.00000000000E+00 0.  1.
</event>
<event>
 6    1  0.6597032E-006  0.1117345E+03  0.7561462E-02  0.1257391E+00
          1   -1    0    0  501    0  0.00000000000E+00  0.00000000000E+00  0.20846874150E+02  0.20846874150E+02  0.00000000000E+00 0. -1.
         -1   -1    0    0    0  501 -0.00000000000E+00 -0.00000000000E+00 -0.70440526303E+03  0.70440526303E+03  0.00000000000E+00 0.  1.
          5    1    1    2  502    0  0.19216788242E+02 -0.33204092808E+02 -0.18365521810E+03  0.18766594860E+03  0.41800000000E+01 0.  1.
         -5    1    1    2    0  502  0.17946303073E+02  0.87117865691E+02 -0.14689545183E+03  0.17177700220E+03  0.41800000000E+01 0.  1.
        -11    1    1    2    0    0  0.20847443112E+02 -0.10282250979E+02 -0.92744335457E+02  0.95613034304E+02  0.00000000000E+00 0.  1.
         11    1    1    2    0    0 -0.58010534427E+02 -0.43631521904E+02 -0.26026338349E+03  0.27019615207E+03  0.00000000000E+00 0. -1.
</event>
<event>
 6    1  0.6597032E-006  0.5467997E+02  0.7561462E-02  0.1421618E+00
         -2   -1    0    0    0  501 -0.00000000000E+00  0.00000000000E+00  0.87431486293E+02  0.87431486293E+02  0.00000000000E+00 0.  1.
          2   -1    0    0  501    0  0.00000000000E+00 -0.00000000000E+00 -0.14263203329E+03  0.14263203329E+03  0.00000000000E+00 0. -1.
          5    1    1    2  502    0 -0.34419500694E+02 -0.11285500580E+02  0.46042512824E+02  0.58732018001E+02  0.41800000000E+01 0. -1.
         -5    1    1    2    0  502  0.35656147359E+02 -0.24787559693E+01 -0.57252034288E+02  0.67622281134E+02  0.41800000000E+01 0. -1.
        -11    1    1    2    0    0 -0.12617665951E+02  0.20214743235E+02  0.24383820889E+02  0.34094164592E+02  0.00000000000E+00 0.  1.
         11    1    1    2    0    0  0.11381019286E+02 -0.64504866857E+01 -0.68374846422E+02  0.69615055855E+02  0.00000000000E+00 0. -1.
</event>
<event>
 6    1  0.6597032E-006  0.1052444E+03  0.7561462E-02  0.1269639E+00
          2   -1    0    0  501    0  0.00000000000E+00  0.00000000000E+00  0.83140685353E+03  0.83140685353E+03  0.00000000000E+00 0. -1.
         -2   -1    0    0    0  501 -0.00000000000E+00 -0.00000000000E+00 -0.16918076325E+02  0.16918076325E+02  0.00000000000E+00 0.  1.
          5    1    1    2  502    0  0.33863069953E+02 -0.28868389928E+02  0.55626399118E+02  0.71357270986E+02  0.41800000000E+01 0.  1.
         -5    1    1    2    0  502 -0.98499190013E+01  0.62730855898E+02  0.33257765595E+03  0.33861120895E+03  0.41800000000E+01 0.  1.
        -11    1    1    2    0    0 -0.31998852932E+02  0.26329283784E+02  0.17033958713E+03  0.17530753754E+03  0.00000000000E+00 0.  1.
         11    1    1    2    0    0  0.79857019804E+01 -0.60191749754E+02  0.25594513500E+03  0.26304891238E+03  0.00000000000E+00 0. -1.
</event>
<event>
 6    1  0.6597032E-006  0.1060455E+03  0.7561462E-02  0.1268073E+00
         -1   -1    0    0    0  501 -0.00000000000E+00  0.00000000000E+00  0.16749890340E+03  0.16749890340E+03  0.00000000000E+00 0.  1.
          1   -1    0    0  501    0  0.00000000000E+00 -0.00000000000E+00 -0.14692544300E+03  0.14692544300E+03  0.00000000000E+00 0. -1.
          5    1    1    2  502    0 -0.38416837775E+02  0.71347984891E+02  0.94691060268E+02  0.12470067228E+03  0.41800000000E+01 0.  1.
         -5    1    1    2    0  502 -0.33111596655E+02 -0.35819053322E+02 -0.41942359332E+01  0.49137016892E+02  0.41800000000E+01 0.  1.
        -11    1    1    2    0    0  0.36610602379E+02 -0.78696600168E+01  0.18357041798E+02  0.41704301204E+02  0.00000000000E+00 0.  1.
         11    1    1    2    0    0  0.34917832051E+02 -0.27659271551E+02 -0.88280405727E+02  0.98882356026E+02  0.00000000000E+00 0. -1.
</event>
<event>
 6    1  0.6597032E-006  0.1235335E+03  0.7561462E-02  0.1237379E+00
         -2   -1    0    0    0  501 -0.00000000000E+00  0.00000000000E+00  0.43580978137E+03  0.43580978137E+03  0.00000000000E+00 0.  1.
          2   -1    0    0  501    0  0.00000000000E+00 -0.00000000000E+00 -0.43782800960E+02  0.43782800960E+02  0.00000000000E+00 0. -1.
          5    1    1    2  502    0  0.21036731288E+02 -0.26260220114E+02  0.15447318296E+03  0.15815049755E+03  0.41800000000E+01 0.  1.
         -5    1    1    2    0  502 -0.93780561387E+02  0.19452392139E+02  0.13535603463E+03  0.16586716904E+03  0.41800000000E+01 0.  1.
        -11    1    1    2    0    0  0.90724612789E+02 -0.11715629420E+02  0.79032719887E+02  0.12088995885E+03  0.00000000000E+00 0. -1.
         11    1    1    2    0    0 -0.17980782690E+02  0.18523457395E+02  0.23165042937E+02  0.34684956887E+02  0.00000000000E+00 0.  1.
</event>
<event>
 6    1  0.6597032E-006  0.1344821E+03  0.7561462E-02  0.1220953E+00
         -2   -1    0    0    0  501 -0.00000000000E+00  0.00000000000E+00  0.19692555498E+03  0.19692555498E+03  0.00000000000E+00 0.  1.
          2   -1    0    0  501    0  0.00000000000E+00 -0.00000000000E+00 -0.97733505828E+02  0.97733505828E+02  0.00000000000E+00 0. -1.
          5    1    1    2  502    0  0.53401965447E+02  0.39847706111E+01  0.23902001827E+02  0.58791380335E+02  0.41800000000E+01 0.  1.
         -5    1    1    2    0  502 -0.55162884207E+02  0.76113476567E+02  0.64277555169E+02  0.11395297981E+03  0.41800000000E+01 0.  1.
        -11    1    1    2    0    0  0.45964151824E+02 -0.33131560472E+02  0.91258792572E+01  0.57390637080E+02  0.00000000000E+00 0. -1.
         11    1    1    2    0    0 -0.44203233063E+02 -0.46966686706E+02  0.18866129028E+01  0.64524063586E+02  0.00000000000E+00 0.  1.
</event>
<event>
 6    1  0.6597032E-006  0.1637627E+03  0.7561462E-02  0.1184513E+00
          2   -1    0    0  501    0  0.00000000000E+00  0.00000000000E+00  0.68181599725E+03  0.68181599725E+03  0.00000000000E+00 0. -1.
         -2   -1    0    0    0  501 -0.00000000000E+00 -0.00000000000E+00 -0.47839139547E+02  0.47839139547E+02  0.00000000000E+00 0.  1.
          5    1    1    2  502    0 -0.28406980082E+01  0.77809329530E+02  0.13417148992E+03  0.15518318993E+03  0.41800000000E+01 0.  1.
         -5    1    1    2    0  502  0.10765551578E+03  0.15881082008E+02  0.14034662193E+03  0.17764167735E+03  0.41800000000E+01 0.  1.
        -11    1    1    2    0    0 -0.56142398826E+02 -0.53071250550E+02  0.30044496099E+03  0.31021879563E+03  0.00000000000E+00 0. -1.
         11    1    1    2    0    0 -0.48672418950E+02 -0.40619160989E+02  0.59013784869E+02  0.86611473896E+02  0.00000000000E+00 0.  1.
</event>
<event>
 6    1  0.6597032E-006  0.1477748E+03  0.7561462E-02  0.1203234E+00
         -3   -1    0    0    0  501 -0.00000000000E+00  0.00000000000E+00  0.96667129583E+02  0.96667129583E+02  0.00000000000E+00 0.  1.
          3   -1    0    0  501    0  0.00000000000E+00 -0.00000000000E+00 -0.35886078641E+03  0.35886078641E+03  0.00000000000E+00 0. -1.
          5    1    1    2  502    0 -0.90344452400E+02  0.18763784594E+02  0.68533712053E+01  0.92620952211E+02  0.41800000000E+01 0. -1.
         -5    1    1    2    0  502  0.20473545848E+02  0.72120741965E+02 -0.19201953547E+02  0.77503257487E+02  0.41800000000E+01 0. -1.
        -11    1    1    2    0    0 -0.99951341245E+01 -0.14277489244E+02 -0.74758824865E+01  0.18964129936E+02  0.00000000000E+00 0.  1.
         11    1    1    2    0    0  0.79866040676E+02 -0.76607037315E+02 -0.24236919200E+03  0.26643957636E+03  0.00000000000E+00 0. -1.
</event>
<event>
 6    1  0.6597032E-006  0.1020427E+03  0.7561462E-02  0.1276058E+00
          1   -1    0    0  501    0  0.00000000000E+00  0.00000000000E+00  0.13471955272E+03  0.13471955272E+03  0.00000000000E+00 0. -1.
         -1   -1    0    0    0  501 -0.00000000000E+00 -0.00000000000E+00 -0.16142905100E+03  0.16142905100E+03  0.00000000000E+00 0.  1.
          5    1    1    2  502    0  0.45591230790E+02 -0.62193293812E+02 -0.11976749837E+02  0.78150374643E+02  0.41800000000E+01 0. -1.
         -5    1    1    2    0  502 -0.46339057025E+02 -0.12096258335E+02 -0.71618637335E+02  0.86257343371E+02  0.41800000000E+01 0.  1.
        -11    1    1    2    0    0  0.11028951776E+02  0.15045841954E+02 -0.24348712188E+02  0.30673684530E+02  0.00000000000E+00 0.  1.
         11    1    1    2    0    0 -0.10281125541E+02  0.59243710192E+02  0.81234601079E+02  0.10106720117E+03  0.00000000000E+00 0. -1.
</event>
<event>
 6    1  0.6597032E-006  0.1242866E+03  0.7561462E-02  0.1236188E+00
          2   -1    0    0  501    0  0.00000000000E+00  0.00000000000E+00  0.29772027697E+03  0.29772027697E+03  0.00000000000E+00 0. -1.
         -2   -1    0    0    0  501 -0.00000000000E+00 -0.00000000000E+00 -0.99238848306E+02  0.99238848306E+02  0.00000000000E+00 0.  1.
          5    1    1    2  502    0 -0.17814916726E+02  0.22850336110E+01  0.34755492942E+02  0.39344749665E+02  0.41800000000E+01 0.  1.
         -5    1    1    2    0  502  0.11291096786E+03  0.22828833883E+02 -0.32610301178E+02  0.11979543590E+03  0.41800000000E+01 0.  1.
        -11    1    1    2    0    0 -0.40517039906E+02 -0.41376313406E+02  0.37275117350E+02  0.68869907850E+02  0.00000000000E+00 0.  1.
         11    1    1    2    0    0 -0.54579011230E+02  0.16262445912E+02  0.15906111955E+03  0.16894903186E+03  0.00000000000E+00 0. -1.
</event>
<event>
 6    1  0.6597032E-006  0.9356098E+02  0.7561462E-02  0.1294450E+00
          2   -1    0    0  501    0  0.00000000000E+00  0.00000000000E+00  0.88957167848E+03  0.88957167848E+03  0.00000000000E+00 0. -1.
         -2   -1    0    0    0  501 -0.00000000000E+00 -0.00000000000E+00 -0.20036558178E+02  0.20036558178E+02  0.00000000000E+00 0.  1.
          5    1    1    2  502    0  0.87142501131E+01  0.81634217188E+02  0.11982588653E+03  0.14531276287E+03  0.41800000000E+01 0.  1.
         -5    1    1    2    0  502  0.94790882778E+00 -0.19316299146E+01  0.30022220657E+03  0.30025901392E+03  0.41800000000E+01 0.  1.
        -11    1    1    2    0    0  0.20664095676E+02 -0.61425644166E+02  0.38546680325E+03  0.39087692566E+03  0.00000000000E+00 0.  1.
         11    1    1    2    0    0 -0.30326254617E+02 -0.18276943108E+02  0.64020223957E+02  0.73159534197E+02  0.00000000000E+00 0. -1.
</event>
<event>
 6    1  0.6597032E-006  0.1312213E+03  0.7561462E-02  0.1225655E+00
          2   -1    0    0  501    0  0.00000000000E+00  0.00000000000E+00  0.13779073728E+04  0.13779073728E+04  0.00000000000E+00 0. -1.
         -2   -1    0    0    0  501 -0.00000000000E+00 -0.00000000000E+00 -0.14463354980E+02  0.14463354980E+02  0.00000000000E+00 0.  1.
          5    1    1    2  502    0  0.62649166990E+02 -0.78762378975E+02  0.34111055038E+03  0.35567163290E+03  0.41800000000E+01 0. -1.
         -5    1    1    2    0  502  0.14700007113E+02  0.31956023305E+02  0.38700658496E+03  0.38862430037E+03  0.41800000000E+01 0. -1.
        -11    1    1    2    0    0 -0.32517452178E+02  0.68992951011E+02  0.43228168922E+03  0.43895884866E+03  0.00000000000E+00 0.  1.
         11    1    1    2    0    0 -0.44831721925E+02 -0.22186595342E+02  0.20304519325E+03  0.20911594584E+03  0.00000000000E+00 0. -1.
</event>
<event>
 6    1  0.6597032E-006  0.2166756E+03  0.7561462E-02  0.1136386E+00
         -1   -1    0    0    0  501 -0.00000000000E+00  0.00000000000E+00  0.81392588999E+02  0.81392588999E+02  0.00000000000E+00 0.  1.
          1   -1    0    0  501    0  0.00000000000E+00 -0.00000000000E+00 -0.66113210067E+03  0.66113210067E+03  0.00000000000E+00 0. -1.
          5    1    1    2  502    0 -0.59784270360E+02 -0.59142777595E+02 -0.17613980888E+03  0.19522994595E+03  0.41800000000E+01 0. -1.
         -5    1    1    2    0  502  0.13448148510E+01 -0.13602165756E+03 -0.93432396381E+02  0.16507811770E+03  0.41800000000E+01 0. -1.
        -11    1    1    2    0    0  0.48968518933E+02  0.59476470310E+02 -0.60711748423E+02  0.98088137731E+02  0.00000000000E+00 0.  1.
         11    1    1    2    0    0  0.94709365763E+01  0.13568796484E+03 -0.24945555799E+03  0.28412848829E+03  0.00000000000E+00 0. -1.
</event>
<event>
 6    1  0.6597032E-006  0.1184727E+03  0.7561462E-02  0.1245638E+00
          2   -1    0    0  501    0  0.00000000000E+00  0.00000000000E+00  0.33382784075E+03  0.33382784075E+03  0.00000000000E+00 0. -1.
         -2   -1    0    0    0  501 -0.00000000000E+00 -0.00000000000E+00 -0.43733602317E+02  0.43733602317E+02  0.00000000000E+00 0.  1.
          5    1    1    2  502    0  0.32292361779E+02  0.67210840668E+02  0.88787072973E+02  0.11602030193E+03  0.41800000000E+01 0.  1.
         -5    1    1    2    0  502  0.14545278052E+02 -0.55941340244E+02  0.45161735898E+02  0.73471446503E+02  0.41800000000E+01 0.  1.
        -11    1    1    2    0    0 -0.74275463062E+02 -0.17194507597E+02  0.10548182418E+03  0.13014957063E+03  0.00000000000E+00 0.  1.
         11    1    1    2    0    0  0.27437823231E+02  0.59250071737E+01  0.50663605390E+02  0.57920124005E+02  0.00000000000E+00 0. -1.
</event>
<event>
 6    1  0.6597032E-006  0.1156295E+03  0.7561462E-02  0.1250486E+00
         -2   -1    0    0    0  501 -0.00000000000E+00  0.00000000000E+00  0.73201839956E+02  0.73201839956E+02  0.00000000000E+00 0.  1.
          2   -1    0    0  501    0  0.00000000000E+00 -0.00000000000E+00 -0.23445656132E+03  0.23445656132E+03  0.00000000000E+00 0. -1.
          5    1    1    2  502    0 -0.43246822307E+02 -0.14285452984E+02 -0.25775336402E+02  0.52499544505E+02  0.41800000000E+01 0. -1.
         -5    1    1    2    0  502  0.84593136961E+02 -0.20338716994E+02 -0.55665930034E+01  0.87281851421E+02  0.41800000000E+01 0. -1.
        -11    1    1    2    0    0  0.18033446789E+02  0.34623708281E+02 -0.84633666201E+02  0.93203346682E+02  0.00000000000E+00 0. -1.
         11    1    1    2    0    0 -0.59379761444E+02  0.46169649733E-03 -0.45279125757E+02  0.74673658666E+02  0.00000000000E+00 0.  1.
</event>
<event>
 6    1  0.6597032E-006  0.1061076E+03  0.7561462E-02  0.1267953E+00
         -2   -1    0    0    0  501 -0.00000000000E+00  0.00000000000E+00  0.13600973969E+04  0.13600973969E+04  0.00000000000E+00 0.  1.
          2   -1    0    0  501    0  0.00000000000E+00 -0.00000000000E+00 -0.22755083380E+02  0.22755083380E+02  0.00000000000E+00 0. -1.
          5    1    1    2  502    0  0.46098740508E+02  0.76308967508E+01  0.21589659984E+03  0.22093469325E+03  0.41800000000E+01 0. -1.
         -5    1    1    2    0  502 -0.73983608192E+02  0.30209625271E+02  0.99809606538E+03  0.10012988684E+04  0.41800000000E+01 0.  1.
        -11    1    1    2    0    0  0.10986870299E+02 -0.57967579316E+02  0.12052057561E+03  0.13418703631E+03  0.00000000000E+00 0. -1.
         11    1    1    2    0    0  0.16897997385E+02  0.20127057294E+02  0.28290727167E+01  0.26431882327E+02  0.00000000000E+00 0.  1.
</event>
<event>
 6    1  0.6597032E-006  0.8424081E+02  0.7561462E-02  0.1317430E+00
         -2   -1    0    0    0  501 -0.00000000000E+00  0.00000000000E+00  0.39391067002E+03  0.39391067002E+03  0.00000000000E+00 0.  1.
          2   -1    0    0  501    0  0.00000000000E+00 -0.00000000000E+00 -0.31073876015E+02  0.31073876015E+02  0.00000000000E+00 0. -1.
          5    1    1    2  502    0  0.12464862760E+02 -0.47272944552E+02  0.46928003381E+02  0.67895610989E+02  0.41800000000E+01 0. -1.
         -5    1    1    2    0  502 -0.23357603362E+02  0.39635106740E+02  0.25576164247E+03  0.25989999900E+03  0.41800000000E+01 0. -1.
        -11    1    1    2    0    0  0.10471684672E+02  0.39749138477E+02  0.47129681879E+02  0.62536845967E+02  0.00000000000E+00 0.  1.
         11    1    1    2    0    0  0.42105593049E+00 -0.32111300665E+02  0.13017466271E+02  0.34652090076E+02  0.00000000000E+00 0. -1.
</event>
<event>
 6    1  0.6597032E-006  0.1110179E+03  0.7561462E-02  0.1258696E+00
          2   -1    0    0  501    0  0.00000000000E+00  0.00000000000E+00  0.12797836838E+03  0.12797836838E+03  0.00000000000E+00 0.  1.
         -2   -1    0    0    0  501 -0.00000000000E+00 -0.00000000000E+00 -0.12916832253E+03  0.12916832253E+03  0.00000000000E+00 0. -1.
          5    1    1    2  502    0 -0.97755604116E+01 -0.46674606421E+02 -0.42113581959E+02  0.63758188896E+02  0.41800000000E+01 0.  1.
         -5    1    1    2    0  502  0.46652168110E+02  0.62356289968E+02 -0.14736292942E+02  0.79368522839E+02  0.41800000000E+01 0.  1.
        -11    1    1    2    0    0  0.11601323215E+02 -0.40207890210E+02  0.38974848546E+02  0.57186571453E+02  0.00000000000E+00 0.  1.
         11    1    1    2    0    0 -0.48477930914E+02  0.24526206663E+02  0.16685072197E+02  0.56833407721E+02  0.00000000000E+00 0. -1.
</event>
<event>
 6    1  0.6597032E-006  0.8947544E+02  0.7561462E-02  0.1304127E+00
         -1   -1    0    0    0  501 -0.00000000000E+00  0.00000000000E+00  0.53532861747E+03  0.53532861747E+03  0.00000000000E+00 0.  1.
          1   -1    0    0  501    0  0.00000000000E+00 -0.00000000000E+00 -0.29285654832E+02  0.29285654832E+02  0.00000000000E+00 0. -1.
          5    1    1    2  502    0  0.70336752580E+02  0.20389387409E+01  0.12141873290E+03  0.14039728321E+03  0.41800000000E+01 0. -1.
         -5    1    1    2    0  502 -0.36171936725E+02  0.22807660099E+02  0.25290846031E+03  0.25653218133E+03  0.41800000000E+01 0. -1.
        -11    1    1    2    0    0 -0.32332225536E+02 -0.39319727012E+02  0.14132636054E+03  0.15021502562E+03  0.00000000000E+00 0.  1.
         11    1    1    2    0    0 -0.18325903199E+01  0.14473128172E+02 -0.96105911044E+01  0.17469782132E+02  0.00000000000E+00 0. -1.
</event>
<event>
 6    1  0.6597032E-006  0.1331680E+03  0.7561462E-02  0.1222829E+00
         -1   -1    0    0    0  501 -0.00000000000E+00  0.00000000000E+00  0.83326332279E+03  0.83326332279E+03  0.00000000000E+00 0. -1.
          1   -1    0    0  501    0  0.00000000000E+00 -0.00000000000E+00 -0.26879556144E+02  0.26879556144E+02  0.00000000000E+00 0.  1.
          5    1    1    2  502    0 -0.23615457713E+02  0.70233421114E+02  0.37444098635E+03  0.38172496374E+03  0.41800000000E+01 0.  1.
         -5    1    1    2    0  502  0.71983829045E+02  0.29788597133E+01  0.19738666688E+03  0.21016544414E+03  0.41800000000E+01 0.  1.
        -11    1    1    2    0    0 -0.51337820327E+02 -0.48931540160E+01  0.15495500903E+03  0.16331126592E+03  0.00000000000E+00 0.  1.
         11    1    1    2    0    0  0.29694489953E+01 -0.68319126811E+02  0.79601104386E+02  0.10494120513E+03  0.00000000000E+00 0. -1.
</event>
<event>
 6    1  0.6597032E-006  0.1782789E+03  0.7561462E-02  0.1169479E+00
          2   -1    0    0  501    0  0.00000000000E+00  0.00000000000E+00  0.65582142087E+02  0.65582142087E+02  0.00000000000E+00 0. -1.
         -2   -1    0    0    0  501 -0.00000000000E+00 -0.00000000000E+00 -0.55836663952E+03  0.55836663952E+03  0.00000000000E+00 0.  1.
          5    1    1    2  502    0  0.28343674801E+02 -0.34049237957E+02 -0.39765139002E+02  0.59677912049E+02  0.41800000000E+01 0. -1.
         -5    1    1    2    0  502  0.10949625002E+03  0.10937446197E+03 -0.20597561072E+03  0.25767348779E+03  0.41800000000E+01 0. -1.
        -11    1    1    2    0    0 -0.51964493821E+02 -0.32316485525E+02 -0.17824036176E+03  0.18845235582E+03  0.00000000000E+00 0.  1.
         11    1    1    2    0    0 -0.85875431000E+02 -0.43008738492E+02 -0.68803385952E+02  0.11814502594E+03  0.00000000000E+00 0. -1.
</event>
<event>
 6    1  0.6597032E-006  0.2123493E+03  0.7561462E-02  0.1139719E+00
         -2   -1    0    0    0  501 -0.00000000000E+00  0.00000000000E+00  0.18451867371E+03  0.18451867371E+03  0.00000000000E+00 0.  1.
          2   -1    0    0  501    0  0.00000000000E+00 -0.00000000000E+00 -0.26625187846E+03  0.26625187846E+03  0.00000000000E+00 0. -1.
          5    1    1    2  502    0  0.39874223489E+02 -0.44299796967E+02  0.27020802841E+01  0.59809692760E+02  0.41800000000E+01 0. -1.
         -5    1    1    2    0  502  0.14888795733E+03  0.80404965001E+02 -0.11939511428E+02  0.16968384298E+03  0.41800000000E+01 0. -1.
        -11    1    1    2    0    0 -0.12843435609E+03 -0.67905093187E+01 -0.83450893491E+02  0.15331518667E+03  0.00000000000E+00 0.  1.
         11    1    1    2    0    0 -0.60327824730E+02 -0.29314658715E+02  0.10955119891E+02  0.67961829758E+02  0.00000000000E+00 0. -1.
</event>
<event>
 6    1  0.6597032E-006  0.1503786E+03  0.7561462E-02  0.1200009E+00
          2   -1    0    0  501    0  0.00000000000E+00  0.00000000000E+00  0.15574124776E+04  0.15574124776E+04  0.00000000000E+00 0. -1.
         -2   -1    0    0    0  501 -0.00000000000E+00 -0.00000000000E+00 -0.14941978200E+02  0.14941978200E+02  0.00000000000E+00 0.  1.
          5    1    1    2  502    0  0.41704402620E+02  0.51727674920E+02  0.42774932527E+03  0.43289948858E+03  0.41800000000E+01 0.  1.
         -5    1    1    2    0  502  0.64397681823E+02 -0.70802828317E+02  0.42012770849E+03  0.43091166817E+03  0.41800000000E+01 0.  1.
        -11    1    1    2    0    0  0.11581031868E+02 -0.11986482157E+02  0.54922825324E+02  0.57396104356E+02  0.00000000000E+00 0.  1.
         11    1    1    2    0    0 -0.11768311631E+03  0.31061635554E+02  0.63967064029E+03  0.65114719467E+03  0.00000000000E+00 0. -1.
</event>
<event>
 6    1  0.6597032E-006  0.1366287E+03  0.7561462E-02  0.1217939E+00
          2   -1    0    0  501    0  0.00000000000E+00  0.00000000000E+00  0.90960291212E+03  0.90960291212E+03  0.00000000000E+00 0. -1.
         -2   -1    0    0    0  501 -0.00000000000E+00 -0.00000000000E+00 -0.26770278649E+02  0.26770278649E+02  0.00000000000E+00 0.  1.
          5    1    1    2  502    0  0.22279203357E+02 -0.99346266546E+01  0.15356048066E+03  0.15554212719E+03  0.41800000000E+01 0. -1.
         -5    1    1    2    0  502 -0.10114385426E+03  0.45949016650E+02  0.18830164715E+03  0.21866955459E+03  0.41800000000E+01 0. -1.
        -11    1    1    2    0    0  0.62324318961E+02  0.30081046482E+02  0.39571068985E+03  0.40171649226E+03  0.00000000000E+00 0. -1.
         11    1    1    2    0    0  0.16540331946E+02 -0.66095436478E+02  0.14525981581E+03  0.16044501673E+03  0.00000000000E+00 0.  1.
</event>
<event>
 6    1  0.6597032E-006  0.1284150E+03  0.7561462E-02  0.1229827E+00
          3   -1    0    0  501    0  0.00000000000E+00  0.00000000000E+00  0.29094205484E+02  0.29094205484E+02  0.00000000000E+00 0. -1.
         -3   -1    0    0    0  501 -0.00000000000E+00 -0.00000000000E+00 -0.60635427026E+03  0.60635427026E+03  0.00000000000E+00 0.  1.
          5    1    1    2  502    0 -0.56444939986E+02 -0.59289225483E+02 -0.19757599772E+03  0.21390416261E+03  0.41800000000E+01 0.  1.
         -5    1    1    2    0  502 -0.14982379535E+02  0.59621801254E+02 -0.17698724347E+03  0.18740647703E+03  0.41800000000E+01 0.  1.
        -11    1    1    2    0    0  0.20015307628E+02 -0.42353540764E+02 -0.55293407497E+02  0.72469275333E+02  0.00000000000E+00 0. -1.
         11    1    1    2    0    0  0.51412011894E+02  0.42020964993E+02 -0.14740341609E+03  0.16166856077E+03  0.00000000000E+00 0.  1.
</event>
<event>
 6    1  0.6597032E-006  0.1131887E+03  0.7561462E-02  0.1254776E+00
         -2   -1    0    0    0  501 -0.00000000000E+00  0.00000000000E+00  0.20954016722E+02  0.20954016722E+02  0.00000000000E+00 0.  1.
          2   -1    0    0  501    0  0.00000000000E+00 -0.00000000000E+00 -0.91685304110E+03  0.91685304110E+03  0.00000000000E+00 0. -1.
          5    1    1    2  502    0 -0.63004702409E+02 -0.44047795278E+01 -0.67898301553E+02  0.92825892735E+02  0.41800000000E+01 0. -1.
         -5    1    1    2    0  502 -0.10527491579E+02  0.40830125620E+02 -0.32221192973E+03  0.32498604170E+03  0.41800000000E+01 0. -1.
        -11    1    1    2    0    0 -0.48703577948E+01  0.22252783557E+02 -0.93038973273E+02  0.95787041445E+02  0.00000000000E+00 0.  1.
         11    1    1    2    0    0  0.78402551782E+02 -0.58678129650E+02 -0.41274981982E+03  0.42420808194E+03  0.00000000000E+00 0. -1.
</event>
<event>
 6    1  0.6597032E-006  0.1072219E+03  0.7561462E-02  0.1265803E+00
         -1   -1    0    0    0  501 -0.00000000000E+00  0.00000000000E+00  0.28231213438E+02  0.28231213438E+02  0.00000000000E+00 0.  1.
          1   -1    0    0  501    0  0.00000000000E+00 -0.00000000000E+00 -0.44576138437E+03  0.44576138437E+03  0.00000000000E+00 0. -1.
          5    1    1    2  502    0 -0.51760203751E+02  0.18660108598E+02 -0.77313001213E+02  0.94984687723E+02  0.41800000000E+01 0. -1.
         -5    1    1    2    0  502  0.54246986966E+02 -0.47634633670E+02 -0.13496419816E+03  0.15311629928E+03  0.41800000000E+01 0. -1.
        -11    1    1    2    0    0 -0.83881125832E+01 -0.28226181137E+02 -0.32676434519E+02  0.43986669653E+02  0.00000000000E+00 0.  1.
         11    1    1    2    0    0  0.59013293675E+01  0.57200706210E+02 -0.17257653704E+03  0.18190494115E+03  0.00000000000E+00 0. -1.
</event>
<event>
 6    1  0.6597032E-006  0.1263289E+03  0.7561462E-02  0.1233007E+00
         -1   -1    0    0    0  501 -0.00000000000E+00  0.00000000000E+00  0.35708275345E+02  0.35708275345E+02  0.00000000000E+00 0.  1.
          1   -1    0    0  501    0  0.00000000000E+00 -0.00000000000E+00 -0.81965484427E+03  0.81965484427E+03  0.00000000000E+00 0. -1.
          5    1    1    2  502    0 -0.35482745067E+02  0.23563615517E+02 -0.36118353108E+03  0.36371044073E+03  0.41800000000E+01 0. -1.
         -5    1    1    2    0  502 -0.53557972188E+02  0.44316409113E+02 -0.36126750014E+02  0.78453903461E+02  0.41800000000E+01 0.  1.
        -11    1    1    2    0    0  0.10464415175E+03 -0.67660938321E+02 -0.36985380870E+03  0.39028225797E+03  0.00000000000E+00 0. -1.
         11    1    1    2    0    0 -0.15603434493E+02 -0.21908630878E+00 -0.16782479130E+02  0.22916517461E+02  0.00000000000E+00 0.  1.
</event>
<event>
 6    1  0.6597032E-006  0.2760544E+03  0.7561462E-02  0.1097864E+00
         -1   -1    0    0    0  501 -0.00000000000E+00  0.00000000000E+00  0.31862919570E+03  0.31862919570E+03  0.00000000000E+00 0.  1.
          1   -1    0    0  501    0  0.00000000000E+00 -0.00000000000E+00 -0.27496719792E+03  0.27496719792E+03  0.00000000000E+00 0. -1.
          5    1    1    2  502    0 -0.70641251979E+02 -0.68424374272E+02  0.92786905586E+02  0.13527366234E+03  0.41800000000E+01 0.  1.
         -5    1    1    2    0  502 -0.16614868117E+03 -0.65577092133E+02  0.15081790360E+01  0.17867704461E+03  0.41800000000E+01 0.  1.
        -11    1    1    2    0    0  0.30625356474E+02  0.30775932075E+01 -0.67595188931E+01  0.31513094656E+02  0.00000000000E+00 0. -1.
         11    1    1    2    0    0  0.20616457668E+03  0.13092387320E+03 -0.43873567948E+02  0.24813259200E+03  0.00000000000E+00 0.  1.
</event>
<event>
 6    1  0.6597032E-006  0.5210520E+02  0.7561462E-02  0.1434306E+00
         -1   -1    0    0    0  501 -0.00000000000E+00  0.00000000000E+00  0.67326130472E+02  0.67326130472E+02  0.00000000000E+00 0.  1.
          1   -1    0    0  501    0  0.00000000000E+00 -0.00000000000E+00 -0.18329796995E+03  0.18329796995E+03  0.00000000000E+00 0. -1.
          5    1    1    2  502    0 -0.17844188809E+02  0.33403751374E+02 -0.10699077802E+03  0.11357255241E+03  0.41800000000E+01 0.  1.
         -5    1    1    2    0  502  0.21239042121E+02 -0.12360564251E+02  0.26744874656E+02  0.36560103653E+02  0.41800000000E+01 0.  1.
        -11    1    1    2    0    0  0.19714546757E+01 -0.30363538747E+02 -0.63660317803E+02  0.70558253816E+02  0.00000000000E+00 0. -1.
         11    1    1    2    0    0 -0.53663079874E+01  0.93203516236E+01  0.27934381687E+02  0.29933190542E+02  0.00000000000E+00 0.  1.
</event>
<event>
 6    1  0.6597032E-006  0.1167970E+03  0.7561462E-02  0.1248476E+00
         -2   -1    0    0    0  501 -0.00000000000E+00  0.00000000000E+00  0.43169894872E+02  0.43169894872E+02  0.00000000000E+00 0. -1.
          2   -1    0    0  501    0  0.00000000000E+00 -0.00000000000E+00 -0.47371190570E+03  0.47371190570E+03  0.00000000000E+00 0.  1.
          5    1    1    2  502    0  0.66467285709E+02  0.77444048404E+01 -0.45550878465E+02  0.81056960249E+02  0.41800000000E+01 0. -1.
         -5    1    1    2    0  502 -0.32773153945E+01  0.59384109064E+02 -0.20749888605E+03  0.21589458844E+03  0.41800000000E+01 0. -1.
        -11    1    1    2    0    0 -0.64211656786E+01 -0.45853724424E+02 -0.18657156853E+02  0.49918783179E+02  0.00000000000E+00 0. -1.
         11    1    1    2    0    0 -0.56768804636E+02 -0.21274789480E+02 -0.15883508946E+03  0.17001146871E+03  0.00000000000E+00 0.  1.
</event>
<event>
 6    1  0.6597032E-006  0.1137807E+03  0.7561462E-02  0.1253725E+00
         -1   -1    0    0    0  501 -0.00000000000E+00  0.00000000000E+00  0.77121289527E+02  0.77121289527E+02  0.00000000000E+00 0.  1.
          1   -1    0    0  501    0  0.00000000000E+00 -0.00000000000E+00 -0.33850105363E+03  0.33850105363E+03  0.00000000000E+00 0. -1.
          5    1    1    2  502    0  0.60308354501E+02 -0.42579557582E+02  0.10004199275E+02  0.74616839584E+02  0.41800000000E+01 0. -1.
         -5    1    1    2    0  502 -0.51202004545E+02 -0.50088268234E+01 -0.92659547283E+00  0.51624263624E+02  0.41800000000E+01 0.  1.
        -11    1    1    2    0    0 -0.48363994787E+02  0.14034981865E+02 -0.15292554655E+03  0.16100397354E+03  0.00000000000E+00 0.  1.
         11    1    1    2    0    0  0.39257644831E+02  0.33553402540E+02 -0.11753182135E+03  0.12837726640E+03  0.00000000000E+00 0. -1.
</event>
<event>
 6    1  0.6597032E-006  0.1288440E+03  0.7561462E-02  0.1229181E+00
         -1   -1    0    0    0  501 -0.00000000000E+00  0.00000000000E+00  0.25501938567E+03  0.25501938567E+03  0.00000000000E+00 0.  1.
          1   -1    0    0  501    0  0.00000000000E+00 -0.00000000000E+00 -0.81251489569E+02  0.81251489569E+02  0.00000000000E+00 0. -1.
          5    1    1    2  502    0 -0.56486772589E+02  0.14263670626E+02  0.67091613435E+02  0.88954846807E+02  0.41800000000E+01 0. -1.
         -5    1    1    2    0  502  0.37319244119E+01 -0.91798454887E+02  0.38522765197E+02  0.99711380583E+02  0.41800000000E+01 0. -1.
        -11    1    1    2    0    0  0.10467210490E+02  0.61019647833E+02 -0.43469925268E+01  0.62063324606E+02  0.00000000000E+00 0. -1.
         11    1    1    2    0    0  0.42287637688E+02  0.16515136427E+02  0.72500509991E+02  0.85541323239E+02  0.00000000000E+00 0.  1.
</event>
